* EQUILIBRATED WATER
*  DATE:     2/ 8/26      2:15:33      CREATED BY USER: charmm-gui
*
     82014  EXT
         1         1  TIP3      OH2           -42.8877066405      -44.6122822861      -28.6119496465  W2        1               0.0000000000
         2         1  TIP3      H1            -42.7985966405      -43.6684622861      -28.7442396465  W2        1               0.0000000000
         3         1  TIP3      H2            -43.5259466405      -44.8876422861      -29.2700096465  W2        1               0.0000000000
         4         2  TIP3      OH2           -43.9545766405      -45.3572122861      -25.1931296465  W2        2               0.0000000000
         5         2  TIP3      H1            -43.9928266405      -46.0035822861      -24.4881696465  W2        2               0.0000000000
         6         2  TIP3      H2            -44.2769266405      -45.8237722861      -25.9642596465  W2        2               0.0000000000
         7         3  TIP3      OH2           -51.5860766405      -45.7430022861      -23.6001396465  W2        3               0.0000000000
         8         3  TIP3      H1            -51.5448666405      -46.3686722861      -22.8768996465  W2        3               0.0000000000
         9         3  TIP3      H2            -50.8833066405      -45.1191422861      -23.4180996465  W2        3               0.0000000000
        10         4  TIP3      OH2           -40.2485566405      -42.4181722861      -26.8916196465  W2        4               0.0000000000
        11         4  TIP3      H1            -40.6892866405      -43.1385722861      -26.4410596465  W2        4               0.0000000000
        12         4  TIP3      H2            -40.2615866405      -41.6974522861      -26.2618496465  W2        4               0.0000000000
        13         5  TIP3      OH2           -50.6627666405      -41.2931122861      -25.0652296465  W2        5               0.0000000000
        14         5  TIP3      H1            -51.0322466405      -42.0950622861      -25.4347996465  W2        5               0.0000000000
        15         5  TIP3      H2            -49.7216566405      -41.4616222861      -25.0188896465  W2        5               0.0000000000
        16         6  TIP3      OH2           -54.0527166405      -47.6328522861      -29.6723496465  W2        6               0.0000000000
        17         6  TIP3      H1            -54.5003766405      -46.7869822861      -29.6906996465  W2        6               0.0000000000
        18         6  TIP3      H2            -54.6135966405      -48.2124322861      -30.1878396465  W2        6               0.0000000000
        19         7  TIP3      OH2           -53.3421066405      -45.4708922861      -27.5465496465  W2        7               0.0000000000
        20         7  TIP3      H1            -53.1287566405      -46.2407322861      -27.0192496465  W2        7               0.0000000000
        21         7  TIP3      H2            -52.6043466405      -45.3812222861      -28.1497896465  W2        7               0.0000000000
        22         8  TIP3      OH2           -43.1370066405      -37.3140022861      -26.6795796465  W2        8               0.0000000000
        23         8  TIP3      H1            -42.5173666405      -37.9905322861      -26.9526596465  W2        8               0.0000000000
        24         8  TIP3      H2            -43.3452666405      -37.5319222861      -25.7710896465  W2        8               0.0000000000
        25         9  TIP3      OH2           -45.5651366405      -42.9250722861      -24.7870296465  W2        9               0.0000000000
        26         9  TIP3      H1            -45.2613466405      -43.6109322861      -25.3816196465  W2        9               0.0000000000
        27         9  TIP3      H2            -44.8437366405      -42.8062022861      -24.1692296465  W2        9               0.0000000000
        28        10  TIP3      OH2           -36.9021566405      -51.3235422861      -23.9264096465  W2        10              0.0000000000
        29        10  TIP3      H1            -36.8529366405      -50.7134222861      -23.1904996465  W2        10              0.0000000000
        30        10  TIP3      H2            -36.4766466405      -50.8624522861      -24.6492996465  W2        10              0.0000000000
        31        11  TIP3      OH2           -42.4244366405      -48.5308322861      -24.4595496465  W2        11              0.0000000000
        32        11  TIP3      H1            -42.2818466405      -49.4771322861      -24.4393896465  W2        11              0.0000000000
        33        11  TIP3      H2            -42.5305366405      -48.3238522861      -25.3880596465  W2        11              0.0000000000
        34        12  TIP3      OH2           -49.2696066405      -50.4291922861      -27.1870696465  W2        12              0.0000000000
        35        12  TIP3      H1            -49.2264966405      -49.5693422861      -27.6054396465  W2        12              0.0000000000
        36        12  TIP3      H2            -49.7271966405      -50.9817222861      -27.8207496465  W2        12              0.0000000000
        37        13  TIP3      OH2           -41.5473366405      -50.2986322861      -28.7862396465  W2        13              0.0000000000
        38        13  TIP3      H1            -40.9009066405      -50.6273122861      -28.1614796465  W2        13              0.0000000000
        39        13  TIP3      H2            -41.0373966405      -49.7807322861      -29.4090996465  W2        13              0.0000000000
        40        14  TIP3      OH2           -52.6494566405      -48.0326122861      -26.4249296465  W2        14              0.0000000000
        41        14  TIP3      H1            -51.9957966405      -48.5824422861      -25.9929196465  W2        14              0.0000000000
        42        14  TIP3      H2            -52.6255266405      -48.3067122861      -27.3417296465  W2        14              0.0000000000
        43        15  TIP3      OH2           -47.4930066405      -46.4824822861      -27.2097796465  W2        15              0.0000000000
        44        15  TIP3      H1            -46.8769066405      -47.0089422861      -26.7003796465  W2        15              0.0000000000
        45        15  TIP3      H2            -48.0791266405      -47.1226122861      -27.6134196465  W2        15              0.0000000000
        46        16  TIP3      OH2           -36.5106966405      -49.8456222861      -21.6904296465  W2        16              0.0000000000
        47        16  TIP3      H1            -37.1992366405      -49.1875522861      -21.7857696465  W2        16              0.0000000000
        48        16  TIP3      H2            -36.4952366405      -50.0428322861      -20.7538896465  W2        16              0.0000000000
        49        17  TIP3      OH2           -50.4594166405      -51.5113522861      -23.1129896465  W2        17              0.0000000000
        50        17  TIP3      H1            -50.6782466405      -50.9812922861      -23.8793896465  W2        17              0.0000000000
        51        17  TIP3      H2            -51.1273266405      -51.2848022861      -22.4658496465  W2        17              0.0000000000
        52        18  TIP3      OH2           -43.0904366405      -42.0112422861      -29.5690796465  W2        18              0.0000000000
        53        18  TIP3      H1            -43.3859266405      -42.3340122861      -30.4203896465  W2        18              0.0000000000
        54        18  TIP3      H2            -43.4146566405      -41.1115722861      -29.5278196465  W2        18              0.0000000000
        55        19  TIP3      OH2           -47.8902766405      -43.8357822861      -22.8256196465  W2        19              0.0000000000
        56        19  TIP3      H1            -48.6303666405      -43.2376322861      -22.7220996465  W2        19              0.0000000000
        57        19  TIP3      H2            -47.1763266405      -43.2818222861      -23.1412596465  W2        19              0.0000000000
        58        20  TIP3      OH2           -39.7834966405      -51.0077022861      -26.8056496465  W2        20              0.0000000000
        59        20  TIP3      H1            -39.9986966405      -51.7733622861      -26.2730496465  W2        20              0.0000000000
        60        20  TIP3      H2            -39.1277566405      -50.5352422861      -26.2927996465  W2        20              0.0000000000
        61        21  TIP3      OH2           -50.8656866405      -49.6191722861      -25.1607696465  W2        21              0.0000000000
        62        21  TIP3      H1            -50.2520566405      -48.9864122861      -24.7875296465  W2        21              0.0000000000
        63        21  TIP3      H2            -50.3536166405      -50.0916722861      -25.8170796465  W2        21              0.0000000000
        64        22  TIP3      OH2           -49.4828466405      -41.8714822861      -22.0384696465  W2        22              0.0000000000
        65        22  TIP3      H1            -49.4880866405      -40.9921322861      -22.4165396465  W2        22              0.0000000000
        66        22  TIP3      H2            -50.3364366405      -41.9550722861      -21.6134796465  W2        22              0.0000000000
        67        23  TIP3      OH2           -53.3617566405      -42.2006922861      -31.2565396465  W2        23              0.0000000000
        68        23  TIP3      H1            -53.6336666405      -41.9715922861      -32.1452496465  W2        23              0.0000000000
        69        23  TIP3      H2            -53.3161866405      -41.3628122861      -30.7960096465  W2        23              0.0000000000
        70        24  TIP3      OH2           -39.7367866405      -40.5791022861      -24.5436896465  W2        24              0.0000000000
        71        24  TIP3      H1            -40.6784166405      -40.5207122861      -24.3819996465  W2        24              0.0000000000
        72        24  TIP3      H2            -39.4601766405      -39.6730522861      -24.6807196465  W2        24              0.0000000000
        73        25  TIP3      OH2           -39.4360866405      -52.2925722861      -23.1262996465  W2        25              0.0000000000
        74        25  TIP3      H1            -40.1721666405      -51.6818622861      -23.1641696465  W2        25              0.0000000000
        75        25  TIP3      H2            -38.7526866405      -51.8776722861      -23.6526596465  W2        25              0.0000000000
        76        26  TIP3      OH2           -46.4329466405      -54.2058422861      -25.6604996465  W2        26              0.0000000000
        77        26  TIP3      H1            -46.5505266405      -55.1542422861      -25.7146696465  W2        26              0.0000000000
        78        26  TIP3      H2            -47.2879366405      -53.8732322861      -25.3873896465  W2        26              0.0000000000
        79        27  TIP3      OH2           -41.4846666405      -38.7977522861      -27.9185296465  W2        27              0.0000000000
        80        27  TIP3      H1            -41.0594366405      -39.5049622861      -28.4035696465  W2        27              0.0000000000
        81        27  TIP3      H2            -41.1676666405      -37.9964822861      -28.3353096465  W2        27              0.0000000000
        82        28  TIP3      OH2           -40.3250166405      -40.8969022861      -29.4098696465  W2        28              0.0000000000
        83        28  TIP3      H1            -40.5825366405      -41.5868922861      -30.0212796465  W2        28              0.0000000000
        84        28  TIP3      H2            -40.2539366405      -41.3397822861      -28.5642796465  W2        28              0.0000000000
        85        29  TIP3      OH2           -38.6389966405      -42.3302322861      -20.9325196465  W2        29              0.0000000000
        86        29  TIP3      H1            -38.4993666405      -42.9219822861      -21.6718196465  W2        29              0.0000000000
        87        29  TIP3      H2            -38.4717166405      -41.4576422861      -21.2886396465  W2        29              0.0000000000
        88        30  TIP3      OH2           -44.1664566405      -45.3682822861      -31.1599196465  W2        30              0.0000000000
        89        30  TIP3      H1            -44.8779066405      -44.8333122861      -31.5118696465  W2        30              0.0000000000
        90        30  TIP3      H2            -43.4754966405      -45.3130722861      -31.8200296465  W2        30              0.0000000000
        91        31  TIP3      OH2           -44.1125366405      -46.9108522861      -34.1214196465  W2        31              0.0000000000
        92        31  TIP3      H1            -43.4115466405      -46.8881622861      -33.4700196465  W2        31              0.0000000000
        93        31  TIP3      H2            -43.8102466405      -47.5388822861      -34.7774896465  W2        31              0.0000000000
        94        32  TIP3      OH2           -36.7970666405      -45.9904322861      -22.8664796465  W2        32              0.0000000000
        95        32  TIP3      H1            -37.4496566405      -45.2958722861      -22.7773896465  W2        32              0.0000000000
        96        32  TIP3      H2            -36.3320366405      -45.7803422861      -23.6763196465  W2        32              0.0000000000
        97        33  TIP3      OH2           -40.7606866405      -45.1589522861      -30.2083296465  W2        33              0.0000000000
        98        33  TIP3      H1            -41.4925866405      -44.9305822861      -29.6352696465  W2        33              0.0000000000
        99        33  TIP3      H2            -40.3134666405      -45.8726822861      -29.7535796465  W2        33              0.0000000000
       100        34  TIP3      OH2           -40.8633366405      -46.9846922861      -21.1406296465  W2        34              0.0000000000
       101        34  TIP3      H1            -40.7834266405      -46.2212522861      -20.5687796465  W2        34              0.0000000000
       102        34  TIP3      H2            -41.4645666405      -46.7054522861      -21.8311196465  W2        34              0.0000000000
       103        35  TIP3      OH2           -49.1153166405      -44.5283322861      -28.3258296465  W2        35              0.0000000000
       104        35  TIP3      H1            -49.4457966405      -44.8989922861      -29.1441296465  W2        35              0.0000000000
       105        35  TIP3      H2            -48.5269066405      -45.1989322861      -27.9789996465  W2        35              0.0000000000
       106        36  TIP3      OH2           -47.7485666405      -41.1002722861      -25.6446096465  W2        36              0.0000000000
       107        36  TIP3      H1            -47.8434366405      -41.6789622861      -26.4011496465  W2        36              0.0000000000
       108        36  TIP3      H2            -47.0192066405      -41.4717022861      -25.1483296465  W2        36              0.0000000000
       109        37  TIP3      OH2           -48.7487666405      -45.7597722861      -24.6923296465  W2        37              0.0000000000
       110        37  TIP3      H1            -48.1835166405      -45.6383522861      -25.4552096465  W2        37              0.0000000000
       111        37  TIP3      H2            -48.4298766405      -45.1222722861      -24.0534796465  W2        37              0.0000000000
       112        38  TIP3      OH2           -42.4395466405      -40.2565822861      -23.9582796465  W2        38              0.0000000000
       113        38  TIP3      H1            -42.6798866405      -39.5942722861      -23.3103596465  W2        38              0.0000000000
       114        38  TIP3      H2            -42.6377266405      -41.0910622861      -23.5333196465  W2        38              0.0000000000
       115        39  TIP3      OH2           -47.8686966405      -41.3605022861      -19.9751396465  W2        39              0.0000000000
       116        39  TIP3      H1            -48.1799466405      -40.5781822861      -19.5198196465  W2        39              0.0000000000
       117        39  TIP3      H2            -48.5186766405      -41.5135922861      -20.6609396465  W2        39              0.0000000000
       118        40  TIP3      OH2           -41.8897366405      -45.9966622861      -32.5232096465  W2        40              0.0000000000
       119        40  TIP3      H1            -41.3101866405      -45.8466322861      -31.7763196465  W2        40              0.0000000000
       120        40  TIP3      H2            -41.4757366405      -45.5259222861      -33.2465696465  W2        40              0.0000000000
       121        41  TIP3      OH2           -50.9487066405      -45.1623922861      -20.7465696465  W2        41              0.0000000000
       122        41  TIP3      H1            -50.8783866405      -44.5117122861      -20.0480696465  W2        41              0.0000000000
       123        41  TIP3      H2            -51.8394866405      -45.0596422861      -21.0814796465  W2        41              0.0000000000
       124        42  TIP3      OH2           -44.1632466405      -39.2598122861      -29.0878996465  W2        42              0.0000000000
       125        42  TIP3      H1            -43.6894866405      -38.9641822861      -28.3104796465  W2        42              0.0000000000
       126        42  TIP3      H2            -44.7263166405      -38.5216522861      -29.3209396465  W2        42              0.0000000000
       127        43  TIP3      OH2           -49.6291066405      -39.2890022861      -19.2117596465  W2        43              0.0000000000
       128        43  TIP3      H1            -49.6215766405      -39.4250322861      -20.1592096465  W2        43              0.0000000000
       129        43  TIP3      H2            -50.5450666405      -39.4061922861      -18.9597596465  W2        43              0.0000000000
       130        44  TIP3      OH2           -38.1908966405      -54.2466222861      -32.7102396465  W2        44              0.0000000000
       131        44  TIP3      H1            -39.0908266405      -54.1077222861      -32.4151796465  W2        44              0.0000000000
       132        44  TIP3      H2            -37.9390566405      -53.4151622861      -33.1120696465  W2        44              0.0000000000
       133        45  TIP3      OH2           -50.1250466405      -45.4589022861      -30.7365496465  W2        45              0.0000000000
       134        45  TIP3      H1            -50.4169166405      -44.6907322861      -31.2274196465  W2        45              0.0000000000
       135        45  TIP3      H2            -50.7995266405      -46.1182822861      -30.8994096465  W2        45              0.0000000000
       136        46  TIP3      OH2           -37.0017566405      -39.8803822861      -34.3338496465  W2        46              0.0000000000
       137        46  TIP3      H1            -36.9284066405      -38.9413622861      -34.1633196465  W2        46              0.0000000000
       138        46  TIP3      H2            -36.0962466405      -40.1855222861      -34.3901196465  W2        46              0.0000000000
       139        47  TIP3      OH2           -54.0320366405      -43.0959822861      -21.9215696465  W2        47              0.0000000000
       140        47  TIP3      H1            -54.5331966405      -43.1240422861      -22.7365996465  W2        47              0.0000000000
       141        47  TIP3      H2            -54.0266666405      -44.0016622861      -21.6118396465  W2        47              0.0000000000
       142        48  TIP3      OH2           -54.2817666405      -40.3156022861      -25.0375496465  W2        48              0.0000000000
       143        48  TIP3      H1            -53.3357066405      -40.4599022861      -25.0565996465  W2        48              0.0000000000
       144        48  TIP3      H2            -54.3941366405      -39.5313222861      -24.5004296465  W2        48              0.0000000000
       145        49  TIP3      OH2           -36.0839166405      -39.6496322861      -19.3551796465  W2        49              0.0000000000
       146        49  TIP3      H1            -36.1332366405      -40.6048222861      -19.3924196465  W2        49              0.0000000000
       147        49  TIP3      H2            -36.9106866405      -39.3821022861      -18.9537996465  W2        49              0.0000000000
       148        50  TIP3      OH2           -45.1055166405      -40.0757122861      -20.4790396465  W2        50              0.0000000000
       149        50  TIP3      H1            -45.0180566405      -39.2492522861      -20.0041296465  W2        50              0.0000000000
       150        50  TIP3      H2            -45.9690066405      -40.4053322861      -20.2301096465  W2        50              0.0000000000
       151        51  TIP3      OH2           -44.6909366405      -36.3033422861      -30.6729796465  W2        51              0.0000000000
       152        51  TIP3      H1            -44.7663366405      -36.4246222861      -31.6194596465  W2        51              0.0000000000
       153        51  TIP3      H2            -44.6580666405      -35.3540722861      -30.5545196465  W2        51              0.0000000000
       154        52  TIP3      OH2           -51.0375566405      -37.5146422861      -28.8920796465  W2        52              0.0000000000
       155        52  TIP3      H1            -50.8855166405      -37.8626022861      -28.0134296465  W2        52              0.0000000000
       156        52  TIP3      H2            -51.8885166405      -37.8709122861      -29.1473596465  W2        52              0.0000000000
       157        53  TIP3      OH2           -41.5893366405      -37.1493222861      -33.6707396465  W2        53              0.0000000000
       158        53  TIP3      H1            -41.2144966405      -37.8937122861      -34.1414796465  W2        53              0.0000000000
       159        53  TIP3      H2            -41.5849666405      -37.4192622861      -32.7524096465  W2        53              0.0000000000
       160        54  TIP3      OH2           -41.9205266405      -37.2236122861      -30.9215196465  W2        54              0.0000000000
       161        54  TIP3      H1            -42.8555466405      -37.1234222861      -30.7428196465  W2        54              0.0000000000
       162        54  TIP3      H2            -41.6403366405      -37.9330122861      -30.3431996465  W2        54              0.0000000000
       163        55  TIP3      OH2           -38.9319366405      -48.1563822861      -18.8749596465  W2        55              0.0000000000
       164        55  TIP3      H1            -39.3392566405      -47.6758222861      -19.5956296465  W2        55              0.0000000000
       165        55  TIP3      H2            -38.8913666405      -49.0617822861      -19.1828796465  W2        55              0.0000000000
       166        56  TIP3      OH2           -51.7829866405      -41.7724422861      -20.8782896465  W2        56              0.0000000000
       167        56  TIP3      H1            -51.5668566405      -42.1338822861      -20.0187096465  W2        56              0.0000000000
       168        56  TIP3      H2            -52.6385166405      -42.1470622861      -21.0879396465  W2        56              0.0000000000
       169        57  TIP3      OH2           -49.1641866405      -53.3023922861      -24.8828696465  W2        57              0.0000000000
       170        57  TIP3      H1            -50.0258166405      -53.3895722861      -25.2905796465  W2        57              0.0000000000
       171        57  TIP3      H2            -49.1866166405      -52.4463822861      -24.4551096465  W2        57              0.0000000000
       172        58  TIP3      OH2           -44.5014066405      -53.5803522861      -21.5081696465  W2        58              0.0000000000
       173        58  TIP3      H1            -44.0810966405      -53.9956422861      -20.7551096465  W2        58              0.0000000000
       174        58  TIP3      H2            -45.4344466405      -53.7590222861      -21.3909696465  W2        58              0.0000000000
       175        59  TIP3      OH2           -41.1749166405      -49.8248322861      -20.6547196465  W2        59              0.0000000000
       176        59  TIP3      H1            -41.6889666405      -49.9506122861      -19.8571196465  W2        59              0.0000000000
       177        59  TIP3      H2            -41.3304466405      -48.9125222861      -20.8990996465  W2        59              0.0000000000
       178        60  TIP3      OH2           -40.4124266405      -44.9638322861      -34.8934196465  W2        60              0.0000000000
       179        60  TIP3      H1            -40.3703466405      -45.1864422861      -35.8234196465  W2        60              0.0000000000
       180        60  TIP3      H2            -39.5632166405      -44.5651222861      -34.7034296465  W2        60              0.0000000000
       181        61  TIP3      OH2           -44.8396766405      -51.0880122861      -34.2230896465  W2        61              0.0000000000
       182        61  TIP3      H1            -45.0931966405      -51.0688522861      -33.3002796465  W2        61              0.0000000000
       183        61  TIP3      H2            -45.0964666405      -51.9594722861      -34.5244696465  W2        61              0.0000000000
       184        62  TIP3      OH2           -49.0731766405      -48.3369422861      -23.7878496465  W2        62              0.0000000000
       185        62  TIP3      H1            -49.7149666405      -48.3772122861      -23.0788396465  W2        62              0.0000000000
       186        62  TIP3      H2            -49.0359766405      -47.4104722861      -24.0255496465  W2        62              0.0000000000
       187        63  TIP3      OH2           -49.0762666405      -48.1159322861      -28.8758496465  W2        63              0.0000000000
       188        63  TIP3      H1            -49.9689766405      -48.4563222861      -28.9344696465  W2        63              0.0000000000
       189        63  TIP3      H2            -48.6256066405      -48.4928422861      -29.6315296465  W2        63              0.0000000000
       190        64  TIP3      OH2           -43.5407166405      -47.6999022861      -30.0587696465  W2        64              0.0000000000
       191        64  TIP3      H1            -43.9496866405      -46.8850422861      -30.3502896465  W2        64              0.0000000000
       192        64  TIP3      H2            -42.8200966405      -47.8398922861      -30.6730596465  W2        64              0.0000000000
       193        65  TIP3      OH2           -44.4385566405      -47.5242622861      -18.5706996465  W2        65              0.0000000000
       194        65  TIP3      H1            -45.0011766405      -48.2291022861      -18.2499196465  W2        65              0.0000000000
       195        65  TIP3      H2            -43.6122166405      -47.6450722861      -18.1029396465  W2        65              0.0000000000
       196        66  TIP3      OH2           -42.5359466405      -48.2538622861      -27.2447996465  W2        66              0.0000000000
       197        66  TIP3      H1            -42.7314966405      -47.6481822861      -27.9597396465  W2        66              0.0000000000
       198        66  TIP3      H2            -42.3546866405      -49.0873422861      -27.6791696465  W2        66              0.0000000000
       199        67  TIP3      OH2           -51.3231266405      -48.0165922861      -21.9206496465  W2        67              0.0000000000
       200        67  TIP3      H1            -51.3611866405      -47.6164322861      -21.0519396465  W2        67              0.0000000000
       201        67  TIP3      H2            -51.8140166405      -48.8333522861      -21.8303596465  W2        67              0.0000000000
       202        68  TIP3      OH2           -47.9573866405      -50.6423622861      -35.1220496465  W2        68              0.0000000000
       203        68  TIP3      H1            -48.3883166405      -51.0873522861      -34.3923096465  W2        68              0.0000000000
       204        68  TIP3      H2            -48.6755166405      -50.2707322861      -35.6342996465  W2        68              0.0000000000
       205        69  TIP3      OH2           -54.7150466405      -50.9004122861      -28.0701796465  W2        69              0.0000000000
       206        69  TIP3      H1            -54.0842766405      -50.9292022861      -27.3507896465  W2        69              0.0000000000
       207        69  TIP3      H2            -54.2656166405      -51.3255422861      -28.8005896465  W2        69              0.0000000000
       208        70  TIP3      OH2           -53.4408366405      -50.1542122861      -32.6461396465  W2        70              0.0000000000
       209        70  TIP3      H1            -52.9666666405      -49.5632222861      -33.2310496465  W2        70              0.0000000000
       210        70  TIP3      H2            -54.1581966405      -49.6239222861      -32.2991296465  W2        70              0.0000000000
       211        71  TIP3      OH2           -43.2720266405      -46.6157322861      -22.5735596465  W2        71              0.0000000000
       212        71  TIP3      H1            -42.9485466405      -47.2467622861      -23.2165096465  W2        71              0.0000000000
       213        71  TIP3      H2            -43.7120966405      -47.1505122861      -21.9128196465  W2        71              0.0000000000
       214        72  TIP3      OH2           -46.4947366405      -50.6881822861      -27.7894396465  W2        72              0.0000000000
       215        72  TIP3      H1            -47.4056266405      -50.6315022861      -27.5008396465  W2        72              0.0000000000
       216        72  TIP3      H2            -45.9894466405      -50.7486322861      -26.9787196465  W2        72              0.0000000000
       217        73  TIP3      OH2           -51.6663966405      -49.0595522861      -28.9626796465  W2        73              0.0000000000
       218        73  TIP3      H1            -52.5555966405      -48.9600022861      -29.3027196465  W2        73              0.0000000000
       219        73  TIP3      H2            -51.3699066405      -49.9012522861      -29.3088896465  W2        73              0.0000000000
       220        74  TIP3      OH2           -48.0132166405      -49.0592922861      -31.3062196465  W2        74              0.0000000000
       221        74  TIP3      H1            -47.0816666405      -48.9302922861      -31.1279096465  W2        74              0.0000000000
       222        74  TIP3      H2            -48.2281866405      -48.3898622861      -31.9557496465  W2        74              0.0000000000
       223        75  TIP3      OH2           -42.0895466405      -51.4535522861      -24.5252596465  W2        75              0.0000000000
       224        75  TIP3      H1            -42.7663866405      -51.3222422861      -23.8612896465  W2        75              0.0000000000
       225        75  TIP3      H2            -42.5750566405      -51.6086022861      -25.3354896465  W2        75              0.0000000000
       226        76  TIP3      OH2           -49.3391966405      -47.8650722861      -33.7396096465  W2        76              0.0000000000
       227        76  TIP3      H1            -49.8816866405      -48.2446922861      -34.4308496465  W2        76              0.0000000000
       228        76  TIP3      H2            -48.5057066405      -47.6706022861      -34.1681996465  W2        76              0.0000000000
       229        77  TIP3      OH2           -38.8020366405      -35.7820122861      -18.2484996465  W2        77              0.0000000000
       230        77  TIP3      H1            -38.6021666405      -35.3578222861      -19.0829696465  W2        77              0.0000000000
       231        77  TIP3      H2            -38.1466666405      -35.4381922861      -17.6414596465  W2        77              0.0000000000
       232        78  TIP3      OH2           -51.2040566405      -43.3078822861      -18.6404496465  W2        78              0.0000000000
       233        78  TIP3      H1            -50.4718166405      -43.0532922861      -18.0789996465  W2        78              0.0000000000
       234        78  TIP3      H2            -51.9841866405      -43.1033422861      -18.1249096465  W2        78              0.0000000000
       235        79  TIP3      OH2           -45.1747666405      -47.9008822861      -25.9024796465  W2        79              0.0000000000
       236        79  TIP3      H1            -44.6104266405      -48.4472222861      -26.4495196465  W2        79              0.0000000000
       237        79  TIP3      H2            -45.3224266405      -48.4226922861      -25.1137196465  W2        79              0.0000000000
       238        80  TIP3      OH2           -50.1727966405      -51.7642722861      -29.4839996465  W2        80              0.0000000000
       239        80  TIP3      H1            -50.4898466405      -52.6667422861      -29.5194596465  W2        80              0.0000000000
       240        80  TIP3      H2            -49.3913866405      -51.7625322861      -30.0368396465  W2        80              0.0000000000
       241        81  TIP3      OH2           -46.5481766405      -49.5122722861      -23.4884396465  W2        81              0.0000000000
       242        81  TIP3      H1            -47.3836466405      -49.0583222861      -23.3781996465  W2        81              0.0000000000
       243        81  TIP3      H2            -46.0241166405      -49.2364222861      -22.7364496465  W2        81              0.0000000000
       244        82  TIP3      OH2           -46.0039166405      -43.2995022861      -31.8037996465  W2        82              0.0000000000
       245        82  TIP3      H1            -46.7488166405      -43.8069722861      -32.1260096465  W2        82              0.0000000000
       246        82  TIP3      H2            -46.1381966405      -43.2507022861      -30.8573196465  W2        82              0.0000000000
       247        83  TIP3      OH2           -38.8540266405      -44.1666822861      -23.0170396465  W2        83              0.0000000000
       248        83  TIP3      H1            -38.2121466405      -43.7100522861      -23.5608196465  W2        83              0.0000000000
       249        83  TIP3      H2            -39.6843366405      -44.0534422861      -23.4796296465  W2        83              0.0000000000
       250        84  TIP3      OH2           -42.1062366405      -50.4855122861      -33.6045396465  W2        84              0.0000000000
       251        84  TIP3      H1            -43.0448166405      -50.3739522861      -33.7556596465  W2        84              0.0000000000
       252        84  TIP3      H2            -41.8090266405      -49.6288222861      -33.2979696465  W2        84              0.0000000000
       253        85  TIP3      OH2           -44.4847066405      -43.1151722861      -20.5668896465  W2        85              0.0000000000
       254        85  TIP3      H1            -44.8300966405      -43.4969322861      -19.7599296465  W2        85              0.0000000000
       255        85  TIP3      H2            -44.6846966405      -42.1818122861      -20.4955996465  W2        85              0.0000000000
       256        86  TIP3      OH2           -41.3878866405      -48.6182422861      -31.9437996465  W2        86              0.0000000000
       257        86  TIP3      H1            -40.4959866405      -48.7557422861      -31.6246796465  W2        86              0.0000000000
       258        86  TIP3      H2            -41.3315266405      -47.8276322861      -32.4804496465  W2        86              0.0000000000
       259        87  TIP3      OH2           -50.8790866405      -44.0045022861      -26.0340096465  W2        87              0.0000000000
       260        87  TIP3      H1            -50.1343666405      -44.0069322861      -26.6353596465  W2        87              0.0000000000
       261        87  TIP3      H2            -50.8014266405      -44.8281222861      -25.5524996465  W2        87              0.0000000000
       262        88  TIP3      OH2           -43.8785066405      -41.8410722861      -32.7783396465  W2        88              0.0000000000
       263        88  TIP3      H1            -44.1736666405      -41.0142822861      -32.3968596465  W2        88              0.0000000000
       264        88  TIP3      H2            -44.5815066405      -42.4603822861      -32.5821996465  W2        88              0.0000000000
       265        89  TIP3      OH2           -53.8711166405      -45.5438122861      -20.7191596465  W2        89              0.0000000000
       266        89  TIP3      H1            -53.6482566405      -45.9618522861      -19.8874096465  W2        89              0.0000000000
       267        89  TIP3      H2            -54.4731066405      -46.1563122861      -21.1418796465  W2        89              0.0000000000
       268        90  TIP3      OH2           -46.8546266405      -46.0268222861      -18.5061896465  W2        90              0.0000000000
       269        90  TIP3      H1            -47.1505466405      -46.1925222861      -19.4012796465  W2        90              0.0000000000
       270        90  TIP3      H2            -45.9231066405      -46.2467922861      -18.5167996465  W2        90              0.0000000000
       271        91  TIP3      OH2           -42.2343466405      -40.6536222861      -20.6163896465  W2        91              0.0000000000
       272        91  TIP3      H1            -43.1349166405      -40.4703622861      -20.8839996465  W2        91              0.0000000000
       273        91  TIP3      H2            -42.2002366405      -40.3946922861      -19.6955096465  W2        91              0.0000000000
       274        92  TIP3      OH2           -36.5030166405      -48.4088322861      -32.2491296465  W2        92              0.0000000000
       275        92  TIP3      H1            -37.0573866405      -48.8050322861      -32.9213796465  W2        92              0.0000000000
       276        92  TIP3      H2            -36.4026566405      -47.4983122861      -32.5267996465  W2        92              0.0000000000
       277        93  TIP3      OH2           -36.5398166405      -42.6086622861      -19.4119796465  W2        93              0.0000000000
       278        93  TIP3      H1            -37.3909666405      -42.3702822861      -19.7793396465  W2        93              0.0000000000
       279        93  TIP3      H2            -35.9494766405      -42.6253422861      -20.1652696465  W2        93              0.0000000000
       280        94  TIP3      OH2           -38.2078466405      -39.6227922861      -31.7839196465  W2        94              0.0000000000
       281        94  TIP3      H1            -38.5807366405      -40.4484122861      -31.4748596465  W2        94              0.0000000000
       282        94  TIP3      H2            -37.9304966405      -39.8058522861      -32.6815796465  W2        94              0.0000000000
       283        95  TIP3      OH2           -41.0474566405      -44.8148422861      -24.7627296465  W2        95              0.0000000000
       284        95  TIP3      H1            -41.9757666405      -45.0466522861      -24.7897996465  W2        95              0.0000000000
       285        95  TIP3      H2            -40.5963466405      -45.5918622861      -25.0928496465  W2        95              0.0000000000
       286        96  TIP3      OH2           -48.5041466405      -40.4866822861      -28.6298596465  W2        96              0.0000000000
       287        96  TIP3      H1            -47.9769266405      -39.7132422861      -28.8299796465  W2        96              0.0000000000
       288        96  TIP3      H2            -49.3842966405      -40.2617622861      -28.9314596465  W2        96              0.0000000000
       289        97  TIP3      OH2           -52.7493766405      -45.6242722861      -34.0426196465  W2        97              0.0000000000
       290        97  TIP3      H1            -52.1333866405      -44.9975522861      -33.6631396465  W2        97              0.0000000000
       291        97  TIP3      H2            -53.6111166405      -45.3082922861      -33.7709696465  W2        97              0.0000000000
       292        98  TIP3      OH2           -47.0769166405      -42.8236922861      -29.0534296465  W2        98              0.0000000000
       293        98  TIP3      H1            -47.3179166405      -41.8982522861      -29.0118996465  W2        98              0.0000000000
       294        98  TIP3      H2            -47.8175566405      -43.2825622861      -28.6570396465  W2        98              0.0000000000
       295        99  TIP3      OH2           -46.5622566405      -38.6743322861      -22.7383196465  W2        99              0.0000000000
       296        99  TIP3      H1            -46.1997866405      -37.8197722861      -22.9718796465  W2        99              0.0000000000
       297        99  TIP3      H2            -46.0307366405      -38.9661722861      -21.9976896465  W2        99              0.0000000000
       298       100  TIP3      OH2           -48.3938366405      -37.8019322861      -29.5082096465  W2        100             0.0000000000
       299       100  TIP3      H1            -49.3437866405      -37.6961922861      -29.4568796465  W2        100             0.0000000000
       300       100  TIP3      H2            -48.0420266405      -36.9811922861      -29.1634596465  W2        100             0.0000000000
       301       101  TIP3      OH2           -43.0181766405      -42.5752622861      -23.0377596465  W2        101             0.0000000000
       302       101  TIP3      H1            -43.4440466405      -42.8030922861      -22.2113596465  W2        101             0.0000000000
       303       101  TIP3      H2            -42.4375966405      -43.3140822861      -23.2202296465  W2        101             0.0000000000
       304       102  TIP3      OH2           -40.8152866405      -41.6462122861      -33.9638596465  W2        102             0.0000000000
       305       102  TIP3      H1            -40.4619766405      -42.0262322861      -33.1595096465  W2        102             0.0000000000
       306       102  TIP3      H2            -41.7639366405      -41.7397322861      -33.8769296465  W2        102             0.0000000000
       307       103  TIP3      OH2           -40.3597566405      -38.0233122861      -20.5682796465  W2        103             0.0000000000
       308       103  TIP3      H1            -40.9614366405      -38.5790222861      -21.0636496465  W2        103             0.0000000000
       309       103  TIP3      H2            -40.0783866405      -37.3563322861      -21.1945396465  W2        103             0.0000000000
       310       104  TIP3      OH2           -36.3118466405      -37.1669622861      -33.7628396465  W2        104             0.0000000000
       311       104  TIP3      H1            -35.5680566405      -36.5809122861      -33.9026796465  W2        104             0.0000000000
       312       104  TIP3      H2            -37.0060366405      -36.5983822861      -33.4295996465  W2        104             0.0000000000
       313       105  TIP3      OH2           -52.2371666405      -50.7905422861      -21.1610196465  W2        105             0.0000000000
       314       105  TIP3      H1            -53.1299366405      -50.4520022861      -21.2286196465  W2        105             0.0000000000
       315       105  TIP3      H2            -52.3358866405      -51.6459322861      -20.7429396465  W2        105             0.0000000000
       316       106  TIP3      OH2           -39.9493566405      -42.9740122861      -31.7370696465  W2        106             0.0000000000
       317       106  TIP3      H1            -40.2265966405      -43.7020822861      -31.1809596465  W2        106             0.0000000000
       318       106  TIP3      H2            -39.0220566405      -42.8548122861      -31.5318096465  W2        106             0.0000000000
       319       107  TIP3      OH2           -52.5859666405      -38.9861022861      -22.7260796465  W2        107             0.0000000000
       320       107  TIP3      H1            -52.3689366405      -39.9178622861      -22.7571096465  W2        107             0.0000000000
       321       107  TIP3      H2            -52.3396166405      -38.7116022861      -21.8427996465  W2        107             0.0000000000
       322       108  TIP3      OH2           -46.7245066405      -40.5346022861      -35.5168596465  W2        108             0.0000000000
       323       108  TIP3      H1            -46.4855266405      -41.2827922861      -36.0639696465  W2        108             0.0000000000
       324       108  TIP3      H2            -46.9933766405      -40.9224322861      -34.6840796465  W2        108             0.0000000000
       325       109  TIP3      OH2           -47.7874466405      -40.9642222861      -33.0605996465  W2        109             0.0000000000
       326       109  TIP3      H1            -47.6406466405      -41.4842422861      -32.2705096465  W2        109             0.0000000000
       327       109  TIP3      H2            -47.7902766405      -40.0574622861      -32.7540096465  W2        109             0.0000000000
       328       110  TIP3      OH2           -51.3343366405      -43.7118922861      -32.5500596465  W2        110             0.0000000000
       329       110  TIP3      H1            -52.0204066405      -43.3596422861      -31.9830896465  W2        110             0.0000000000
       330       110  TIP3      H2            -50.8115466405      -42.9489322861      -32.7966296465  W2        110             0.0000000000
       331       111  TIP3      OH2           -43.5028266405      -51.0495122861      -22.2711596465  W2        111             0.0000000000
       332       111  TIP3      H1            -42.8040366405      -50.9756422861      -21.6211896465  W2        111             0.0000000000
       333       111  TIP3      H2            -43.8836866405      -51.9140122861      -22.1168696465  W2        111             0.0000000000
       334       112  TIP3      OH2           -42.7183366405      -51.3973422861      -31.1739296465  W2        112             0.0000000000
       335       112  TIP3      H1            -42.4985066405      -50.9258022861      -31.9773896465  W2        112             0.0000000000
       336       112  TIP3      H2            -42.1599366405      -51.0030822861      -30.5038696465  W2        112             0.0000000000
       337       113  TIP3      OH2           -45.0497266405      -39.2668622861      -32.3111796465  W2        113             0.0000000000
       338       113  TIP3      H1            -45.8661166405      -38.7698922861      -32.2587496465  W2        113             0.0000000000
       339       113  TIP3      H2            -44.5200966405      -38.7915122861      -32.9512996465  W2        113             0.0000000000
       340       114  TIP3      OH2           -45.5183466405      -49.6694622861      -30.3390896465  W2        114             0.0000000000
       341       114  TIP3      H1            -44.7060866405      -49.1651422861      -30.2929196465  W2        114             0.0000000000
       342       114  TIP3      H2            -45.7630466405      -49.8144922861      -29.4251296465  W2        114             0.0000000000
       343       115  TIP3      OH2           -44.9827066405      -48.6831922861      -21.1544296465  W2        115             0.0000000000
       344       115  TIP3      H1            -44.8636766405      -48.1096522861      -20.3973896465  W2        115             0.0000000000
       345       115  TIP3      H2            -44.3272466405      -49.3712522861      -21.0396496465  W2        115             0.0000000000
       346       116  TIP3      OH2           -44.6346766405      -52.5881622861      -29.4009796465  W2        116             0.0000000000
       347       116  TIP3      H1            -44.9813266405      -51.9711022861      -28.7565496465  W2        116             0.0000000000
       348       116  TIP3      H2            -43.9759866405      -52.0875922861      -29.8824296465  W2        116             0.0000000000
       349       117  TIP3      OH2           -47.7114166405      -38.2231422861      -32.3294896465  W2        117             0.0000000000
       350       117  TIP3      H1            -47.5505466405      -37.4233922861      -32.8302296465  W2        117             0.0000000000
       351       117  TIP3      H2            -47.9086366405      -37.9165422861      -31.4444296465  W2        117             0.0000000000
       352       118  TIP3      OH2           -48.9769766405      -51.5252222861      -32.7137296465  W2        118             0.0000000000
       353       118  TIP3      H1            -49.0604966405      -50.6369122861      -32.3670896465  W2        118             0.0000000000
       354       118  TIP3      H2            -48.0869466405      -51.7905522861      -32.4820496465  W2        118             0.0000000000
       355       119  TIP3      OH2           -38.7781266405      -50.7761622861      -20.3194596465  W2        119             0.0000000000
       356       119  TIP3      H1            -39.6945466405      -50.5139922861      -20.4070896465  W2        119             0.0000000000
       357       119  TIP3      H2            -38.4426266405      -50.7792622861      -21.2159296465  W2        119             0.0000000000
       358       120  TIP3      OH2           -40.1760266405      -47.0260622861      -26.2237296465  W2        120             0.0000000000
       359       120  TIP3      H1            -40.9735866405      -47.4410422861      -26.5522296465  W2        120             0.0000000000
       360       120  TIP3      H2            -39.7309166405      -47.7166922861      -25.7326796465  W2        120             0.0000000000
       361       121  TIP3      OH2           -50.7184466405      -41.0980022861      -33.6532796465  W2        121             0.0000000000
       362       121  TIP3      H1            -50.1262966405      -40.3985222861      -33.3770396465  W2        121             0.0000000000
       363       121  TIP3      H2            -50.2591466405      -41.5310522861      -34.3728196465  W2        121             0.0000000000
       364       122  TIP3      OH2           -52.4025266405      -48.4337022861      -34.5373396465  W2        122             0.0000000000
       365       122  TIP3      H1            -52.4472666405      -47.4943922861      -34.3586396465  W2        122             0.0000000000
       366       122  TIP3      H2            -53.2902066405      -48.6692122861      -34.8071296465  W2        122             0.0000000000
       367       123  TIP3      OH2           -39.0895666405      -37.7698122861      -24.6013796465  W2        123             0.0000000000
       368       123  TIP3      H1            -39.2451366405      -37.0913722861      -25.2584496465  W2        123             0.0000000000
       369       123  TIP3      H2            -38.1569266405      -37.6978822861      -24.3983196465  W2        123             0.0000000000
       370       124  TIP3      OH2           -51.5943266405      -53.6520422861      -25.8642396465  W2        124             0.0000000000
       371       124  TIP3      H1            -51.8233466405      -53.5927922861      -26.7917396465  W2        124             0.0000000000
       372       124  TIP3      H2            -52.0369866405      -54.4434922861      -25.5578296465  W2        124             0.0000000000
       373       125  TIP3      OH2           -52.6639966405      -39.7113322861      -29.7036596465  W2        125             0.0000000000
       374       125  TIP3      H1            -53.4961366405      -39.2390622861      -29.6765196465  W2        125             0.0000000000
       375       125  TIP3      H2            -52.1181666405      -39.2015722861      -30.3023496465  W2        125             0.0000000000
       376       126  TIP3      OH2           -53.3756266405      -37.0989622861      -18.3738596465  W2        126             0.0000000000
       377       126  TIP3      H1            -52.8354066405      -37.3155622861      -17.6139396465  W2        126             0.0000000000
       378       126  TIP3      H2            -53.8568266405      -37.9043622861      -18.5636096465  W2        126             0.0000000000
       379       127  TIP3      OH2           -48.7782866405      -38.1795222861      -16.7534396465  W2        127             0.0000000000
       380       127  TIP3      H1            -48.0105666405      -38.6384422861      -16.4125196465  W2        127             0.0000000000
       381       127  TIP3      H2            -48.7996666405      -38.4055422861      -17.6833196465  W2        127             0.0000000000
       382       128  TIP3      OH2           -44.6863266405      -38.6714622861      -35.3782596465  W2        128             0.0000000000
       383       128  TIP3      H1            -45.3302266405      -39.3026022861      -35.0568896465  W2        128             0.0000000000
       384       128  TIP3      H2            -43.9244966405      -39.2026622861      -35.6099096465  W2        128             0.0000000000
       385       129  TIP3      OH2           -42.2014166405      -39.7994122861      -18.0242896465  W2        129             0.0000000000
       386       129  TIP3      H1            -42.5524666405      -40.6561122861      -17.7812496465  W2        129             0.0000000000
       387       129  TIP3      H2            -41.4750966405      -39.6567422861      -17.4173896465  W2        129             0.0000000000
       388       130  TIP3      OH2           -40.0820366405      -38.8544722861      -35.1444596465  W2        130             0.0000000000
       389       130  TIP3      H1            -39.7989966405      -39.6489522861      -34.6917696465  W2        130             0.0000000000
       390       130  TIP3      H2            -39.3422466405      -38.6213722861      -35.7053496465  W2        130             0.0000000000
       391       131  TIP3      OH2           -53.4686766405      -43.2885522861      -17.4194296465  W2        131             0.0000000000
       392       131  TIP3      H1            -53.3246266405      -44.1904822861      -17.7057596465  W2        131             0.0000000000
       393       131  TIP3      H2            -54.2409366405      -43.0023422861      -17.9071996465  W2        131             0.0000000000
       394       132  TIP3      OH2           -49.1273066405      -42.9449822861      -35.2869696465  W2        132             0.0000000000
       395       132  TIP3      H1            -49.0628966405      -43.7390222861      -34.7563296465  W2        132             0.0000000000
       396       132  TIP3      H2            -48.4743866405      -43.0637022861      -35.9767696465  W2        132             0.0000000000
       397       133  TIP3      OH2           -46.8130666405      -43.3187422861      -17.9867896465  W2        133             0.0000000000
       398       133  TIP3      H1            -47.1416866405      -43.0479322861      -18.8440496465  W2        133             0.0000000000
       399       133  TIP3      H2            -46.6612466405      -44.2597622861      -18.0742896465  W2        133             0.0000000000
       400       134  TIP3      OH2           -43.7749666405      -41.8978122861      -35.5511696465  W2        134             0.0000000000
       401       134  TIP3      H1            -44.0435566405      -41.7176022861      -34.6502796465  W2        134             0.0000000000
       402       134  TIP3      H2            -43.9814066405      -42.8231922861      -35.6825896465  W2        134             0.0000000000
       403       135  TIP3      OH2           -41.0785466405      -43.4030122861      -20.6035596465  W2        135             0.0000000000
       404       135  TIP3      H1            -40.3330666405      -42.8146422861      -20.7231596465  W2        135             0.0000000000
       405       135  TIP3      H2            -41.8358666405      -42.8210422861      -20.5402496465  W2        135             0.0000000000
       406       136  TIP3      OH2           -52.6360266405      -46.0882222861      -17.9994996465  W2        136             0.0000000000
       407       136  TIP3      H1            -52.2279066405      -46.9455622861      -18.1204396465  W2        136             0.0000000000
       408       136  TIP3      H2            -52.8962666405      -46.0740922861      -17.0784696465  W2        136             0.0000000000
       409       137  TIP3      OH2           -47.9779266405      -44.9723622861      -32.9811696465  W2        137             0.0000000000
       410       137  TIP3      H1            -48.4377266405      -45.4565322861      -32.2953196465  W2        137             0.0000000000
       411       137  TIP3      H2            -47.7230566405      -45.6408222861      -33.6171196465  W2        137             0.0000000000
       412       138  TIP3      OH2           -48.6889966405      -47.0796522861      -20.6252096465  W2        138             0.0000000000
       413       138  TIP3      H1            -49.3073866405      -46.4049922861      -20.3447396465  W2        138             0.0000000000
       414       138  TIP3      H2            -48.3448766405      -46.7582622861      -21.4585896465  W2        138             0.0000000000
       415       139  TIP3      OH2           -46.9068866405      -46.7291822861      -34.7188496465  W2        139             0.0000000000
       416       139  TIP3      H1            -47.0873866405      -46.8840622861      -35.6460196465  W2        139             0.0000000000
       417       139  TIP3      H2            -45.9568366405      -46.6213122861      -34.6740596465  W2        139             0.0000000000
       418       140  TIP3      OH2           -43.6691766405      -44.6081222861      -17.3477296465  W2        140             0.0000000000
       419       140  TIP3      H1            -42.7160566405      -44.5242122861      -17.3751296465  W2        140             0.0000000000
       420       140  TIP3      H2            -43.8297166405      -45.3199422861      -16.7282396465  W2        140             0.0000000000
       421       141  TIP3      OH2           -37.5170566405      -44.3747622861      -35.2730396465  W2        141             0.0000000000
       422       141  TIP3      H1            -37.7905766405      -44.7992122861      -36.0862096465  W2        141             0.0000000000
       423       141  TIP3      H2            -37.4776466405      -43.4433122861      -35.4899996465  W2        141             0.0000000000
       424       142  TIP3      OH2           -48.3496266405      -49.7245722861      -19.5428996465  W2        142             0.0000000000
       425       142  TIP3      H1            -48.1995366405      -50.4534422861      -20.1449296465  W2        142             0.0000000000
       426       142  TIP3      H2            -48.3473866405      -48.9474022861      -20.1016796465  W2        142             0.0000000000
       427       143  TIP3      OH2           -47.9370566405      -51.3549922861      -22.0501596465  W2        143             0.0000000000
       428       143  TIP3      H1            -47.4013066405      -50.9033222861      -22.7022296465  W2        143             0.0000000000
       429       143  TIP3      H2            -48.7890966405      -51.4630122861      -22.4727496465  W2        143             0.0000000000
       430       144  TIP3      OH2           -46.3552166405      -45.9153722861      -21.8106396465  W2        144             0.0000000000
       431       144  TIP3      H1            -45.6047366405      -46.0716222861      -22.3838596465  W2        144             0.0000000000
       432       144  TIP3      H2            -46.6943866405      -45.0637122861      -22.0860896465  W2        144             0.0000000000
       433       145  TIP3      OH2           -41.9395966405      -48.1001922861      -16.7821096465  W2        145             0.0000000000
       434       145  TIP3      H1            -41.7474666405      -49.0312522861      -16.8936596465  W2        145             0.0000000000
       435       145  TIP3      H2            -41.0819666405      -47.6752422861      -16.7925696465  W2        145             0.0000000000
       436       146  TIP3      OH2           -40.6228766405      -45.3116722861      -18.7048396465  W2        146             0.0000000000
       437       146  TIP3      H1            -40.9043766405      -44.6022122861      -19.2824596465  W2        146             0.0000000000
       438       146  TIP3      H2            -39.6804466405      -45.3843722861      -18.8557196465  W2        146             0.0000000000
       439       147  TIP3      OH2           -49.8709966405      -48.5262222861      -17.6313396465  W2        147             0.0000000000
       440       147  TIP3      H1            -50.6380966405      -49.0587422861      -17.8415796465  W2        147             0.0000000000
       441       147  TIP3      H2            -49.1920966405      -48.8361822861      -18.2307096465  W2        147             0.0000000000
       442       148  TIP3      OH2           -47.1315066405      -53.8984222861      -21.6187996465  W2        148             0.0000000000
       443       148  TIP3      H1            -47.2295466405      -52.9521022861      -21.7241796465  W2        148             0.0000000000
       444       148  TIP3      H2            -47.8738866405      -54.2710422861      -22.0944496465  W2        148             0.0000000000
       445       149  TIP3      OH2           -45.8674566405      -49.5768822861      -18.0549596465  W2        149             0.0000000000
       446       149  TIP3      H1            -46.1029166405      -49.7962122861      -17.1534696465  W2        149             0.0000000000
       447       149  TIP3      H2            -46.6507666405      -49.7837622861      -18.5647096465  W2        149             0.0000000000
       448       150  TIP3      OH2           -43.1517966405      -50.4495322861      -18.9796096465  W2        150             0.0000000000
       449       150  TIP3      H1            -44.0992566405      -50.4175622861      -18.8472796465  W2        150             0.0000000000
       450       150  TIP3      H2            -42.8391266405      -51.0748222861      -18.3257896465  W2        150             0.0000000000
       451       151  TIP3      OH2           -41.5176466405      -51.8154222861      -16.9744196465  W2        151             0.0000000000
       452       151  TIP3      H1            -41.6144666405      -52.7676922861      -16.9802296465  W2        151             0.0000000000
       453       151  TIP3      H2            -41.8393366405      -51.5467422861      -16.1138696465  W2        151             0.0000000000
       454       152  TIP3      OH2           -51.6907166405      -50.6058422861      -17.9268696465  W2        152             0.0000000000
       455       152  TIP3      H1            -51.4789766405      -51.3122322861      -18.5371196465  W2        152             0.0000000000
       456       152  TIP3      H2            -51.8019666405      -51.0432422861      -17.0827496465  W2        152             0.0000000000
       457       153  TIP3      OH2           -46.9096966405      -54.6046822861      -18.9475196465  W2        153             0.0000000000
       458       153  TIP3      H1            -46.1978566405      -55.2444622861      -18.9616096465  W2        153             0.0000000000
       459       153  TIP3      H2            -47.0106566405      -54.3378522861      -19.8612096465  W2        153             0.0000000000
       460       154  TIP3      OH2           -46.5559466405      -52.9218422861      -16.8938896465  W2        154             0.0000000000
       461       154  TIP3      H1            -46.6877266405      -53.3974622861      -17.7140396465  W2        154             0.0000000000
       462       154  TIP3      H2            -47.1552066405      -52.1774822861      -16.9491796465  W2        154             0.0000000000
       463       155  TIP3      OH2           -47.0097166405      -36.0388122861      -33.7174896465  W2        155             0.0000000000
       464       155  TIP3      H1            -46.0766466405      -35.8809422861      -33.5736496465  W2        155             0.0000000000
       465       155  TIP3      H2            -47.2738366405      -35.3635122861      -34.3423396465  W2        155             0.0000000000
       466       156  TIP3      OH2           -53.4412266405      -41.4024322861      -34.2346796465  W2        156             0.0000000000
       467       156  TIP3      H1            -52.5273066405      -41.3235422861      -33.9612896465  W2        156             0.0000000000
       468       156  TIP3      H2            -53.4339166405      -42.0894722861      -34.9011196465  W2        156             0.0000000000
       469       157  TIP3      OH2           -54.7921666405      -36.0095822861      -29.1572896465  W2        157             0.0000000000
       470       157  TIP3      H1            -55.4394566405      -36.4714122861      -29.6901696465  W2        157             0.0000000000
       471       157  TIP3      H2            -54.4377066405      -36.6812522861      -28.5746696465  W2        157             0.0000000000
       472       158  TIP3      OH2           -53.9222466405      -37.9288822861      -27.3526696465  W2        158             0.0000000000
       473       158  TIP3      H1            -54.2565666405      -38.8091522861      -27.1806496465  W2        158             0.0000000000
       474       158  TIP3      H2            -53.7000066405      -37.5833822861      -26.4881096465  W2        158             0.0000000000
       475       159  TIP3      OH2           -36.3737666405      -37.1192422861      -24.3721896465  W2        159             0.0000000000
       476       159  TIP3      H1            -36.3950966405      -36.9344022861      -23.4332496465  W2        159             0.0000000000
       477       159  TIP3      H2            -35.6831466405      -36.5508422861      -24.7130496465  W2        159             0.0000000000
       478       160  TIP3      OH2           -36.8104766405      -37.5521322861      -21.4502796465  W2        160             0.0000000000
       479       160  TIP3      H1            -37.2976066405      -38.2877222861      -21.8215396465  W2        160             0.0000000000
       480       160  TIP3      H2            -36.2612066405      -37.9457422861      -20.7723396465  W2        160             0.0000000000
       481       161  TIP3      OH2           -38.3597466405      -41.7623222861      -16.8122496465  W2        161             0.0000000000
       482       161  TIP3      H1            -39.2256366405      -41.8673522861      -16.4180196465  W2        161             0.0000000000
       483       161  TIP3      H2            -37.9831566405      -41.0039922861      -16.3657796465  W2        161             0.0000000000
       484       162  TIP3      OH2           -37.0587766405      -43.5059522861      -31.2979996465  W2        162             0.0000000000
       485       162  TIP3      H1            -36.2086366405      -43.0848622861      -31.1708396465  W2        162             0.0000000000
       486       162  TIP3      H2            -37.0532666405      -44.2459422861      -30.6908596465  W2        162             0.0000000000
       487       163  TIP3      OH2           -36.6642166405      -45.4522122861      -29.4744296465  W2        163             0.0000000000
       488       163  TIP3      H1            -37.3907566405      -45.9319522861      -29.0766696465  W2        163             0.0000000000
       489       163  TIP3      H2            -36.0828866405      -45.2467422861      -28.7422696465  W2        163             0.0000000000
       490       164  TIP3      OH2           -36.9050966405      -42.6674622861      -24.5266696465  W2        164             0.0000000000
       491       164  TIP3      H1            -36.0716766405      -43.0454622861      -24.8073096465  W2        164             0.0000000000
       492       164  TIP3      H2            -36.7930666405      -41.7243422861      -24.6457596465  W2        164             0.0000000000
       493       165  TIP3      OH2           -38.4188666405      -39.7897122861      -22.2198296465  W2        165             0.0000000000
       494       165  TIP3      H1            -39.0663366405      -39.4645622861      -21.5943096465  W2        165             0.0000000000
       495       165  TIP3      H2            -38.9364666405      -40.2299422861      -22.8939996465  W2        165             0.0000000000
       496       166  TIP3      OH2           -36.3959066405      -45.5513622861      -33.0832996465  W2        166             0.0000000000
       497       166  TIP3      H1            -36.9177966405      -45.1949522861      -33.8022096465  W2        166             0.0000000000
       498       166  TIP3      H2            -36.4289866405      -44.8765822861      -32.4052096465  W2        166             0.0000000000
       499       167  TIP3      OH2           -38.0470066405      -48.3118022861      -34.5325896465  W2        167             0.0000000000
       500       167  TIP3      H1            -37.9505666405      -47.6451022861      -35.2126196465  W2        167             0.0000000000
       501       167  TIP3      H2            -38.1870466405      -49.1271722861      -35.0140396465  W2        167             0.0000000000
       502       168  TIP3      OH2           -38.8775366405      -46.9315622861      -28.9115596465  W2        168             0.0000000000
       503       168  TIP3      H1            -39.0276566405      -47.8767022861      -28.9317796465  W2        168             0.0000000000
       504       168  TIP3      H2            -39.2310866405      -46.6504222861      -28.0676496465  W2        168             0.0000000000
       505       169  TIP3      OH2           -53.8422966405      -44.8533422861      -24.9011796465  W2        169             0.0000000000
       506       169  TIP3      H1            -53.6580066405      -44.9351722861      -25.8368896465  W2        169             0.0000000000
       507       169  TIP3      H2            -52.9930066405      -44.9776422861      -24.4775396465  W2        169             0.0000000000
       508       170  TIP3      OH2           -38.0212466405      -44.9612322861      -19.2727296465  W2        170             0.0000000000
       509       170  TIP3      H1            -37.4385166405      -45.6960022861      -19.0810096465  W2        170             0.0000000000
       510       170  TIP3      H2            -37.4573166405      -44.1892022861      -19.2261496465  W2        170             0.0000000000
       511       171  TIP3      OH2           -36.5245366405      -47.0586522861      -18.5881896465  W2        171             0.0000000000
       512       171  TIP3      H1            -37.3878666405      -47.4374422861      -18.7537196465  W2        171             0.0000000000
       513       171  TIP3      H2            -35.9201666405      -47.7971722861      -18.6626096465  W2        171             0.0000000000
       514       172  TIP3      OH2           -38.7996266405      -50.9038222861      -35.4150396465  W2        172             0.0000000000
       515       172  TIP3      H1            -38.1890466405      -51.2751422861      -34.7782196465  W2        172             0.0000000000
       516       172  TIP3      H2            -39.6364766405      -51.3251322861      -35.2190396465  W2        172             0.0000000000
       517       173  TIP3      OH2           -39.1670566405      -49.3489822861      -30.4490496465  W2        173             0.0000000000
       518       173  TIP3      H1            -38.8873466405      -50.2559422861      -30.3248796465  W2        173             0.0000000000
       519       173  TIP3      H2            -38.4078866405      -48.9148322861      -30.8381296465  W2        173             0.0000000000
       520       174  TIP3      OH2           -38.5552266405      -48.7672422861      -25.0131596465  W2        174             0.0000000000
       521       174  TIP3      H1            -37.6224266405      -48.5552522861      -25.0475596465  W2        174             0.0000000000
       522       174  TIP3      H2            -38.7904766405      -48.6660322861      -24.0908596465  W2        174             0.0000000000
       523       175  TIP3      OH2           -38.5260366405      -48.0307122861      -22.2372196465  W2        175             0.0000000000
       524       175  TIP3      H1            -39.3689066405      -47.7626722861      -21.8712396465  W2        175             0.0000000000
       525       175  TIP3      H2            -38.0836066405      -47.2085222861      -22.4481096465  W2        175             0.0000000000
       526       176  TIP3      OH2           -54.2448166405      -49.5828422861      -18.7602996465  W2        176             0.0000000000
       527       176  TIP3      H1            -53.3253266405      -49.7050122861      -18.5239896465  W2        176             0.0000000000
       528       176  TIP3      H2            -54.6943666405      -50.3328722861      -18.3709496465  W2        176             0.0000000000
       529       177  TIP3      OH2           -36.2428766405      -54.0506922861      -16.8837196465  W2        177             0.0000000000
       530       177  TIP3      H1            -35.8931766405      -54.7043422861      -17.4892496465  W2        177             0.0000000000
       531       177  TIP3      H2            -36.0959266405      -53.2132822861      -17.3234596465  W2        177             0.0000000000
       532       178  TIP3      OH2           -38.5535766405      -52.0860522861      -30.4008496465  W2        178             0.0000000000
       533       178  TIP3      H1            -38.3710766405      -52.5349022861      -29.5753496465  W2        178             0.0000000000
       534       178  TIP3      H2            -39.1532866405      -52.6706122861      -30.8643896465  W2        178             0.0000000000
       535       179  TIP3      OH2           -53.0235666405      -51.2706822861      -25.8690096465  W2        179             0.0000000000
       536       179  TIP3      H1            -52.5784066405      -52.0624322861      -25.5670396465  W2        179             0.0000000000
       537       179  TIP3      H2            -52.5572666405      -50.5541622861      -25.4384496465  W2        179             0.0000000000
       538       180  TIP3      OH2           -54.7195366405      -48.2713822861      -24.7999896465  W2        180             0.0000000000
       539       180  TIP3      H1            -54.2275566405      -48.4923322861      -25.5907896465  W2        180             0.0000000000
       540       180  TIP3      H2            -54.3574466405      -47.4310422861      -24.5190396465  W2        180             0.0000000000
       541       181  TIP3      OH2           -36.7231566405      -51.9412322861      -18.5345896465  W2        181             0.0000000000
       542       181  TIP3      H1            -37.6405866405      -51.6705222861      -18.5702396465  W2        181             0.0000000000
       543       181  TIP3      H2            -36.6002166405      -52.4763922861      -19.3186196465  W2        181             0.0000000000
       544       182  TIP3      OH2           -36.6869566405      -52.0182422861      -33.8728196465  W2        182             0.0000000000
       545       182  TIP3      H1            -36.2746966405      -52.7396722861      -34.3480196465  W2        182             0.0000000000
       546       182  TIP3      H2            -36.0053066405      -51.3487822861      -33.8143896465  W2        182             0.0000000000
       547       183  TIP3      OH2           -54.4058866405      -52.0134722861      -30.7457496465  W2        183             0.0000000000
       548       183  TIP3      H1            -55.3310466405      -51.8048122861      -30.8751996465  W2        183             0.0000000000
       549       183  TIP3      H2            -53.9518966405      -51.5293922861      -31.4355196465  W2        183             0.0000000000
       550       184  TIP3      OH2           -39.6351666405      -37.0293022861      -28.8000096465  W2        184             0.0000000000
       551       184  TIP3      H1            -38.9828766405      -37.3770922861      -29.4080996465  W2        184             0.0000000000
       552       184  TIP3      H2            -39.1247866405      -36.5409822861      -28.1540396465  W2        184             0.0000000000
       553       185  TIP3      OH2           -54.4423466405      -53.2755722861      -22.4014996465  W2        185             0.0000000000
       554       185  TIP3      H1            -55.1072966405      -53.5215422861      -21.7584096465  W2        185             0.0000000000
       555       185  TIP3      H2            -54.8852166405      -52.6535322861      -22.9786996465  W2        185             0.0000000000
       556       186  TIP3      OH2           -52.2504166405      -40.1001622861      -18.2569196465  W2        186             0.0000000000
       557       186  TIP3      H1            -53.0711666405      -39.9255122861      -18.7174496465  W2        186             0.0000000000
       558       186  TIP3      H2            -52.5026366405      -40.1736922861      -17.3364796465  W2        186             0.0000000000
       559       187  TIP3      OH2           -49.2961266405      -39.1260422861      -21.9985196465  W2        187             0.0000000000
       560       187  TIP3      H1            -49.7210166405      -38.3161922861      -22.2810596465  W2        187             0.0000000000
       561       187  TIP3      H2            -48.3918466405      -39.0406322861      -22.3005396465  W2        187             0.0000000000
       562       188  TIP3      OH2           -44.9849866405      -37.7270422861      -19.0391496465  W2        188             0.0000000000
       563       188  TIP3      H1            -44.8002366405      -38.0604322861      -18.1611196465  W2        188             0.0000000000
       564       188  TIP3      H2            -44.1385366405      -37.4171822861      -19.3612296465  W2        188             0.0000000000
       565       189  TIP3      OH2           -42.6399466405      -36.4411522861      -19.7950096465  W2        189             0.0000000000
       566       189  TIP3      H1            -41.9630566405      -37.0739222861      -20.0350896465  W2        189             0.0000000000
       567       189  TIP3      H2            -42.3180666405      -36.0401022861      -18.9876796465  W2        189             0.0000000000
       568       190  TIP3      OH2           -37.7225666405      -53.8516022861      -20.7155096465  W2        190             0.0000000000
       569       190  TIP3      H1            -38.5352166405      -53.5265722861      -21.1030396465  W2        190             0.0000000000
       570       190  TIP3      H2            -37.4897166405      -54.6117522861      -21.2485996465  W2        190             0.0000000000
       571       191  TIP3      OH2           -51.8944566405      -35.8696522861      -21.9509896465  W2        191             0.0000000000
       572       191  TIP3      H1            -52.6148166405      -35.4295522861      -22.4022196465  W2        191             0.0000000000
       573       191  TIP3      H2            -52.2600566405      -36.1201822861      -21.1025896465  W2        191             0.0000000000
       574       192  TIP3      OH2           -49.4271966405      -36.2692622861      -22.9212696465  W2        192             0.0000000000
       575       192  TIP3      H1            -50.2919766405      -36.1974122861      -22.5172596465  W2        192             0.0000000000
       576       192  TIP3      H2            -49.4822966405      -35.7225322861      -23.7050196465  W2        192             0.0000000000
       577       193  TIP3      OH2           -44.7166366405      -36.3813722861      -23.7456696465  W2        193             0.0000000000
       578       193  TIP3      H1            -45.1732366405      -35.8524022861      -24.3998296465  W2        193             0.0000000000
       579       193  TIP3      H2            -44.5538366405      -35.7782322861      -23.0204396465  W2        193             0.0000000000
       580       194  TIP3      OH2           -42.3890066405      -37.5034122861      -22.8006396465  W2        194             0.0000000000
       581       194  TIP3      H1            -43.2936366405      -37.3383922861      -23.0664296465  W2        194             0.0000000000
       582       194  TIP3      H2            -41.9601466405      -36.6501922861      -22.8662996465  W2        194             0.0000000000
       583       195  TIP3      OH2           -39.7848166405      -35.9335022861      -22.5058596465  W2        195             0.0000000000
       584       195  TIP3      H1            -39.9666166405      -35.0176122861      -22.7163696465  W2        195             0.0000000000
       585       195  TIP3      H2            -39.6080366405      -36.3437922861      -23.3523996465  W2        195             0.0000000000
       586       196  TIP3      OH2           -52.4796466405      -37.2464022861      -25.0408096465  W2        196             0.0000000000
       587       196  TIP3      H1            -52.4980466405      -37.6718922861      -24.1835796465  W2        196             0.0000000000
       588       196  TIP3      H2            -51.6748566405      -37.5649022861      -25.4495896465  W2        196             0.0000000000
       589       197  TIP3      OH2           -50.3383366405      -38.5365322861      -26.3858196465  W2        197             0.0000000000
       590       197  TIP3      H1            -50.5572666405      -39.4527922861      -26.2162196465  W2        197             0.0000000000
       591       197  TIP3      H2            -49.5141166405      -38.3964922861      -25.9196796465  W2        197             0.0000000000
       592       198  TIP3      OH2           -47.8010866405      -38.0666022861      -25.5370196465  W2        198             0.0000000000
       593       198  TIP3      H1            -47.5885166405      -38.9547022861      -25.8239296465  W2        198             0.0000000000
       594       198  TIP3      H2            -47.7365766405      -38.1008322861      -24.5826196465  W2        198             0.0000000000
       595       199  TIP3      OH2           -44.2927166405      -52.4025422861      -26.3926896465  W2        199             0.0000000000
       596       199  TIP3      H1            -44.9670366405      -53.0319822861      -26.1371096465  W2        199             0.0000000000
       597       199  TIP3      H2            -43.7287966405      -52.8866522861      -26.9958996465  W2        199             0.0000000000
       598       200  TIP3      OH2           -39.1499966405      -54.2951422861      -26.2799796465  W2        200             0.0000000000
       599       200  TIP3      H1            -38.5462366405      -53.7476022861      -26.7818796465  W2        200             0.0000000000
       600       200  TIP3      H2            -40.0197966405      -53.9761022861      -26.5205696465  W2        200             0.0000000000
       601       201  TIP3      OH2           -37.4229566405      -53.1562722861      -27.9468896465  W2        201             0.0000000000
       602       201  TIP3      H1            -36.8112066405      -53.6707022861      -28.4735296465  W2        201             0.0000000000
       603       201  TIP3      H2            -37.0406166405      -52.2790622861      -27.9234496465  W2        201             0.0000000000
       604       202  TIP3      OH2           -51.9659666405      -53.7685122861      -28.5706996465  W2        202             0.0000000000
       605       202  TIP3      H1            -52.7429866405      -54.0030222861      -29.0781096465  W2        202             0.0000000000
       606       202  TIP3      H2            -51.4356066405      -54.5653022861      -28.5618996465  W2        202             0.0000000000
       607       203  TIP3      OH2           -53.1296266405      -53.9707022861      -32.7670896465  W2        203             0.0000000000
       608       203  TIP3      H1            -52.6905566405      -53.3596522861      -33.3587396465  W2        203             0.0000000000
       609       203  TIP3      H2            -53.7633866405      -53.4322922861      -32.2930896465  W2        203             0.0000000000
       610       204  TIP3      OH2           -47.3867066405      -53.8418022861      -28.7573896465  W2        204             0.0000000000
       611       204  TIP3      H1            -46.5123666405      -53.4533722861      -28.7869596465  W2        204             0.0000000000
       612       204  TIP3      H2            -47.5226266405      -54.0570222861      -27.8346696465  W2        204             0.0000000000
       613       205  TIP3      OH2           -41.8298666405      -53.8118222861      -27.1082196465  W2        205             0.0000000000
       614       205  TIP3      H1            -41.7537066405      -53.7166622861      -28.0576196465  W2        205             0.0000000000
       615       205  TIP3      H2            -42.1049466405      -54.7195322861      -26.9793096465  W2        205             0.0000000000
       616       206  TIP3      OH2           -40.4766066405      -53.7860422861      -31.4157196465  W2        206             0.0000000000
       617       206  TIP3      H1            -41.1794966405      -53.1711222861      -31.6255796465  W2        206             0.0000000000
       618       206  TIP3      H2            -40.9214666405      -54.6233722861      -31.2846296465  W2        206             0.0000000000
       619       207  TIP3      OH2           -53.2286766405      -38.0224822861      -31.8695796465  W2        207             0.0000000000
       620       207  TIP3      H1            -53.9136866405      -38.0605922861      -32.5370696465  W2        207             0.0000000000
       621       207  TIP3      H2            -53.2249566405      -37.1097222861      -31.5813696465  W2        207             0.0000000000
       622       208  TIP3      OH2           -51.2687166405      -52.0545522861      -34.3246796465  W2        208             0.0000000000
       623       208  TIP3      H1            -50.7773766405      -52.6843122861      -34.8521296465  W2        208             0.0000000000
       624       208  TIP3      H2            -50.6450866405      -51.7586122861      -33.6615596465  W2        208             0.0000000000
       625       209  TIP3      OH2           -46.2427066405      -51.7614022861      -31.8676296465  W2        209             0.0000000000
       626       209  TIP3      H1            -46.0645766405      -52.4080822861      -31.1847696465  W2        209             0.0000000000
       627       209  TIP3      H2            -46.2960866405      -50.9276322861      -31.4005196465  W2        209             0.0000000000
       628       210  TIP3      OH2           -44.3643266405      -36.8129922861      -33.4719596465  W2        210             0.0000000000
       629       210  TIP3      H1            -43.4983066405      -36.4462522861      -33.6501396465  W2        210             0.0000000000
       630       210  TIP3      H2            -44.6110466405      -37.2521922861      -34.2858796465  W2        210             0.0000000000
       631       211  TIP3      OH2           -37.6553666405      -37.2499622861      -30.7928496465  W2        211             0.0000000000
       632       211  TIP3      H1            -37.8496566405      -37.9977522861      -31.3578896465  W2        211             0.0000000000
       633       211  TIP3      H2            -37.6943566405      -36.4919522861      -31.3760596465  W2        211             0.0000000000
       634       212  TIP3      OH2           -52.0081666405      -53.2543222861      -19.0530796465  W2        212             0.0000000000
       635       212  TIP3      H1            -52.3743466405      -54.0200622861      -18.6106096465  W2        212             0.0000000000
       636       212  TIP3      H2            -51.0953166405      -53.2253022861      -18.7665696465  W2        212             0.0000000000
       637       213  TIP3      OH2           -50.0350866405      -53.9038822861      -17.5173696465  W2        213             0.0000000000
       638       213  TIP3      H1            -49.1367266405      -54.1778622861      -17.7020296465  W2        213             0.0000000000
       639       213  TIP3      H2            -50.4217766405      -54.6462822861      -17.0531096465  W2        213             0.0000000000
       640       214  TIP3      OH2           -51.4105566405      -37.1024022861      -34.8443696465  W2        214             0.0000000000
       641       214  TIP3      H1            -51.6780966405      -36.8161122861      -33.9710596465  W2        214             0.0000000000
       642       214  TIP3      H2            -50.6392966405      -37.6484822861      -34.6921196465  W2        214             0.0000000000
       643       215  TIP3      OH2           -41.6138566405      -54.5713522861      -17.3350896465  W2        215             0.0000000000
       644       215  TIP3      H1            -41.5371366405      -54.9972822861      -16.4813196465  W2        215             0.0000000000
       645       215  TIP3      H2            -40.7201966405      -54.5578822861      -17.6777396465  W2        215             0.0000000000
       646       216  TIP3      OH2           -38.4377466405      -38.4987222861      -18.6426696465  W2        216             0.0000000000
       647       216  TIP3      H1            -39.2195566405      -38.6849222861      -19.1626096465  W2        216             0.0000000000
       648       216  TIP3      H2            -38.5097566405      -37.5692922861      -18.4254196465  W2        216             0.0000000000
       649       217  TIP3      OH2           -24.0317066405      -44.6122822861      -28.6119496465  W2        217             0.0000000000
       650       217  TIP3      H1            -23.9425966405      -43.6684622861      -28.7442396465  W2        217             0.0000000000
       651       217  TIP3      H2            -24.6699466405      -44.8876422861      -29.2700096465  W2        217             0.0000000000
       652       218  TIP3      OH2           -25.0985766405      -45.3572122861      -25.1931296465  W2        218             0.0000000000
       653       218  TIP3      H1            -25.1368266405      -46.0035822861      -24.4881696465  W2        218             0.0000000000
       654       218  TIP3      H2            -25.4209266405      -45.8237722861      -25.9642596465  W2        218             0.0000000000
       655       219  TIP3      OH2           -32.7300766405      -45.7430022861      -23.6001396465  W2        219             0.0000000000
       656       219  TIP3      H1            -32.6888666405      -46.3686722861      -22.8768996465  W2        219             0.0000000000
       657       219  TIP3      H2            -32.0273066405      -45.1191422861      -23.4180996465  W2        219             0.0000000000
       658       220  TIP3      OH2           -21.3925566405      -42.4181722861      -26.8916196465  W2        220             0.0000000000
       659       220  TIP3      H1            -21.8332866405      -43.1385722861      -26.4410596465  W2        220             0.0000000000
       660       220  TIP3      H2            -21.4055866405      -41.6974522861      -26.2618496465  W2        220             0.0000000000
       661       221  TIP3      OH2           -31.8067666405      -41.2931122861      -25.0652296465  W2        221             0.0000000000
       662       221  TIP3      H1            -32.1762466405      -42.0950622861      -25.4347996465  W2        221             0.0000000000
       663       221  TIP3      H2            -30.8656566405      -41.4616222861      -25.0188896465  W2        221             0.0000000000
       664       222  TIP3      OH2           -35.1967166405      -47.6328522861      -29.6723496465  W2        222             0.0000000000
       665       222  TIP3      H1            -35.6443766405      -46.7869822861      -29.6906996465  W2        222             0.0000000000
       666       222  TIP3      H2            -35.7575966405      -48.2124322861      -30.1878396465  W2        222             0.0000000000
       667       223  TIP3      OH2           -34.4861066405      -45.4708922861      -27.5465496465  W2        223             0.0000000000
       668       223  TIP3      H1            -34.2727566405      -46.2407322861      -27.0192496465  W2        223             0.0000000000
       669       223  TIP3      H2            -33.7483466405      -45.3812222861      -28.1497896465  W2        223             0.0000000000
       670       224  TIP3      OH2           -24.2810066405      -37.3140022861      -26.6795796465  W2        224             0.0000000000
       671       224  TIP3      H1            -23.6613666405      -37.9905322861      -26.9526596465  W2        224             0.0000000000
       672       224  TIP3      H2            -24.4892666405      -37.5319222861      -25.7710896465  W2        224             0.0000000000
       673       225  TIP3      OH2           -26.7091366405      -42.9250722861      -24.7870296465  W2        225             0.0000000000
       674       225  TIP3      H1            -26.4053466405      -43.6109322861      -25.3816196465  W2        225             0.0000000000
       675       225  TIP3      H2            -25.9877366405      -42.8062022861      -24.1692296465  W2        225             0.0000000000
       676       226  TIP3      OH2           -18.0461566405      -51.3235422861      -23.9264096465  W2        226             0.0000000000
       677       226  TIP3      H1            -17.9969366405      -50.7134222861      -23.1904996465  W2        226             0.0000000000
       678       226  TIP3      H2            -17.6206466405      -50.8624522861      -24.6492996465  W2        226             0.0000000000
       679       227  TIP3      OH2           -23.5684366405      -48.5308322861      -24.4595496465  W2        227             0.0000000000
       680       227  TIP3      H1            -23.4258466405      -49.4771322861      -24.4393896465  W2        227             0.0000000000
       681       227  TIP3      H2            -23.6745366405      -48.3238522861      -25.3880596465  W2        227             0.0000000000
       682       228  TIP3      OH2           -30.4136066405      -50.4291922861      -27.1870696465  W2        228             0.0000000000
       683       228  TIP3      H1            -30.3704966405      -49.5693422861      -27.6054396465  W2        228             0.0000000000
       684       228  TIP3      H2            -30.8711966405      -50.9817222861      -27.8207496465  W2        228             0.0000000000
       685       229  TIP3      OH2           -22.6913366405      -50.2986322861      -28.7862396465  W2        229             0.0000000000
       686       229  TIP3      H1            -22.0449066405      -50.6273122861      -28.1614796465  W2        229             0.0000000000
       687       229  TIP3      H2            -22.1813966405      -49.7807322861      -29.4090996465  W2        229             0.0000000000
       688       230  TIP3      OH2           -33.7934566405      -48.0326122861      -26.4249296465  W2        230             0.0000000000
       689       230  TIP3      H1            -33.1397966405      -48.5824422861      -25.9929196465  W2        230             0.0000000000
       690       230  TIP3      H2            -33.7695266405      -48.3067122861      -27.3417296465  W2        230             0.0000000000
       691       231  TIP3      OH2           -28.6370066405      -46.4824822861      -27.2097796465  W2        231             0.0000000000
       692       231  TIP3      H1            -28.0209066405      -47.0089422861      -26.7003796465  W2        231             0.0000000000
       693       231  TIP3      H2            -29.2231266405      -47.1226122861      -27.6134196465  W2        231             0.0000000000
       694       232  TIP3      OH2           -17.6546966405      -49.8456222861      -21.6904296465  W2        232             0.0000000000
       695       232  TIP3      H1            -18.3432366405      -49.1875522861      -21.7857696465  W2        232             0.0000000000
       696       232  TIP3      H2            -17.6392366405      -50.0428322861      -20.7538896465  W2        232             0.0000000000
       697       233  TIP3      OH2           -31.6034166405      -51.5113522861      -23.1129896465  W2        233             0.0000000000
       698       233  TIP3      H1            -31.8222466405      -50.9812922861      -23.8793896465  W2        233             0.0000000000
       699       233  TIP3      H2            -32.2713266405      -51.2848022861      -22.4658496465  W2        233             0.0000000000
       700       234  TIP3      OH2           -24.2344366405      -42.0112422861      -29.5690796465  W2        234             0.0000000000
       701       234  TIP3      H1            -24.5299266405      -42.3340122861      -30.4203896465  W2        234             0.0000000000
       702       234  TIP3      H2            -24.5586566405      -41.1115722861      -29.5278196465  W2        234             0.0000000000
       703       235  TIP3      OH2           -29.0342766405      -43.8357822861      -22.8256196465  W2        235             0.0000000000
       704       235  TIP3      H1            -29.7743666405      -43.2376322861      -22.7220996465  W2        235             0.0000000000
       705       235  TIP3      H2            -28.3203266405      -43.2818222861      -23.1412596465  W2        235             0.0000000000
       706       236  TIP3      OH2           -20.9274966405      -51.0077022861      -26.8056496465  W2        236             0.0000000000
       707       236  TIP3      H1            -21.1426966405      -51.7733622861      -26.2730496465  W2        236             0.0000000000
       708       236  TIP3      H2            -20.2717566405      -50.5352422861      -26.2927996465  W2        236             0.0000000000
       709       237  TIP3      OH2           -32.0096866405      -49.6191722861      -25.1607696465  W2        237             0.0000000000
       710       237  TIP3      H1            -31.3960566405      -48.9864122861      -24.7875296465  W2        237             0.0000000000
       711       237  TIP3      H2            -31.4976166405      -50.0916722861      -25.8170796465  W2        237             0.0000000000
       712       238  TIP3      OH2           -30.6268466405      -41.8714822861      -22.0384696465  W2        238             0.0000000000
       713       238  TIP3      H1            -30.6320866405      -40.9921322861      -22.4165396465  W2        238             0.0000000000
       714       238  TIP3      H2            -31.4804366405      -41.9550722861      -21.6134796465  W2        238             0.0000000000
       715       239  TIP3      OH2           -34.5057566405      -42.2006922861      -31.2565396465  W2        239             0.0000000000
       716       239  TIP3      H1            -34.7776666405      -41.9715922861      -32.1452496465  W2        239             0.0000000000
       717       239  TIP3      H2            -34.4601866405      -41.3628122861      -30.7960096465  W2        239             0.0000000000
       718       240  TIP3      OH2           -20.8807866405      -40.5791022861      -24.5436896465  W2        240             0.0000000000
       719       240  TIP3      H1            -21.8224166405      -40.5207122861      -24.3819996465  W2        240             0.0000000000
       720       240  TIP3      H2            -20.6041766405      -39.6730522861      -24.6807196465  W2        240             0.0000000000
       721       241  TIP3      OH2           -20.5800866405      -52.2925722861      -23.1262996465  W2        241             0.0000000000
       722       241  TIP3      H1            -21.3161666405      -51.6818622861      -23.1641696465  W2        241             0.0000000000
       723       241  TIP3      H2            -19.8966866405      -51.8776722861      -23.6526596465  W2        241             0.0000000000
       724       242  TIP3      OH2           -27.5769466405      -54.2058422861      -25.6604996465  W2        242             0.0000000000
       725       242  TIP3      H1            -27.6945266405      -55.1542422861      -25.7146696465  W2        242             0.0000000000
       726       242  TIP3      H2            -28.4319366405      -53.8732322861      -25.3873896465  W2        242             0.0000000000
       727       243  TIP3      OH2           -22.6286666405      -38.7977522861      -27.9185296465  W2        243             0.0000000000
       728       243  TIP3      H1            -22.2034366405      -39.5049622861      -28.4035696465  W2        243             0.0000000000
       729       243  TIP3      H2            -22.3116666405      -37.9964822861      -28.3353096465  W2        243             0.0000000000
       730       244  TIP3      OH2           -21.4690166405      -40.8969022861      -29.4098696465  W2        244             0.0000000000
       731       244  TIP3      H1            -21.7265366405      -41.5868922861      -30.0212796465  W2        244             0.0000000000
       732       244  TIP3      H2            -21.3979366405      -41.3397822861      -28.5642796465  W2        244             0.0000000000
       733       245  TIP3      OH2           -19.7829966405      -42.3302322861      -20.9325196465  W2        245             0.0000000000
       734       245  TIP3      H1            -19.6433666405      -42.9219822861      -21.6718196465  W2        245             0.0000000000
       735       245  TIP3      H2            -19.6157166405      -41.4576422861      -21.2886396465  W2        245             0.0000000000
       736       246  TIP3      OH2           -25.3104566405      -45.3682822861      -31.1599196465  W2        246             0.0000000000
       737       246  TIP3      H1            -26.0219066405      -44.8333122861      -31.5118696465  W2        246             0.0000000000
       738       246  TIP3      H2            -24.6194966405      -45.3130722861      -31.8200296465  W2        246             0.0000000000
       739       247  TIP3      OH2           -25.2565366405      -46.9108522861      -34.1214196465  W2        247             0.0000000000
       740       247  TIP3      H1            -24.5555466405      -46.8881622861      -33.4700196465  W2        247             0.0000000000
       741       247  TIP3      H2            -24.9542466405      -47.5388822861      -34.7774896465  W2        247             0.0000000000
       742       248  TIP3      OH2           -17.9410666405      -45.9904322861      -22.8664796465  W2        248             0.0000000000
       743       248  TIP3      H1            -18.5936566405      -45.2958722861      -22.7773896465  W2        248             0.0000000000
       744       248  TIP3      H2            -17.4760366405      -45.7803422861      -23.6763196465  W2        248             0.0000000000
       745       249  TIP3      OH2           -21.9046866405      -45.1589522861      -30.2083296465  W2        249             0.0000000000
       746       249  TIP3      H1            -22.6365866405      -44.9305822861      -29.6352696465  W2        249             0.0000000000
       747       249  TIP3      H2            -21.4574666405      -45.8726822861      -29.7535796465  W2        249             0.0000000000
       748       250  TIP3      OH2           -22.0073366405      -46.9846922861      -21.1406296465  W2        250             0.0000000000
       749       250  TIP3      H1            -21.9274266405      -46.2212522861      -20.5687796465  W2        250             0.0000000000
       750       250  TIP3      H2            -22.6085666405      -46.7054522861      -21.8311196465  W2        250             0.0000000000
       751       251  TIP3      OH2           -30.2593166405      -44.5283322861      -28.3258296465  W2        251             0.0000000000
       752       251  TIP3      H1            -30.5897966405      -44.8989922861      -29.1441296465  W2        251             0.0000000000
       753       251  TIP3      H2            -29.6709066405      -45.1989322861      -27.9789996465  W2        251             0.0000000000
       754       252  TIP3      OH2           -28.8925666405      -41.1002722861      -25.6446096465  W2        252             0.0000000000
       755       252  TIP3      H1            -28.9874366405      -41.6789622861      -26.4011496465  W2        252             0.0000000000
       756       252  TIP3      H2            -28.1632066405      -41.4717022861      -25.1483296465  W2        252             0.0000000000
       757       253  TIP3      OH2           -29.8927666405      -45.7597722861      -24.6923296465  W2        253             0.0000000000
       758       253  TIP3      H1            -29.3275166405      -45.6383522861      -25.4552096465  W2        253             0.0000000000
       759       253  TIP3      H2            -29.5738766405      -45.1222722861      -24.0534796465  W2        253             0.0000000000
       760       254  TIP3      OH2           -23.5835466405      -40.2565822861      -23.9582796465  W2        254             0.0000000000
       761       254  TIP3      H1            -23.8238866405      -39.5942722861      -23.3103596465  W2        254             0.0000000000
       762       254  TIP3      H2            -23.7817266405      -41.0910622861      -23.5333196465  W2        254             0.0000000000
       763       255  TIP3      OH2           -29.0126966405      -41.3605022861      -19.9751396465  W2        255             0.0000000000
       764       255  TIP3      H1            -29.3239466405      -40.5781822861      -19.5198196465  W2        255             0.0000000000
       765       255  TIP3      H2            -29.6626766405      -41.5135922861      -20.6609396465  W2        255             0.0000000000
       766       256  TIP3      OH2           -23.0337366405      -45.9966622861      -32.5232096465  W2        256             0.0000000000
       767       256  TIP3      H1            -22.4541866405      -45.8466322861      -31.7763196465  W2        256             0.0000000000
       768       256  TIP3      H2            -22.6197366405      -45.5259222861      -33.2465696465  W2        256             0.0000000000
       769       257  TIP3      OH2           -32.0927066405      -45.1623922861      -20.7465696465  W2        257             0.0000000000
       770       257  TIP3      H1            -32.0223866405      -44.5117122861      -20.0480696465  W2        257             0.0000000000
       771       257  TIP3      H2            -32.9834866405      -45.0596422861      -21.0814796465  W2        257             0.0000000000
       772       258  TIP3      OH2           -25.3072466405      -39.2598122861      -29.0878996465  W2        258             0.0000000000
       773       258  TIP3      H1            -24.8334866405      -38.9641822861      -28.3104796465  W2        258             0.0000000000
       774       258  TIP3      H2            -25.8703166405      -38.5216522861      -29.3209396465  W2        258             0.0000000000
       775       259  TIP3      OH2           -30.7731066405      -39.2890022861      -19.2117596465  W2        259             0.0000000000
       776       259  TIP3      H1            -30.7655766405      -39.4250322861      -20.1592096465  W2        259             0.0000000000
       777       259  TIP3      H2            -31.6890666405      -39.4061922861      -18.9597596465  W2        259             0.0000000000
       778       260  TIP3      OH2           -19.3348966405      -54.2466222861      -32.7102396465  W2        260             0.0000000000
       779       260  TIP3      H1            -20.2348266405      -54.1077222861      -32.4151796465  W2        260             0.0000000000
       780       260  TIP3      H2            -19.0830566405      -53.4151622861      -33.1120696465  W2        260             0.0000000000
       781       261  TIP3      OH2           -31.2690466405      -45.4589022861      -30.7365496465  W2        261             0.0000000000
       782       261  TIP3      H1            -31.5609166405      -44.6907322861      -31.2274196465  W2        261             0.0000000000
       783       261  TIP3      H2            -31.9435266405      -46.1182822861      -30.8994096465  W2        261             0.0000000000
       784       262  TIP3      OH2           -18.1457566405      -39.8803822861      -34.3338496465  W2        262             0.0000000000
       785       262  TIP3      H1            -18.0724066405      -38.9413622861      -34.1633196465  W2        262             0.0000000000
       786       262  TIP3      H2            -17.2402466405      -40.1855222861      -34.3901196465  W2        262             0.0000000000
       787       263  TIP3      OH2           -35.1760366405      -43.0959822861      -21.9215696465  W2        263             0.0000000000
       788       263  TIP3      H1            -35.6771966405      -43.1240422861      -22.7365996465  W2        263             0.0000000000
       789       263  TIP3      H2            -35.1706666405      -44.0016622861      -21.6118396465  W2        263             0.0000000000
       790       264  TIP3      OH2           -35.4257666405      -40.3156022861      -25.0375496465  W2        264             0.0000000000
       791       264  TIP3      H1            -34.4797066405      -40.4599022861      -25.0565996465  W2        264             0.0000000000
       792       264  TIP3      H2            -35.5381366405      -39.5313222861      -24.5004296465  W2        264             0.0000000000
       793       265  TIP3      OH2           -17.2279166405      -39.6496322861      -19.3551796465  W2        265             0.0000000000
       794       265  TIP3      H1            -17.2772366405      -40.6048222861      -19.3924196465  W2        265             0.0000000000
       795       265  TIP3      H2            -18.0546866405      -39.3821022861      -18.9537996465  W2        265             0.0000000000
       796       266  TIP3      OH2           -26.2495166405      -40.0757122861      -20.4790396465  W2        266             0.0000000000
       797       266  TIP3      H1            -26.1620566405      -39.2492522861      -20.0041296465  W2        266             0.0000000000
       798       266  TIP3      H2            -27.1130066405      -40.4053322861      -20.2301096465  W2        266             0.0000000000
       799       267  TIP3      OH2           -25.8349366405      -36.3033422861      -30.6729796465  W2        267             0.0000000000
       800       267  TIP3      H1            -25.9103366405      -36.4246222861      -31.6194596465  W2        267             0.0000000000
       801       267  TIP3      H2            -25.8020666405      -35.3540722861      -30.5545196465  W2        267             0.0000000000
       802       268  TIP3      OH2           -32.1815566405      -37.5146422861      -28.8920796465  W2        268             0.0000000000
       803       268  TIP3      H1            -32.0295166405      -37.8626022861      -28.0134296465  W2        268             0.0000000000
       804       268  TIP3      H2            -33.0325166405      -37.8709122861      -29.1473596465  W2        268             0.0000000000
       805       269  TIP3      OH2           -22.7333366405      -37.1493222861      -33.6707396465  W2        269             0.0000000000
       806       269  TIP3      H1            -22.3584966405      -37.8937122861      -34.1414796465  W2        269             0.0000000000
       807       269  TIP3      H2            -22.7289666405      -37.4192622861      -32.7524096465  W2        269             0.0000000000
       808       270  TIP3      OH2           -23.0645266405      -37.2236122861      -30.9215196465  W2        270             0.0000000000
       809       270  TIP3      H1            -23.9995466405      -37.1234222861      -30.7428196465  W2        270             0.0000000000
       810       270  TIP3      H2            -22.7843366405      -37.9330122861      -30.3431996465  W2        270             0.0000000000
       811       271  TIP3      OH2           -20.0759366405      -48.1563822861      -18.8749596465  W2        271             0.0000000000
       812       271  TIP3      H1            -20.4832566405      -47.6758222861      -19.5956296465  W2        271             0.0000000000
       813       271  TIP3      H2            -20.0353666405      -49.0617822861      -19.1828796465  W2        271             0.0000000000
       814       272  TIP3      OH2           -32.9269866405      -41.7724422861      -20.8782896465  W2        272             0.0000000000
       815       272  TIP3      H1            -32.7108566405      -42.1338822861      -20.0187096465  W2        272             0.0000000000
       816       272  TIP3      H2            -33.7825166405      -42.1470622861      -21.0879396465  W2        272             0.0000000000
       817       273  TIP3      OH2           -30.3081866405      -53.3023922861      -24.8828696465  W2        273             0.0000000000
       818       273  TIP3      H1            -31.1698166405      -53.3895722861      -25.2905796465  W2        273             0.0000000000
       819       273  TIP3      H2            -30.3306166405      -52.4463822861      -24.4551096465  W2        273             0.0000000000
       820       274  TIP3      OH2           -25.6454066405      -53.5803522861      -21.5081696465  W2        274             0.0000000000
       821       274  TIP3      H1            -25.2250966405      -53.9956422861      -20.7551096465  W2        274             0.0000000000
       822       274  TIP3      H2            -26.5784466405      -53.7590222861      -21.3909696465  W2        274             0.0000000000
       823       275  TIP3      OH2           -22.3189166405      -49.8248322861      -20.6547196465  W2        275             0.0000000000
       824       275  TIP3      H1            -22.8329666405      -49.9506122861      -19.8571196465  W2        275             0.0000000000
       825       275  TIP3      H2            -22.4744466405      -48.9125222861      -20.8990996465  W2        275             0.0000000000
       826       276  TIP3      OH2           -21.5564266405      -44.9638322861      -34.8934196465  W2        276             0.0000000000
       827       276  TIP3      H1            -21.5143466405      -45.1864422861      -35.8234196465  W2        276             0.0000000000
       828       276  TIP3      H2            -20.7072166405      -44.5651222861      -34.7034296465  W2        276             0.0000000000
       829       277  TIP3      OH2           -25.9836766405      -51.0880122861      -34.2230896465  W2        277             0.0000000000
       830       277  TIP3      H1            -26.2371966405      -51.0688522861      -33.3002796465  W2        277             0.0000000000
       831       277  TIP3      H2            -26.2404666405      -51.9594722861      -34.5244696465  W2        277             0.0000000000
       832       278  TIP3      OH2           -30.2171766405      -48.3369422861      -23.7878496465  W2        278             0.0000000000
       833       278  TIP3      H1            -30.8589666405      -48.3772122861      -23.0788396465  W2        278             0.0000000000
       834       278  TIP3      H2            -30.1799766405      -47.4104722861      -24.0255496465  W2        278             0.0000000000
       835       279  TIP3      OH2           -30.2202666405      -48.1159322861      -28.8758496465  W2        279             0.0000000000
       836       279  TIP3      H1            -31.1129766405      -48.4563222861      -28.9344696465  W2        279             0.0000000000
       837       279  TIP3      H2            -29.7696066405      -48.4928422861      -29.6315296465  W2        279             0.0000000000
       838       280  TIP3      OH2           -24.6847166405      -47.6999022861      -30.0587696465  W2        280             0.0000000000
       839       280  TIP3      H1            -25.0936866405      -46.8850422861      -30.3502896465  W2        280             0.0000000000
       840       280  TIP3      H2            -23.9640966405      -47.8398922861      -30.6730596465  W2        280             0.0000000000
       841       281  TIP3      OH2           -25.5825566405      -47.5242622861      -18.5706996465  W2        281             0.0000000000
       842       281  TIP3      H1            -26.1451766405      -48.2291022861      -18.2499196465  W2        281             0.0000000000
       843       281  TIP3      H2            -24.7562166405      -47.6450722861      -18.1029396465  W2        281             0.0000000000
       844       282  TIP3      OH2           -23.6799466405      -48.2538622861      -27.2447996465  W2        282             0.0000000000
       845       282  TIP3      H1            -23.8754966405      -47.6481822861      -27.9597396465  W2        282             0.0000000000
       846       282  TIP3      H2            -23.4986866405      -49.0873422861      -27.6791696465  W2        282             0.0000000000
       847       283  TIP3      OH2           -32.4671266405      -48.0165922861      -21.9206496465  W2        283             0.0000000000
       848       283  TIP3      H1            -32.5051866405      -47.6164322861      -21.0519396465  W2        283             0.0000000000
       849       283  TIP3      H2            -32.9580166405      -48.8333522861      -21.8303596465  W2        283             0.0000000000
       850       284  TIP3      OH2           -29.1013866405      -50.6423622861      -35.1220496465  W2        284             0.0000000000
       851       284  TIP3      H1            -29.5323166405      -51.0873522861      -34.3923096465  W2        284             0.0000000000
       852       284  TIP3      H2            -29.8195166405      -50.2707322861      -35.6342996465  W2        284             0.0000000000
       853       285  TIP3      OH2           -35.8590466405      -50.9004122861      -28.0701796465  W2        285             0.0000000000
       854       285  TIP3      H1            -35.2282766405      -50.9292022861      -27.3507896465  W2        285             0.0000000000
       855       285  TIP3      H2            -35.4096166405      -51.3255422861      -28.8005896465  W2        285             0.0000000000
       856       286  TIP3      OH2           -34.5848366405      -50.1542122861      -32.6461396465  W2        286             0.0000000000
       857       286  TIP3      H1            -34.1106666405      -49.5632222861      -33.2310496465  W2        286             0.0000000000
       858       286  TIP3      H2            -35.3021966405      -49.6239222861      -32.2991296465  W2        286             0.0000000000
       859       287  TIP3      OH2           -24.4160266405      -46.6157322861      -22.5735596465  W2        287             0.0000000000
       860       287  TIP3      H1            -24.0925466405      -47.2467622861      -23.2165096465  W2        287             0.0000000000
       861       287  TIP3      H2            -24.8560966405      -47.1505122861      -21.9128196465  W2        287             0.0000000000
       862       288  TIP3      OH2           -27.6387366405      -50.6881822861      -27.7894396465  W2        288             0.0000000000
       863       288  TIP3      H1            -28.5496266405      -50.6315022861      -27.5008396465  W2        288             0.0000000000
       864       288  TIP3      H2            -27.1334466405      -50.7486322861      -26.9787196465  W2        288             0.0000000000
       865       289  TIP3      OH2           -32.8103966405      -49.0595522861      -28.9626796465  W2        289             0.0000000000
       866       289  TIP3      H1            -33.6995966405      -48.9600022861      -29.3027196465  W2        289             0.0000000000
       867       289  TIP3      H2            -32.5139066405      -49.9012522861      -29.3088896465  W2        289             0.0000000000
       868       290  TIP3      OH2           -29.1572166405      -49.0592922861      -31.3062196465  W2        290             0.0000000000
       869       290  TIP3      H1            -28.2256666405      -48.9302922861      -31.1279096465  W2        290             0.0000000000
       870       290  TIP3      H2            -29.3721866405      -48.3898622861      -31.9557496465  W2        290             0.0000000000
       871       291  TIP3      OH2           -23.2335466405      -51.4535522861      -24.5252596465  W2        291             0.0000000000
       872       291  TIP3      H1            -23.9103866405      -51.3222422861      -23.8612896465  W2        291             0.0000000000
       873       291  TIP3      H2            -23.7190566405      -51.6086022861      -25.3354896465  W2        291             0.0000000000
       874       292  TIP3      OH2           -30.4831966405      -47.8650722861      -33.7396096465  W2        292             0.0000000000
       875       292  TIP3      H1            -31.0256866405      -48.2446922861      -34.4308496465  W2        292             0.0000000000
       876       292  TIP3      H2            -29.6497066405      -47.6706022861      -34.1681996465  W2        292             0.0000000000
       877       293  TIP3      OH2           -19.9460366405      -35.7820122861      -18.2484996465  W2        293             0.0000000000
       878       293  TIP3      H1            -19.7461666405      -35.3578222861      -19.0829696465  W2        293             0.0000000000
       879       293  TIP3      H2            -19.2906666405      -35.4381922861      -17.6414596465  W2        293             0.0000000000
       880       294  TIP3      OH2           -32.3480566405      -43.3078822861      -18.6404496465  W2        294             0.0000000000
       881       294  TIP3      H1            -31.6158166405      -43.0532922861      -18.0789996465  W2        294             0.0000000000
       882       294  TIP3      H2            -33.1281866405      -43.1033422861      -18.1249096465  W2        294             0.0000000000
       883       295  TIP3      OH2           -26.3187666405      -47.9008822861      -25.9024796465  W2        295             0.0000000000
       884       295  TIP3      H1            -25.7544266405      -48.4472222861      -26.4495196465  W2        295             0.0000000000
       885       295  TIP3      H2            -26.4664266405      -48.4226922861      -25.1137196465  W2        295             0.0000000000
       886       296  TIP3      OH2           -31.3167966405      -51.7642722861      -29.4839996465  W2        296             0.0000000000
       887       296  TIP3      H1            -31.6338466405      -52.6667422861      -29.5194596465  W2        296             0.0000000000
       888       296  TIP3      H2            -30.5353866405      -51.7625322861      -30.0368396465  W2        296             0.0000000000
       889       297  TIP3      OH2           -27.6921766405      -49.5122722861      -23.4884396465  W2        297             0.0000000000
       890       297  TIP3      H1            -28.5276466405      -49.0583222861      -23.3781996465  W2        297             0.0000000000
       891       297  TIP3      H2            -27.1681166405      -49.2364222861      -22.7364496465  W2        297             0.0000000000
       892       298  TIP3      OH2           -27.1479166405      -43.2995022861      -31.8037996465  W2        298             0.0000000000
       893       298  TIP3      H1            -27.8928166405      -43.8069722861      -32.1260096465  W2        298             0.0000000000
       894       298  TIP3      H2            -27.2821966405      -43.2507022861      -30.8573196465  W2        298             0.0000000000
       895       299  TIP3      OH2           -19.9980266405      -44.1666822861      -23.0170396465  W2        299             0.0000000000
       896       299  TIP3      H1            -19.3561466405      -43.7100522861      -23.5608196465  W2        299             0.0000000000
       897       299  TIP3      H2            -20.8283366405      -44.0534422861      -23.4796296465  W2        299             0.0000000000
       898       300  TIP3      OH2           -23.2502366405      -50.4855122861      -33.6045396465  W2        300             0.0000000000
       899       300  TIP3      H1            -24.1888166405      -50.3739522861      -33.7556596465  W2        300             0.0000000000
       900       300  TIP3      H2            -22.9530266405      -49.6288222861      -33.2979696465  W2        300             0.0000000000
       901       301  TIP3      OH2           -25.6287066405      -43.1151722861      -20.5668896465  W2        301             0.0000000000
       902       301  TIP3      H1            -25.9740966405      -43.4969322861      -19.7599296465  W2        301             0.0000000000
       903       301  TIP3      H2            -25.8286966405      -42.1818122861      -20.4955996465  W2        301             0.0000000000
       904       302  TIP3      OH2           -22.5318866405      -48.6182422861      -31.9437996465  W2        302             0.0000000000
       905       302  TIP3      H1            -21.6399866405      -48.7557422861      -31.6246796465  W2        302             0.0000000000
       906       302  TIP3      H2            -22.4755266405      -47.8276322861      -32.4804496465  W2        302             0.0000000000
       907       303  TIP3      OH2           -32.0230866405      -44.0045022861      -26.0340096465  W2        303             0.0000000000
       908       303  TIP3      H1            -31.2783666405      -44.0069322861      -26.6353596465  W2        303             0.0000000000
       909       303  TIP3      H2            -31.9454266405      -44.8281222861      -25.5524996465  W2        303             0.0000000000
       910       304  TIP3      OH2           -25.0225066405      -41.8410722861      -32.7783396465  W2        304             0.0000000000
       911       304  TIP3      H1            -25.3176666405      -41.0142822861      -32.3968596465  W2        304             0.0000000000
       912       304  TIP3      H2            -25.7255066405      -42.4603822861      -32.5821996465  W2        304             0.0000000000
       913       305  TIP3      OH2           -35.0151166405      -45.5438122861      -20.7191596465  W2        305             0.0000000000
       914       305  TIP3      H1            -34.7922566405      -45.9618522861      -19.8874096465  W2        305             0.0000000000
       915       305  TIP3      H2            -35.6171066405      -46.1563122861      -21.1418796465  W2        305             0.0000000000
       916       306  TIP3      OH2           -27.9986266405      -46.0268222861      -18.5061896465  W2        306             0.0000000000
       917       306  TIP3      H1            -28.2945466405      -46.1925222861      -19.4012796465  W2        306             0.0000000000
       918       306  TIP3      H2            -27.0671066405      -46.2467922861      -18.5167996465  W2        306             0.0000000000
       919       307  TIP3      OH2           -23.3783466405      -40.6536222861      -20.6163896465  W2        307             0.0000000000
       920       307  TIP3      H1            -24.2789166405      -40.4703622861      -20.8839996465  W2        307             0.0000000000
       921       307  TIP3      H2            -23.3442366405      -40.3946922861      -19.6955096465  W2        307             0.0000000000
       922       308  TIP3      OH2           -17.6470166405      -48.4088322861      -32.2491296465  W2        308             0.0000000000
       923       308  TIP3      H1            -18.2013866405      -48.8050322861      -32.9213796465  W2        308             0.0000000000
       924       308  TIP3      H2            -17.5466566405      -47.4983122861      -32.5267996465  W2        308             0.0000000000
       925       309  TIP3      OH2           -17.6838166405      -42.6086622861      -19.4119796465  W2        309             0.0000000000
       926       309  TIP3      H1            -18.5349666405      -42.3702822861      -19.7793396465  W2        309             0.0000000000
       927       309  TIP3      H2            -17.0934766405      -42.6253422861      -20.1652696465  W2        309             0.0000000000
       928       310  TIP3      OH2           -19.3518466405      -39.6227922861      -31.7839196465  W2        310             0.0000000000
       929       310  TIP3      H1            -19.7247366405      -40.4484122861      -31.4748596465  W2        310             0.0000000000
       930       310  TIP3      H2            -19.0744966405      -39.8058522861      -32.6815796465  W2        310             0.0000000000
       931       311  TIP3      OH2           -22.1914566405      -44.8148422861      -24.7627296465  W2        311             0.0000000000
       932       311  TIP3      H1            -23.1197666405      -45.0466522861      -24.7897996465  W2        311             0.0000000000
       933       311  TIP3      H2            -21.7403466405      -45.5918622861      -25.0928496465  W2        311             0.0000000000
       934       312  TIP3      OH2           -29.6481466405      -40.4866822861      -28.6298596465  W2        312             0.0000000000
       935       312  TIP3      H1            -29.1209266405      -39.7132422861      -28.8299796465  W2        312             0.0000000000
       936       312  TIP3      H2            -30.5282966405      -40.2617622861      -28.9314596465  W2        312             0.0000000000
       937       313  TIP3      OH2           -33.8933766405      -45.6242722861      -34.0426196465  W2        313             0.0000000000
       938       313  TIP3      H1            -33.2773866405      -44.9975522861      -33.6631396465  W2        313             0.0000000000
       939       313  TIP3      H2            -34.7551166405      -45.3082922861      -33.7709696465  W2        313             0.0000000000
       940       314  TIP3      OH2           -28.2209166405      -42.8236922861      -29.0534296465  W2        314             0.0000000000
       941       314  TIP3      H1            -28.4619166405      -41.8982522861      -29.0118996465  W2        314             0.0000000000
       942       314  TIP3      H2            -28.9615566405      -43.2825622861      -28.6570396465  W2        314             0.0000000000
       943       315  TIP3      OH2           -27.7062566405      -38.6743322861      -22.7383196465  W2        315             0.0000000000
       944       315  TIP3      H1            -27.3437866405      -37.8197722861      -22.9718796465  W2        315             0.0000000000
       945       315  TIP3      H2            -27.1747366405      -38.9661722861      -21.9976896465  W2        315             0.0000000000
       946       316  TIP3      OH2           -29.5378366405      -37.8019322861      -29.5082096465  W2        316             0.0000000000
       947       316  TIP3      H1            -30.4877866405      -37.6961922861      -29.4568796465  W2        316             0.0000000000
       948       316  TIP3      H2            -29.1860266405      -36.9811922861      -29.1634596465  W2        316             0.0000000000
       949       317  TIP3      OH2           -24.1621766405      -42.5752622861      -23.0377596465  W2        317             0.0000000000
       950       317  TIP3      H1            -24.5880466405      -42.8030922861      -22.2113596465  W2        317             0.0000000000
       951       317  TIP3      H2            -23.5815966405      -43.3140822861      -23.2202296465  W2        317             0.0000000000
       952       318  TIP3      OH2           -21.9592866405      -41.6462122861      -33.9638596465  W2        318             0.0000000000
       953       318  TIP3      H1            -21.6059766405      -42.0262322861      -33.1595096465  W2        318             0.0000000000
       954       318  TIP3      H2            -22.9079366405      -41.7397322861      -33.8769296465  W2        318             0.0000000000
       955       319  TIP3      OH2           -21.5037566405      -38.0233122861      -20.5682796465  W2        319             0.0000000000
       956       319  TIP3      H1            -22.1054366405      -38.5790222861      -21.0636496465  W2        319             0.0000000000
       957       319  TIP3      H2            -21.2223866405      -37.3563322861      -21.1945396465  W2        319             0.0000000000
       958       320  TIP3      OH2           -17.4558466405      -37.1669622861      -33.7628396465  W2        320             0.0000000000
       959       320  TIP3      H1            -16.7120566405      -36.5809122861      -33.9026796465  W2        320             0.0000000000
       960       320  TIP3      H2            -18.1500366405      -36.5983822861      -33.4295996465  W2        320             0.0000000000
       961       321  TIP3      OH2           -33.3811666405      -50.7905422861      -21.1610196465  W2        321             0.0000000000
       962       321  TIP3      H1            -34.2739366405      -50.4520022861      -21.2286196465  W2        321             0.0000000000
       963       321  TIP3      H2            -33.4798866405      -51.6459322861      -20.7429396465  W2        321             0.0000000000
       964       322  TIP3      OH2           -21.0933566405      -42.9740122861      -31.7370696465  W2        322             0.0000000000
       965       322  TIP3      H1            -21.3705966405      -43.7020822861      -31.1809596465  W2        322             0.0000000000
       966       322  TIP3      H2            -20.1660566405      -42.8548122861      -31.5318096465  W2        322             0.0000000000
       967       323  TIP3      OH2           -33.7299666405      -38.9861022861      -22.7260796465  W2        323             0.0000000000
       968       323  TIP3      H1            -33.5129366405      -39.9178622861      -22.7571096465  W2        323             0.0000000000
       969       323  TIP3      H2            -33.4836166405      -38.7116022861      -21.8427996465  W2        323             0.0000000000
       970       324  TIP3      OH2           -27.8685066405      -40.5346022861      -35.5168596465  W2        324             0.0000000000
       971       324  TIP3      H1            -27.6295266405      -41.2827922861      -36.0639696465  W2        324             0.0000000000
       972       324  TIP3      H2            -28.1373766405      -40.9224322861      -34.6840796465  W2        324             0.0000000000
       973       325  TIP3      OH2           -28.9314466405      -40.9642222861      -33.0605996465  W2        325             0.0000000000
       974       325  TIP3      H1            -28.7846466405      -41.4842422861      -32.2705096465  W2        325             0.0000000000
       975       325  TIP3      H2            -28.9342766405      -40.0574622861      -32.7540096465  W2        325             0.0000000000
       976       326  TIP3      OH2           -32.4783366405      -43.7118922861      -32.5500596465  W2        326             0.0000000000
       977       326  TIP3      H1            -33.1644066405      -43.3596422861      -31.9830896465  W2        326             0.0000000000
       978       326  TIP3      H2            -31.9555466405      -42.9489322861      -32.7966296465  W2        326             0.0000000000
       979       327  TIP3      OH2           -24.6468266405      -51.0495122861      -22.2711596465  W2        327             0.0000000000
       980       327  TIP3      H1            -23.9480366405      -50.9756422861      -21.6211896465  W2        327             0.0000000000
       981       327  TIP3      H2            -25.0276866405      -51.9140122861      -22.1168696465  W2        327             0.0000000000
       982       328  TIP3      OH2           -23.8623366405      -51.3973422861      -31.1739296465  W2        328             0.0000000000
       983       328  TIP3      H1            -23.6425066405      -50.9258022861      -31.9773896465  W2        328             0.0000000000
       984       328  TIP3      H2            -23.3039366405      -51.0030822861      -30.5038696465  W2        328             0.0000000000
       985       329  TIP3      OH2           -26.1937266405      -39.2668622861      -32.3111796465  W2        329             0.0000000000
       986       329  TIP3      H1            -27.0101166405      -38.7698922861      -32.2587496465  W2        329             0.0000000000
       987       329  TIP3      H2            -25.6640966405      -38.7915122861      -32.9512996465  W2        329             0.0000000000
       988       330  TIP3      OH2           -26.6623466405      -49.6694622861      -30.3390896465  W2        330             0.0000000000
       989       330  TIP3      H1            -25.8500866405      -49.1651422861      -30.2929196465  W2        330             0.0000000000
       990       330  TIP3      H2            -26.9070466405      -49.8144922861      -29.4251296465  W2        330             0.0000000000
       991       331  TIP3      OH2           -26.1267066405      -48.6831922861      -21.1544296465  W2        331             0.0000000000
       992       331  TIP3      H1            -26.0076766405      -48.1096522861      -20.3973896465  W2        331             0.0000000000
       993       331  TIP3      H2            -25.4712466405      -49.3712522861      -21.0396496465  W2        331             0.0000000000
       994       332  TIP3      OH2           -25.7786766405      -52.5881622861      -29.4009796465  W2        332             0.0000000000
       995       332  TIP3      H1            -26.1253266405      -51.9711022861      -28.7565496465  W2        332             0.0000000000
       996       332  TIP3      H2            -25.1199866405      -52.0875922861      -29.8824296465  W2        332             0.0000000000
       997       333  TIP3      OH2           -28.8554166405      -38.2231422861      -32.3294896465  W2        333             0.0000000000
       998       333  TIP3      H1            -28.6945466405      -37.4233922861      -32.8302296465  W2        333             0.0000000000
       999       333  TIP3      H2            -29.0526366405      -37.9165422861      -31.4444296465  W2        333             0.0000000000
      1000       334  TIP3      OH2           -30.1209766405      -51.5252222861      -32.7137296465  W2        334             0.0000000000
      1001       334  TIP3      H1            -30.2044966405      -50.6369122861      -32.3670896465  W2        334             0.0000000000
      1002       334  TIP3      H2            -29.2309466405      -51.7905522861      -32.4820496465  W2        334             0.0000000000
      1003       335  TIP3      OH2           -19.9221266405      -50.7761622861      -20.3194596465  W2        335             0.0000000000
      1004       335  TIP3      H1            -20.8385466405      -50.5139922861      -20.4070896465  W2        335             0.0000000000
      1005       335  TIP3      H2            -19.5866266405      -50.7792622861      -21.2159296465  W2        335             0.0000000000
      1006       336  TIP3      OH2           -21.3200266405      -47.0260622861      -26.2237296465  W2        336             0.0000000000
      1007       336  TIP3      H1            -22.1175866405      -47.4410422861      -26.5522296465  W2        336             0.0000000000
      1008       336  TIP3      H2            -20.8749166405      -47.7166922861      -25.7326796465  W2        336             0.0000000000
      1009       337  TIP3      OH2           -31.8624466405      -41.0980022861      -33.6532796465  W2        337             0.0000000000
      1010       337  TIP3      H1            -31.2702966405      -40.3985222861      -33.3770396465  W2        337             0.0000000000
      1011       337  TIP3      H2            -31.4031466405      -41.5310522861      -34.3728196465  W2        337             0.0000000000
      1012       338  TIP3      OH2           -33.5465266405      -48.4337022861      -34.5373396465  W2        338             0.0000000000
      1013       338  TIP3      H1            -33.5912666405      -47.4943922861      -34.3586396465  W2        338             0.0000000000
      1014       338  TIP3      H2            -34.4342066405      -48.6692122861      -34.8071296465  W2        338             0.0000000000
      1015       339  TIP3      OH2           -20.2335666405      -37.7698122861      -24.6013796465  W2        339             0.0000000000
      1016       339  TIP3      H1            -20.3891366405      -37.0913722861      -25.2584496465  W2        339             0.0000000000
      1017       339  TIP3      H2            -19.3009266405      -37.6978822861      -24.3983196465  W2        339             0.0000000000
      1018       340  TIP3      OH2           -32.7383266405      -53.6520422861      -25.8642396465  W2        340             0.0000000000
      1019       340  TIP3      H1            -32.9673466405      -53.5927922861      -26.7917396465  W2        340             0.0000000000
      1020       340  TIP3      H2            -33.1809866405      -54.4434922861      -25.5578296465  W2        340             0.0000000000
      1021       341  TIP3      OH2           -33.8079966405      -39.7113322861      -29.7036596465  W2        341             0.0000000000
      1022       341  TIP3      H1            -34.6401366405      -39.2390622861      -29.6765196465  W2        341             0.0000000000
      1023       341  TIP3      H2            -33.2621666405      -39.2015722861      -30.3023496465  W2        341             0.0000000000
      1024       342  TIP3      OH2           -34.5196266405      -37.0989622861      -18.3738596465  W2        342             0.0000000000
      1025       342  TIP3      H1            -33.9794066405      -37.3155622861      -17.6139396465  W2        342             0.0000000000
      1026       342  TIP3      H2            -35.0008266405      -37.9043622861      -18.5636096465  W2        342             0.0000000000
      1027       343  TIP3      OH2           -29.9222866405      -38.1795222861      -16.7534396465  W2        343             0.0000000000
      1028       343  TIP3      H1            -29.1545666405      -38.6384422861      -16.4125196465  W2        343             0.0000000000
      1029       343  TIP3      H2            -29.9436666405      -38.4055422861      -17.6833196465  W2        343             0.0000000000
      1030       344  TIP3      OH2           -25.8303266405      -38.6714622861      -35.3782596465  W2        344             0.0000000000
      1031       344  TIP3      H1            -26.4742266405      -39.3026022861      -35.0568896465  W2        344             0.0000000000
      1032       344  TIP3      H2            -25.0684966405      -39.2026622861      -35.6099096465  W2        344             0.0000000000
      1033       345  TIP3      OH2           -23.3454166405      -39.7994122861      -18.0242896465  W2        345             0.0000000000
      1034       345  TIP3      H1            -23.6964666405      -40.6561122861      -17.7812496465  W2        345             0.0000000000
      1035       345  TIP3      H2            -22.6190966405      -39.6567422861      -17.4173896465  W2        345             0.0000000000
      1036       346  TIP3      OH2           -21.2260366405      -38.8544722861      -35.1444596465  W2        346             0.0000000000
      1037       346  TIP3      H1            -20.9429966405      -39.6489522861      -34.6917696465  W2        346             0.0000000000
      1038       346  TIP3      H2            -20.4862466405      -38.6213722861      -35.7053496465  W2        346             0.0000000000
      1039       347  TIP3      OH2           -34.6126766405      -43.2885522861      -17.4194296465  W2        347             0.0000000000
      1040       347  TIP3      H1            -34.4686266405      -44.1904822861      -17.7057596465  W2        347             0.0000000000
      1041       347  TIP3      H2            -35.3849366405      -43.0023422861      -17.9071996465  W2        347             0.0000000000
      1042       348  TIP3      OH2           -30.2713066405      -42.9449822861      -35.2869696465  W2        348             0.0000000000
      1043       348  TIP3      H1            -30.2068966405      -43.7390222861      -34.7563296465  W2        348             0.0000000000
      1044       348  TIP3      H2            -29.6183866405      -43.0637022861      -35.9767696465  W2        348             0.0000000000
      1045       349  TIP3      OH2           -27.9570666405      -43.3187422861      -17.9867896465  W2        349             0.0000000000
      1046       349  TIP3      H1            -28.2856866405      -43.0479322861      -18.8440496465  W2        349             0.0000000000
      1047       349  TIP3      H2            -27.8052466405      -44.2597622861      -18.0742896465  W2        349             0.0000000000
      1048       350  TIP3      OH2           -24.9189666405      -41.8978122861      -35.5511696465  W2        350             0.0000000000
      1049       350  TIP3      H1            -25.1875566405      -41.7176022861      -34.6502796465  W2        350             0.0000000000
      1050       350  TIP3      H2            -25.1254066405      -42.8231922861      -35.6825896465  W2        350             0.0000000000
      1051       351  TIP3      OH2           -22.2225466405      -43.4030122861      -20.6035596465  W2        351             0.0000000000
      1052       351  TIP3      H1            -21.4770666405      -42.8146422861      -20.7231596465  W2        351             0.0000000000
      1053       351  TIP3      H2            -22.9798666405      -42.8210422861      -20.5402496465  W2        351             0.0000000000
      1054       352  TIP3      OH2           -33.7800266405      -46.0882222861      -17.9994996465  W2        352             0.0000000000
      1055       352  TIP3      H1            -33.3719066405      -46.9455622861      -18.1204396465  W2        352             0.0000000000
      1056       352  TIP3      H2            -34.0402666405      -46.0740922861      -17.0784696465  W2        352             0.0000000000
      1057       353  TIP3      OH2           -29.1219266405      -44.9723622861      -32.9811696465  W2        353             0.0000000000
      1058       353  TIP3      H1            -29.5817266405      -45.4565322861      -32.2953196465  W2        353             0.0000000000
      1059       353  TIP3      H2            -28.8670566405      -45.6408222861      -33.6171196465  W2        353             0.0000000000
      1060       354  TIP3      OH2           -29.8329966405      -47.0796522861      -20.6252096465  W2        354             0.0000000000
      1061       354  TIP3      H1            -30.4513866405      -46.4049922861      -20.3447396465  W2        354             0.0000000000
      1062       354  TIP3      H2            -29.4888766405      -46.7582622861      -21.4585896465  W2        354             0.0000000000
      1063       355  TIP3      OH2           -28.0508866405      -46.7291822861      -34.7188496465  W2        355             0.0000000000
      1064       355  TIP3      H1            -28.2313866405      -46.8840622861      -35.6460196465  W2        355             0.0000000000
      1065       355  TIP3      H2            -27.1008366405      -46.6213122861      -34.6740596465  W2        355             0.0000000000
      1066       356  TIP3      OH2           -24.8131766405      -44.6081222861      -17.3477296465  W2        356             0.0000000000
      1067       356  TIP3      H1            -23.8600566405      -44.5242122861      -17.3751296465  W2        356             0.0000000000
      1068       356  TIP3      H2            -24.9737166405      -45.3199422861      -16.7282396465  W2        356             0.0000000000
      1069       357  TIP3      OH2           -18.6610566405      -44.3747622861      -35.2730396465  W2        357             0.0000000000
      1070       357  TIP3      H1            -18.9345766405      -44.7992122861      -36.0862096465  W2        357             0.0000000000
      1071       357  TIP3      H2            -18.6216466405      -43.4433122861      -35.4899996465  W2        357             0.0000000000
      1072       358  TIP3      OH2           -29.4936266405      -49.7245722861      -19.5428996465  W2        358             0.0000000000
      1073       358  TIP3      H1            -29.3435366405      -50.4534422861      -20.1449296465  W2        358             0.0000000000
      1074       358  TIP3      H2            -29.4913866405      -48.9474022861      -20.1016796465  W2        358             0.0000000000
      1075       359  TIP3      OH2           -29.0810566405      -51.3549922861      -22.0501596465  W2        359             0.0000000000
      1076       359  TIP3      H1            -28.5453066405      -50.9033222861      -22.7022296465  W2        359             0.0000000000
      1077       359  TIP3      H2            -29.9330966405      -51.4630122861      -22.4727496465  W2        359             0.0000000000
      1078       360  TIP3      OH2           -27.4992166405      -45.9153722861      -21.8106396465  W2        360             0.0000000000
      1079       360  TIP3      H1            -26.7487366405      -46.0716222861      -22.3838596465  W2        360             0.0000000000
      1080       360  TIP3      H2            -27.8383866405      -45.0637122861      -22.0860896465  W2        360             0.0000000000
      1081       361  TIP3      OH2           -23.0835966405      -48.1001922861      -16.7821096465  W2        361             0.0000000000
      1082       361  TIP3      H1            -22.8914666405      -49.0312522861      -16.8936596465  W2        361             0.0000000000
      1083       361  TIP3      H2            -22.2259666405      -47.6752422861      -16.7925696465  W2        361             0.0000000000
      1084       362  TIP3      OH2           -21.7668766405      -45.3116722861      -18.7048396465  W2        362             0.0000000000
      1085       362  TIP3      H1            -22.0483766405      -44.6022122861      -19.2824596465  W2        362             0.0000000000
      1086       362  TIP3      H2            -20.8244466405      -45.3843722861      -18.8557196465  W2        362             0.0000000000
      1087       363  TIP3      OH2           -31.0149966405      -48.5262222861      -17.6313396465  W2        363             0.0000000000
      1088       363  TIP3      H1            -31.7820966405      -49.0587422861      -17.8415796465  W2        363             0.0000000000
      1089       363  TIP3      H2            -30.3360966405      -48.8361822861      -18.2307096465  W2        363             0.0000000000
      1090       364  TIP3      OH2           -28.2755066405      -53.8984222861      -21.6187996465  W2        364             0.0000000000
      1091       364  TIP3      H1            -28.3735466405      -52.9521022861      -21.7241796465  W2        364             0.0000000000
      1092       364  TIP3      H2            -29.0178866405      -54.2710422861      -22.0944496465  W2        364             0.0000000000
      1093       365  TIP3      OH2           -27.0114566405      -49.5768822861      -18.0549596465  W2        365             0.0000000000
      1094       365  TIP3      H1            -27.2469166405      -49.7962122861      -17.1534696465  W2        365             0.0000000000
      1095       365  TIP3      H2            -27.7947666405      -49.7837622861      -18.5647096465  W2        365             0.0000000000
      1096       366  TIP3      OH2           -24.2957966405      -50.4495322861      -18.9796096465  W2        366             0.0000000000
      1097       366  TIP3      H1            -25.2432566405      -50.4175622861      -18.8472796465  W2        366             0.0000000000
      1098       366  TIP3      H2            -23.9831266405      -51.0748222861      -18.3257896465  W2        366             0.0000000000
      1099       367  TIP3      OH2           -22.6616466405      -51.8154222861      -16.9744196465  W2        367             0.0000000000
      1100       367  TIP3      H1            -22.7584666405      -52.7676922861      -16.9802296465  W2        367             0.0000000000
      1101       367  TIP3      H2            -22.9833366405      -51.5467422861      -16.1138696465  W2        367             0.0000000000
      1102       368  TIP3      OH2           -32.8347166405      -50.6058422861      -17.9268696465  W2        368             0.0000000000
      1103       368  TIP3      H1            -32.6229766405      -51.3122322861      -18.5371196465  W2        368             0.0000000000
      1104       368  TIP3      H2            -32.9459666405      -51.0432422861      -17.0827496465  W2        368             0.0000000000
      1105       369  TIP3      OH2           -28.0536966405      -54.6046822861      -18.9475196465  W2        369             0.0000000000
      1106       369  TIP3      H1            -27.3418566405      -55.2444622861      -18.9616096465  W2        369             0.0000000000
      1107       369  TIP3      H2            -28.1546566405      -54.3378522861      -19.8612096465  W2        369             0.0000000000
      1108       370  TIP3      OH2           -27.6999466405      -52.9218422861      -16.8938896465  W2        370             0.0000000000
      1109       370  TIP3      H1            -27.8317266405      -53.3974622861      -17.7140396465  W2        370             0.0000000000
      1110       370  TIP3      H2            -28.2992066405      -52.1774822861      -16.9491796465  W2        370             0.0000000000
      1111       371  TIP3      OH2           -28.1537166405      -36.0388122861      -33.7174896465  W2        371             0.0000000000
      1112       371  TIP3      H1            -27.2206466405      -35.8809422861      -33.5736496465  W2        371             0.0000000000
      1113       371  TIP3      H2            -28.4178366405      -35.3635122861      -34.3423396465  W2        371             0.0000000000
      1114       372  TIP3      OH2           -34.5852266405      -41.4024322861      -34.2346796465  W2        372             0.0000000000
      1115       372  TIP3      H1            -33.6713066405      -41.3235422861      -33.9612896465  W2        372             0.0000000000
      1116       372  TIP3      H2            -34.5779166405      -42.0894722861      -34.9011196465  W2        372             0.0000000000
      1117       373  TIP3      OH2           -35.9361666405      -36.0095822861      -29.1572896465  W2        373             0.0000000000
      1118       373  TIP3      H1            -36.5834566405      -36.4714122861      -29.6901696465  W2        373             0.0000000000
      1119       373  TIP3      H2            -35.5817066405      -36.6812522861      -28.5746696465  W2        373             0.0000000000
      1120       374  TIP3      OH2           -35.0662466405      -37.9288822861      -27.3526696465  W2        374             0.0000000000
      1121       374  TIP3      H1            -35.4005666405      -38.8091522861      -27.1806496465  W2        374             0.0000000000
      1122       374  TIP3      H2            -34.8440066405      -37.5833822861      -26.4881096465  W2        374             0.0000000000
      1123       375  TIP3      OH2           -17.5177666405      -37.1192422861      -24.3721896465  W2        375             0.0000000000
      1124       375  TIP3      H1            -17.5390966405      -36.9344022861      -23.4332496465  W2        375             0.0000000000
      1125       375  TIP3      H2            -16.8271466405      -36.5508422861      -24.7130496465  W2        375             0.0000000000
      1126       376  TIP3      OH2           -17.9544766405      -37.5521322861      -21.4502796465  W2        376             0.0000000000
      1127       376  TIP3      H1            -18.4416066405      -38.2877222861      -21.8215396465  W2        376             0.0000000000
      1128       376  TIP3      H2            -17.4052066405      -37.9457422861      -20.7723396465  W2        376             0.0000000000
      1129       377  TIP3      OH2           -19.5037466405      -41.7623222861      -16.8122496465  W2        377             0.0000000000
      1130       377  TIP3      H1            -20.3696366405      -41.8673522861      -16.4180196465  W2        377             0.0000000000
      1131       377  TIP3      H2            -19.1271566405      -41.0039922861      -16.3657796465  W2        377             0.0000000000
      1132       378  TIP3      OH2           -18.2027766405      -43.5059522861      -31.2979996465  W2        378             0.0000000000
      1133       378  TIP3      H1            -17.3526366405      -43.0848622861      -31.1708396465  W2        378             0.0000000000
      1134       378  TIP3      H2            -18.1972666405      -44.2459422861      -30.6908596465  W2        378             0.0000000000
      1135       379  TIP3      OH2           -17.8082166405      -45.4522122861      -29.4744296465  W2        379             0.0000000000
      1136       379  TIP3      H1            -18.5347566405      -45.9319522861      -29.0766696465  W2        379             0.0000000000
      1137       379  TIP3      H2            -17.2268866405      -45.2467422861      -28.7422696465  W2        379             0.0000000000
      1138       380  TIP3      OH2           -18.0490966405      -42.6674622861      -24.5266696465  W2        380             0.0000000000
      1139       380  TIP3      H1            -17.2156766405      -43.0454622861      -24.8073096465  W2        380             0.0000000000
      1140       380  TIP3      H2            -17.9370666405      -41.7243422861      -24.6457596465  W2        380             0.0000000000
      1141       381  TIP3      OH2           -19.5628666405      -39.7897122861      -22.2198296465  W2        381             0.0000000000
      1142       381  TIP3      H1            -20.2103366405      -39.4645622861      -21.5943096465  W2        381             0.0000000000
      1143       381  TIP3      H2            -20.0804666405      -40.2299422861      -22.8939996465  W2        381             0.0000000000
      1144       382  TIP3      OH2           -17.5399066405      -45.5513622861      -33.0832996465  W2        382             0.0000000000
      1145       382  TIP3      H1            -18.0617966405      -45.1949522861      -33.8022096465  W2        382             0.0000000000
      1146       382  TIP3      H2            -17.5729866405      -44.8765822861      -32.4052096465  W2        382             0.0000000000
      1147       383  TIP3      OH2           -19.1910066405      -48.3118022861      -34.5325896465  W2        383             0.0000000000
      1148       383  TIP3      H1            -19.0945666405      -47.6451022861      -35.2126196465  W2        383             0.0000000000
      1149       383  TIP3      H2            -19.3310466405      -49.1271722861      -35.0140396465  W2        383             0.0000000000
      1150       384  TIP3      OH2           -20.0215366405      -46.9315622861      -28.9115596465  W2        384             0.0000000000
      1151       384  TIP3      H1            -20.1716566405      -47.8767022861      -28.9317796465  W2        384             0.0000000000
      1152       384  TIP3      H2            -20.3750866405      -46.6504222861      -28.0676496465  W2        384             0.0000000000
      1153       385  TIP3      OH2           -34.9862966405      -44.8533422861      -24.9011796465  W2        385             0.0000000000
      1154       385  TIP3      H1            -34.8020066405      -44.9351722861      -25.8368896465  W2        385             0.0000000000
      1155       385  TIP3      H2            -34.1370066405      -44.9776422861      -24.4775396465  W2        385             0.0000000000
      1156       386  TIP3      OH2           -19.1652466405      -44.9612322861      -19.2727296465  W2        386             0.0000000000
      1157       386  TIP3      H1            -18.5825166405      -45.6960022861      -19.0810096465  W2        386             0.0000000000
      1158       386  TIP3      H2            -18.6013166405      -44.1892022861      -19.2261496465  W2        386             0.0000000000
      1159       387  TIP3      OH2           -17.6685366405      -47.0586522861      -18.5881896465  W2        387             0.0000000000
      1160       387  TIP3      H1            -18.5318666405      -47.4374422861      -18.7537196465  W2        387             0.0000000000
      1161       387  TIP3      H2            -17.0641666405      -47.7971722861      -18.6626096465  W2        387             0.0000000000
      1162       388  TIP3      OH2           -19.9436266405      -50.9038222861      -35.4150396465  W2        388             0.0000000000
      1163       388  TIP3      H1            -19.3330466405      -51.2751422861      -34.7782196465  W2        388             0.0000000000
      1164       388  TIP3      H2            -20.7804766405      -51.3251322861      -35.2190396465  W2        388             0.0000000000
      1165       389  TIP3      OH2           -20.3110566405      -49.3489822861      -30.4490496465  W2        389             0.0000000000
      1166       389  TIP3      H1            -20.0313466405      -50.2559422861      -30.3248796465  W2        389             0.0000000000
      1167       389  TIP3      H2            -19.5518866405      -48.9148322861      -30.8381296465  W2        389             0.0000000000
      1168       390  TIP3      OH2           -19.6992266405      -48.7672422861      -25.0131596465  W2        390             0.0000000000
      1169       390  TIP3      H1            -18.7664266405      -48.5552522861      -25.0475596465  W2        390             0.0000000000
      1170       390  TIP3      H2            -19.9344766405      -48.6660322861      -24.0908596465  W2        390             0.0000000000
      1171       391  TIP3      OH2           -19.6700366405      -48.0307122861      -22.2372196465  W2        391             0.0000000000
      1172       391  TIP3      H1            -20.5129066405      -47.7626722861      -21.8712396465  W2        391             0.0000000000
      1173       391  TIP3      H2            -19.2276066405      -47.2085222861      -22.4481096465  W2        391             0.0000000000
      1174       392  TIP3      OH2           -35.3888166405      -49.5828422861      -18.7602996465  W2        392             0.0000000000
      1175       392  TIP3      H1            -34.4693266405      -49.7050122861      -18.5239896465  W2        392             0.0000000000
      1176       392  TIP3      H2            -35.8383666405      -50.3328722861      -18.3709496465  W2        392             0.0000000000
      1177       393  TIP3      OH2           -17.3868766405      -54.0506922861      -16.8837196465  W2        393             0.0000000000
      1178       393  TIP3      H1            -17.0371766405      -54.7043422861      -17.4892496465  W2        393             0.0000000000
      1179       393  TIP3      H2            -17.2399266405      -53.2132822861      -17.3234596465  W2        393             0.0000000000
      1180       394  TIP3      OH2           -19.6975766405      -52.0860522861      -30.4008496465  W2        394             0.0000000000
      1181       394  TIP3      H1            -19.5150766405      -52.5349022861      -29.5753496465  W2        394             0.0000000000
      1182       394  TIP3      H2            -20.2972866405      -52.6706122861      -30.8643896465  W2        394             0.0000000000
      1183       395  TIP3      OH2           -34.1675666405      -51.2706822861      -25.8690096465  W2        395             0.0000000000
      1184       395  TIP3      H1            -33.7224066405      -52.0624322861      -25.5670396465  W2        395             0.0000000000
      1185       395  TIP3      H2            -33.7012666405      -50.5541622861      -25.4384496465  W2        395             0.0000000000
      1186       396  TIP3      OH2           -35.8635366405      -48.2713822861      -24.7999896465  W2        396             0.0000000000
      1187       396  TIP3      H1            -35.3715566405      -48.4923322861      -25.5907896465  W2        396             0.0000000000
      1188       396  TIP3      H2            -35.5014466405      -47.4310422861      -24.5190396465  W2        396             0.0000000000
      1189       397  TIP3      OH2           -17.8671566405      -51.9412322861      -18.5345896465  W2        397             0.0000000000
      1190       397  TIP3      H1            -18.7845866405      -51.6705222861      -18.5702396465  W2        397             0.0000000000
      1191       397  TIP3      H2            -17.7442166405      -52.4763922861      -19.3186196465  W2        397             0.0000000000
      1192       398  TIP3      OH2           -17.8309566405      -52.0182422861      -33.8728196465  W2        398             0.0000000000
      1193       398  TIP3      H1            -17.4186966405      -52.7396722861      -34.3480196465  W2        398             0.0000000000
      1194       398  TIP3      H2            -17.1493066405      -51.3487822861      -33.8143896465  W2        398             0.0000000000
      1195       399  TIP3      OH2           -35.5498866405      -52.0134722861      -30.7457496465  W2        399             0.0000000000
      1196       399  TIP3      H1            -36.4750466405      -51.8048122861      -30.8751996465  W2        399             0.0000000000
      1197       399  TIP3      H2            -35.0958966405      -51.5293922861      -31.4355196465  W2        399             0.0000000000
      1198       400  TIP3      OH2           -20.7791666405      -37.0293022861      -28.8000096465  W2        400             0.0000000000
      1199       400  TIP3      H1            -20.1268766405      -37.3770922861      -29.4080996465  W2        400             0.0000000000
      1200       400  TIP3      H2            -20.2687866405      -36.5409822861      -28.1540396465  W2        400             0.0000000000
      1201       401  TIP3      OH2           -35.5863466405      -53.2755722861      -22.4014996465  W2        401             0.0000000000
      1202       401  TIP3      H1            -36.2512966405      -53.5215422861      -21.7584096465  W2        401             0.0000000000
      1203       401  TIP3      H2            -36.0292166405      -52.6535322861      -22.9786996465  W2        401             0.0000000000
      1204       402  TIP3      OH2           -33.3944166405      -40.1001622861      -18.2569196465  W2        402             0.0000000000
      1205       402  TIP3      H1            -34.2151666405      -39.9255122861      -18.7174496465  W2        402             0.0000000000
      1206       402  TIP3      H2            -33.6466366405      -40.1736922861      -17.3364796465  W2        402             0.0000000000
      1207       403  TIP3      OH2           -30.4401266405      -39.1260422861      -21.9985196465  W2        403             0.0000000000
      1208       403  TIP3      H1            -30.8650166405      -38.3161922861      -22.2810596465  W2        403             0.0000000000
      1209       403  TIP3      H2            -29.5358466405      -39.0406322861      -22.3005396465  W2        403             0.0000000000
      1210       404  TIP3      OH2           -26.1289866405      -37.7270422861      -19.0391496465  W2        404             0.0000000000
      1211       404  TIP3      H1            -25.9442366405      -38.0604322861      -18.1611196465  W2        404             0.0000000000
      1212       404  TIP3      H2            -25.2825366405      -37.4171822861      -19.3612296465  W2        404             0.0000000000
      1213       405  TIP3      OH2           -23.7839466405      -36.4411522861      -19.7950096465  W2        405             0.0000000000
      1214       405  TIP3      H1            -23.1070566405      -37.0739222861      -20.0350896465  W2        405             0.0000000000
      1215       405  TIP3      H2            -23.4620666405      -36.0401022861      -18.9876796465  W2        405             0.0000000000
      1216       406  TIP3      OH2           -18.8665666405      -53.8516022861      -20.7155096465  W2        406             0.0000000000
      1217       406  TIP3      H1            -19.6792166405      -53.5265722861      -21.1030396465  W2        406             0.0000000000
      1218       406  TIP3      H2            -18.6337166405      -54.6117522861      -21.2485996465  W2        406             0.0000000000
      1219       407  TIP3      OH2           -33.0384566405      -35.8696522861      -21.9509896465  W2        407             0.0000000000
      1220       407  TIP3      H1            -33.7588166405      -35.4295522861      -22.4022196465  W2        407             0.0000000000
      1221       407  TIP3      H2            -33.4040566405      -36.1201822861      -21.1025896465  W2        407             0.0000000000
      1222       408  TIP3      OH2           -30.5711966405      -36.2692622861      -22.9212696465  W2        408             0.0000000000
      1223       408  TIP3      H1            -31.4359766405      -36.1974122861      -22.5172596465  W2        408             0.0000000000
      1224       408  TIP3      H2            -30.6262966405      -35.7225322861      -23.7050196465  W2        408             0.0000000000
      1225       409  TIP3      OH2           -25.8606366405      -36.3813722861      -23.7456696465  W2        409             0.0000000000
      1226       409  TIP3      H1            -26.3172366405      -35.8524022861      -24.3998296465  W2        409             0.0000000000
      1227       409  TIP3      H2            -25.6978366405      -35.7782322861      -23.0204396465  W2        409             0.0000000000
      1228       410  TIP3      OH2           -23.5330066405      -37.5034122861      -22.8006396465  W2        410             0.0000000000
      1229       410  TIP3      H1            -24.4376366405      -37.3383922861      -23.0664296465  W2        410             0.0000000000
      1230       410  TIP3      H2            -23.1041466405      -36.6501922861      -22.8662996465  W2        410             0.0000000000
      1231       411  TIP3      OH2           -20.9288166405      -35.9335022861      -22.5058596465  W2        411             0.0000000000
      1232       411  TIP3      H1            -21.1106166405      -35.0176122861      -22.7163696465  W2        411             0.0000000000
      1233       411  TIP3      H2            -20.7520366405      -36.3437922861      -23.3523996465  W2        411             0.0000000000
      1234       412  TIP3      OH2           -33.6236466405      -37.2464022861      -25.0408096465  W2        412             0.0000000000
      1235       412  TIP3      H1            -33.6420466405      -37.6718922861      -24.1835796465  W2        412             0.0000000000
      1236       412  TIP3      H2            -32.8188566405      -37.5649022861      -25.4495896465  W2        412             0.0000000000
      1237       413  TIP3      OH2           -31.4823366405      -38.5365322861      -26.3858196465  W2        413             0.0000000000
      1238       413  TIP3      H1            -31.7012666405      -39.4527922861      -26.2162196465  W2        413             0.0000000000
      1239       413  TIP3      H2            -30.6581166405      -38.3964922861      -25.9196796465  W2        413             0.0000000000
      1240       414  TIP3      OH2           -28.9450866405      -38.0666022861      -25.5370196465  W2        414             0.0000000000
      1241       414  TIP3      H1            -28.7325166405      -38.9547022861      -25.8239296465  W2        414             0.0000000000
      1242       414  TIP3      H2            -28.8805766405      -38.1008322861      -24.5826196465  W2        414             0.0000000000
      1243       415  TIP3      OH2           -25.4367166405      -52.4025422861      -26.3926896465  W2        415             0.0000000000
      1244       415  TIP3      H1            -26.1110366405      -53.0319822861      -26.1371096465  W2        415             0.0000000000
      1245       415  TIP3      H2            -24.8727966405      -52.8866522861      -26.9958996465  W2        415             0.0000000000
      1246       416  TIP3      OH2           -20.2939966405      -54.2951422861      -26.2799796465  W2        416             0.0000000000
      1247       416  TIP3      H1            -19.6902366405      -53.7476022861      -26.7818796465  W2        416             0.0000000000
      1248       416  TIP3      H2            -21.1637966405      -53.9761022861      -26.5205696465  W2        416             0.0000000000
      1249       417  TIP3      OH2           -18.5669566405      -53.1562722861      -27.9468896465  W2        417             0.0000000000
      1250       417  TIP3      H1            -17.9552066405      -53.6707022861      -28.4735296465  W2        417             0.0000000000
      1251       417  TIP3      H2            -18.1846166405      -52.2790622861      -27.9234496465  W2        417             0.0000000000
      1252       418  TIP3      OH2           -33.1099666405      -53.7685122861      -28.5706996465  W2        418             0.0000000000
      1253       418  TIP3      H1            -33.8869866405      -54.0030222861      -29.0781096465  W2        418             0.0000000000
      1254       418  TIP3      H2            -32.5796066405      -54.5653022861      -28.5618996465  W2        418             0.0000000000
      1255       419  TIP3      OH2           -34.2736266405      -53.9707022861      -32.7670896465  W2        419             0.0000000000
      1256       419  TIP3      H1            -33.8345566405      -53.3596522861      -33.3587396465  W2        419             0.0000000000
      1257       419  TIP3      H2            -34.9073866405      -53.4322922861      -32.2930896465  W2        419             0.0000000000
      1258       420  TIP3      OH2           -28.5307066405      -53.8418022861      -28.7573896465  W2        420             0.0000000000
      1259       420  TIP3      H1            -27.6563666405      -53.4533722861      -28.7869596465  W2        420             0.0000000000
      1260       420  TIP3      H2            -28.6666266405      -54.0570222861      -27.8346696465  W2        420             0.0000000000
      1261       421  TIP3      OH2           -22.9738666405      -53.8118222861      -27.1082196465  W2        421             0.0000000000
      1262       421  TIP3      H1            -22.8977066405      -53.7166622861      -28.0576196465  W2        421             0.0000000000
      1263       421  TIP3      H2            -23.2489466405      -54.7195322861      -26.9793096465  W2        421             0.0000000000
      1264       422  TIP3      OH2           -21.6206066405      -53.7860422861      -31.4157196465  W2        422             0.0000000000
      1265       422  TIP3      H1            -22.3234966405      -53.1711222861      -31.6255796465  W2        422             0.0000000000
      1266       422  TIP3      H2            -22.0654666405      -54.6233722861      -31.2846296465  W2        422             0.0000000000
      1267       423  TIP3      OH2           -34.3726766405      -38.0224822861      -31.8695796465  W2        423             0.0000000000
      1268       423  TIP3      H1            -35.0576866405      -38.0605922861      -32.5370696465  W2        423             0.0000000000
      1269       423  TIP3      H2            -34.3689566405      -37.1097222861      -31.5813696465  W2        423             0.0000000000
      1270       424  TIP3      OH2           -32.4127166405      -52.0545522861      -34.3246796465  W2        424             0.0000000000
      1271       424  TIP3      H1            -31.9213766405      -52.6843122861      -34.8521296465  W2        424             0.0000000000
      1272       424  TIP3      H2            -31.7890866405      -51.7586122861      -33.6615596465  W2        424             0.0000000000
      1273       425  TIP3      OH2           -27.3867066405      -51.7614022861      -31.8676296465  W2        425             0.0000000000
      1274       425  TIP3      H1            -27.2085766405      -52.4080822861      -31.1847696465  W2        425             0.0000000000
      1275       425  TIP3      H2            -27.4400866405      -50.9276322861      -31.4005196465  W2        425             0.0000000000
      1276       426  TIP3      OH2           -25.5083266405      -36.8129922861      -33.4719596465  W2        426             0.0000000000
      1277       426  TIP3      H1            -24.6423066405      -36.4462522861      -33.6501396465  W2        426             0.0000000000
      1278       426  TIP3      H2            -25.7550466405      -37.2521922861      -34.2858796465  W2        426             0.0000000000
      1279       427  TIP3      OH2           -18.7993666405      -37.2499622861      -30.7928496465  W2        427             0.0000000000
      1280       427  TIP3      H1            -18.9936566405      -37.9977522861      -31.3578896465  W2        427             0.0000000000
      1281       427  TIP3      H2            -18.8383566405      -36.4919522861      -31.3760596465  W2        427             0.0000000000
      1282       428  TIP3      OH2           -33.1521666405      -53.2543222861      -19.0530796465  W2        428             0.0000000000
      1283       428  TIP3      H1            -33.5183466405      -54.0200622861      -18.6106096465  W2        428             0.0000000000
      1284       428  TIP3      H2            -32.2393166405      -53.2253022861      -18.7665696465  W2        428             0.0000000000
      1285       429  TIP3      OH2           -31.1790866405      -53.9038822861      -17.5173696465  W2        429             0.0000000000
      1286       429  TIP3      H1            -30.2807266405      -54.1778622861      -17.7020296465  W2        429             0.0000000000
      1287       429  TIP3      H2            -31.5657766405      -54.6462822861      -17.0531096465  W2        429             0.0000000000
      1288       430  TIP3      OH2           -32.5545566405      -37.1024022861      -34.8443696465  W2        430             0.0000000000
      1289       430  TIP3      H1            -32.8220966405      -36.8161122861      -33.9710596465  W2        430             0.0000000000
      1290       430  TIP3      H2            -31.7832966405      -37.6484822861      -34.6921196465  W2        430             0.0000000000
      1291       431  TIP3      OH2           -22.7578566405      -54.5713522861      -17.3350896465  W2        431             0.0000000000
      1292       431  TIP3      H1            -22.6811366405      -54.9972822861      -16.4813196465  W2        431             0.0000000000
      1293       431  TIP3      H2            -21.8641966405      -54.5578822861      -17.6777396465  W2        431             0.0000000000
      1294       432  TIP3      OH2           -19.5817466405      -38.4987222861      -18.6426696465  W2        432             0.0000000000
      1295       432  TIP3      H1            -20.3635566405      -38.6849222861      -19.1626096465  W2        432             0.0000000000
      1296       432  TIP3      H2            -19.6537566405      -37.5692922861      -18.4254196465  W2        432             0.0000000000
      1297       433  TIP3      OH2            -5.1757066405      -44.6122822861      -28.6119496465  W2        433             0.0000000000
      1298       433  TIP3      H1             -5.0865966405      -43.6684622861      -28.7442396465  W2        433             0.0000000000
      1299       433  TIP3      H2             -5.8139466405      -44.8876422861      -29.2700096465  W2        433             0.0000000000
      1300       434  TIP3      OH2            -6.2425766405      -45.3572122861      -25.1931296465  W2        434             0.0000000000
      1301       434  TIP3      H1             -6.2808266405      -46.0035822861      -24.4881696465  W2        434             0.0000000000
      1302       434  TIP3      H2             -6.5649266405      -45.8237722861      -25.9642596465  W2        434             0.0000000000
      1303       435  TIP3      OH2           -13.8740766405      -45.7430022861      -23.6001396465  W2        435             0.0000000000
      1304       435  TIP3      H1            -13.8328666405      -46.3686722861      -22.8768996465  W2        435             0.0000000000
      1305       435  TIP3      H2            -13.1713066405      -45.1191422861      -23.4180996465  W2        435             0.0000000000
      1306       436  TIP3      OH2            -2.5365566405      -42.4181722861      -26.8916196465  W2        436             0.0000000000
      1307       436  TIP3      H1             -2.9772866405      -43.1385722861      -26.4410596465  W2        436             0.0000000000
      1308       436  TIP3      H2             -2.5495866405      -41.6974522861      -26.2618496465  W2        436             0.0000000000
      1309       437  TIP3      OH2           -12.9507666405      -41.2931122861      -25.0652296465  W2        437             0.0000000000
      1310       437  TIP3      H1            -13.3202466405      -42.0950622861      -25.4347996465  W2        437             0.0000000000
      1311       437  TIP3      H2            -12.0096566405      -41.4616222861      -25.0188896465  W2        437             0.0000000000
      1312       438  TIP3      OH2           -16.3407166405      -47.6328522861      -29.6723496465  W2        438             0.0000000000
      1313       438  TIP3      H1            -16.7883766405      -46.7869822861      -29.6906996465  W2        438             0.0000000000
      1314       438  TIP3      H2            -16.9015966405      -48.2124322861      -30.1878396465  W2        438             0.0000000000
      1315       439  TIP3      OH2           -15.6301066405      -45.4708922861      -27.5465496465  W2        439             0.0000000000
      1316       439  TIP3      H1            -15.4167566405      -46.2407322861      -27.0192496465  W2        439             0.0000000000
      1317       439  TIP3      H2            -14.8923466405      -45.3812222861      -28.1497896465  W2        439             0.0000000000
      1318       440  TIP3      OH2            -5.4250066405      -37.3140022861      -26.6795796465  W2        440             0.0000000000
      1319       440  TIP3      H1             -4.8053666405      -37.9905322861      -26.9526596465  W2        440             0.0000000000
      1320       440  TIP3      H2             -5.6332666405      -37.5319222861      -25.7710896465  W2        440             0.0000000000
      1321       441  TIP3      OH2            -7.8531366405      -42.9250722861      -24.7870296465  W2        441             0.0000000000
      1322       441  TIP3      H1             -7.5493466405      -43.6109322861      -25.3816196465  W2        441             0.0000000000
      1323       441  TIP3      H2             -7.1317366405      -42.8062022861      -24.1692296465  W2        441             0.0000000000
      1324       442  TIP3      OH2             0.8098433595      -51.3235422861      -23.9264096465  W2        442             0.0000000000
      1325       442  TIP3      H1              0.8590633595      -50.7134222861      -23.1904996465  W2        442             0.0000000000
      1326       442  TIP3      H2              1.2353533595      -50.8624522861      -24.6492996465  W2        442             0.0000000000
      1327       443  TIP3      OH2            -4.7124366405      -48.5308322861      -24.4595496465  W2        443             0.0000000000
      1328       443  TIP3      H1             -4.5698466405      -49.4771322861      -24.4393896465  W2        443             0.0000000000
      1329       443  TIP3      H2             -4.8185366405      -48.3238522861      -25.3880596465  W2        443             0.0000000000
      1330       444  TIP3      OH2           -11.5576066405      -50.4291922861      -27.1870696465  W2        444             0.0000000000
      1331       444  TIP3      H1            -11.5144966405      -49.5693422861      -27.6054396465  W2        444             0.0000000000
      1332       444  TIP3      H2            -12.0151966405      -50.9817222861      -27.8207496465  W2        444             0.0000000000
      1333       445  TIP3      OH2            -3.8353366405      -50.2986322861      -28.7862396465  W2        445             0.0000000000
      1334       445  TIP3      H1             -3.1889066405      -50.6273122861      -28.1614796465  W2        445             0.0000000000
      1335       445  TIP3      H2             -3.3253966405      -49.7807322861      -29.4090996465  W2        445             0.0000000000
      1336       446  TIP3      OH2           -14.9374566405      -48.0326122861      -26.4249296465  W2        446             0.0000000000
      1337       446  TIP3      H1            -14.2837966405      -48.5824422861      -25.9929196465  W2        446             0.0000000000
      1338       446  TIP3      H2            -14.9135266405      -48.3067122861      -27.3417296465  W2        446             0.0000000000
      1339       447  TIP3      OH2            -9.7810066405      -46.4824822861      -27.2097796465  W2        447             0.0000000000
      1340       447  TIP3      H1             -9.1649066405      -47.0089422861      -26.7003796465  W2        447             0.0000000000
      1341       447  TIP3      H2            -10.3671266405      -47.1226122861      -27.6134196465  W2        447             0.0000000000
      1342       448  TIP3      OH2             1.2013033595      -49.8456222861      -21.6904296465  W2        448             0.0000000000
      1343       448  TIP3      H1              0.5127633595      -49.1875522861      -21.7857696465  W2        448             0.0000000000
      1344       448  TIP3      H2              1.2167633595      -50.0428322861      -20.7538896465  W2        448             0.0000000000
      1345       449  TIP3      OH2           -12.7474166405      -51.5113522861      -23.1129896465  W2        449             0.0000000000
      1346       449  TIP3      H1            -12.9662466405      -50.9812922861      -23.8793896465  W2        449             0.0000000000
      1347       449  TIP3      H2            -13.4153266405      -51.2848022861      -22.4658496465  W2        449             0.0000000000
      1348       450  TIP3      OH2            -5.3784366405      -42.0112422861      -29.5690796465  W2        450             0.0000000000
      1349       450  TIP3      H1             -5.6739266405      -42.3340122861      -30.4203896465  W2        450             0.0000000000
      1350       450  TIP3      H2             -5.7026566405      -41.1115722861      -29.5278196465  W2        450             0.0000000000
      1351       451  TIP3      OH2           -10.1782766405      -43.8357822861      -22.8256196465  W2        451             0.0000000000
      1352       451  TIP3      H1            -10.9183666405      -43.2376322861      -22.7220996465  W2        451             0.0000000000
      1353       451  TIP3      H2             -9.4643266405      -43.2818222861      -23.1412596465  W2        451             0.0000000000
      1354       452  TIP3      OH2            -2.0714966405      -51.0077022861      -26.8056496465  W2        452             0.0000000000
      1355       452  TIP3      H1             -2.2866966405      -51.7733622861      -26.2730496465  W2        452             0.0000000000
      1356       452  TIP3      H2             -1.4157566405      -50.5352422861      -26.2927996465  W2        452             0.0000000000
      1357       453  TIP3      OH2           -13.1536866405      -49.6191722861      -25.1607696465  W2        453             0.0000000000
      1358       453  TIP3      H1            -12.5400566405      -48.9864122861      -24.7875296465  W2        453             0.0000000000
      1359       453  TIP3      H2            -12.6416166405      -50.0916722861      -25.8170796465  W2        453             0.0000000000
      1360       454  TIP3      OH2           -11.7708466405      -41.8714822861      -22.0384696465  W2        454             0.0000000000
      1361       454  TIP3      H1            -11.7760866405      -40.9921322861      -22.4165396465  W2        454             0.0000000000
      1362       454  TIP3      H2            -12.6244366405      -41.9550722861      -21.6134796465  W2        454             0.0000000000
      1363       455  TIP3      OH2           -15.6497566405      -42.2006922861      -31.2565396465  W2        455             0.0000000000
      1364       455  TIP3      H1            -15.9216666405      -41.9715922861      -32.1452496465  W2        455             0.0000000000
      1365       455  TIP3      H2            -15.6041866405      -41.3628122861      -30.7960096465  W2        455             0.0000000000
      1366       456  TIP3      OH2            -2.0247866405      -40.5791022861      -24.5436896465  W2        456             0.0000000000
      1367       456  TIP3      H1             -2.9664166405      -40.5207122861      -24.3819996465  W2        456             0.0000000000
      1368       456  TIP3      H2             -1.7481766405      -39.6730522861      -24.6807196465  W2        456             0.0000000000
      1369       457  TIP3      OH2            -1.7240866405      -52.2925722861      -23.1262996465  W2        457             0.0000000000
      1370       457  TIP3      H1             -2.4601666405      -51.6818622861      -23.1641696465  W2        457             0.0000000000
      1371       457  TIP3      H2             -1.0406866405      -51.8776722861      -23.6526596465  W2        457             0.0000000000
      1372       458  TIP3      OH2            -8.7209466405      -54.2058422861      -25.6604996465  W2        458             0.0000000000
      1373       458  TIP3      H1             -8.8385266405      -55.1542422861      -25.7146696465  W2        458             0.0000000000
      1374       458  TIP3      H2             -9.5759366405      -53.8732322861      -25.3873896465  W2        458             0.0000000000
      1375       459  TIP3      OH2            -3.7726666405      -38.7977522861      -27.9185296465  W2        459             0.0000000000
      1376       459  TIP3      H1             -3.3474366405      -39.5049622861      -28.4035696465  W2        459             0.0000000000
      1377       459  TIP3      H2             -3.4556666405      -37.9964822861      -28.3353096465  W2        459             0.0000000000
      1378       460  TIP3      OH2            -2.6130166405      -40.8969022861      -29.4098696465  W2        460             0.0000000000
      1379       460  TIP3      H1             -2.8705366405      -41.5868922861      -30.0212796465  W2        460             0.0000000000
      1380       460  TIP3      H2             -2.5419366405      -41.3397822861      -28.5642796465  W2        460             0.0000000000
      1381       461  TIP3      OH2            -0.9269966405      -42.3302322861      -20.9325196465  W2        461             0.0000000000
      1382       461  TIP3      H1             -0.7873666405      -42.9219822861      -21.6718196465  W2        461             0.0000000000
      1383       461  TIP3      H2             -0.7597166405      -41.4576422861      -21.2886396465  W2        461             0.0000000000
      1384       462  TIP3      OH2            -6.4544566405      -45.3682822861      -31.1599196465  W2        462             0.0000000000
      1385       462  TIP3      H1             -7.1659066405      -44.8333122861      -31.5118696465  W2        462             0.0000000000
      1386       462  TIP3      H2             -5.7634966405      -45.3130722861      -31.8200296465  W2        462             0.0000000000
      1387       463  TIP3      OH2            -6.4005366405      -46.9108522861      -34.1214196465  W2        463             0.0000000000
      1388       463  TIP3      H1             -5.6995466405      -46.8881622861      -33.4700196465  W2        463             0.0000000000
      1389       463  TIP3      H2             -6.0982466405      -47.5388822861      -34.7774896465  W2        463             0.0000000000
      1390       464  TIP3      OH2             0.9149333595      -45.9904322861      -22.8664796465  W2        464             0.0000000000
      1391       464  TIP3      H1              0.2623433595      -45.2958722861      -22.7773896465  W2        464             0.0000000000
      1392       464  TIP3      H2              1.3799633595      -45.7803422861      -23.6763196465  W2        464             0.0000000000
      1393       465  TIP3      OH2            -3.0486866405      -45.1589522861      -30.2083296465  W2        465             0.0000000000
      1394       465  TIP3      H1             -3.7805866405      -44.9305822861      -29.6352696465  W2        465             0.0000000000
      1395       465  TIP3      H2             -2.6014666405      -45.8726822861      -29.7535796465  W2        465             0.0000000000
      1396       466  TIP3      OH2            -3.1513366405      -46.9846922861      -21.1406296465  W2        466             0.0000000000
      1397       466  TIP3      H1             -3.0714266405      -46.2212522861      -20.5687796465  W2        466             0.0000000000
      1398       466  TIP3      H2             -3.7525666405      -46.7054522861      -21.8311196465  W2        466             0.0000000000
      1399       467  TIP3      OH2           -11.4033166405      -44.5283322861      -28.3258296465  W2        467             0.0000000000
      1400       467  TIP3      H1            -11.7337966405      -44.8989922861      -29.1441296465  W2        467             0.0000000000
      1401       467  TIP3      H2            -10.8149066405      -45.1989322861      -27.9789996465  W2        467             0.0000000000
      1402       468  TIP3      OH2           -10.0365666405      -41.1002722861      -25.6446096465  W2        468             0.0000000000
      1403       468  TIP3      H1            -10.1314366405      -41.6789622861      -26.4011496465  W2        468             0.0000000000
      1404       468  TIP3      H2             -9.3072066405      -41.4717022861      -25.1483296465  W2        468             0.0000000000
      1405       469  TIP3      OH2           -11.0367666405      -45.7597722861      -24.6923296465  W2        469             0.0000000000
      1406       469  TIP3      H1            -10.4715166405      -45.6383522861      -25.4552096465  W2        469             0.0000000000
      1407       469  TIP3      H2            -10.7178766405      -45.1222722861      -24.0534796465  W2        469             0.0000000000
      1408       470  TIP3      OH2            -4.7275466405      -40.2565822861      -23.9582796465  W2        470             0.0000000000
      1409       470  TIP3      H1             -4.9678866405      -39.5942722861      -23.3103596465  W2        470             0.0000000000
      1410       470  TIP3      H2             -4.9257266405      -41.0910622861      -23.5333196465  W2        470             0.0000000000
      1411       471  TIP3      OH2           -10.1566966405      -41.3605022861      -19.9751396465  W2        471             0.0000000000
      1412       471  TIP3      H1            -10.4679466405      -40.5781822861      -19.5198196465  W2        471             0.0000000000
      1413       471  TIP3      H2            -10.8066766405      -41.5135922861      -20.6609396465  W2        471             0.0000000000
      1414       472  TIP3      OH2            -4.1777366405      -45.9966622861      -32.5232096465  W2        472             0.0000000000
      1415       472  TIP3      H1             -3.5981866405      -45.8466322861      -31.7763196465  W2        472             0.0000000000
      1416       472  TIP3      H2             -3.7637366405      -45.5259222861      -33.2465696465  W2        472             0.0000000000
      1417       473  TIP3      OH2           -13.2367066405      -45.1623922861      -20.7465696465  W2        473             0.0000000000
      1418       473  TIP3      H1            -13.1663866405      -44.5117122861      -20.0480696465  W2        473             0.0000000000
      1419       473  TIP3      H2            -14.1274866405      -45.0596422861      -21.0814796465  W2        473             0.0000000000
      1420       474  TIP3      OH2            -6.4512466405      -39.2598122861      -29.0878996465  W2        474             0.0000000000
      1421       474  TIP3      H1             -5.9774866405      -38.9641822861      -28.3104796465  W2        474             0.0000000000
      1422       474  TIP3      H2             -7.0143166405      -38.5216522861      -29.3209396465  W2        474             0.0000000000
      1423       475  TIP3      OH2           -11.9171066405      -39.2890022861      -19.2117596465  W2        475             0.0000000000
      1424       475  TIP3      H1            -11.9095766405      -39.4250322861      -20.1592096465  W2        475             0.0000000000
      1425       475  TIP3      H2            -12.8330666405      -39.4061922861      -18.9597596465  W2        475             0.0000000000
      1426       476  TIP3      OH2            -0.4788966405      -54.2466222861      -32.7102396465  W2        476             0.0000000000
      1427       476  TIP3      H1             -1.3788266405      -54.1077222861      -32.4151796465  W2        476             0.0000000000
      1428       476  TIP3      H2             -0.2270566405      -53.4151622861      -33.1120696465  W2        476             0.0000000000
      1429       477  TIP3      OH2           -12.4130466405      -45.4589022861      -30.7365496465  W2        477             0.0000000000
      1430       477  TIP3      H1            -12.7049166405      -44.6907322861      -31.2274196465  W2        477             0.0000000000
      1431       477  TIP3      H2            -13.0875266405      -46.1182822861      -30.8994096465  W2        477             0.0000000000
      1432       478  TIP3      OH2             0.7102433595      -39.8803822861      -34.3338496465  W2        478             0.0000000000
      1433       478  TIP3      H1              0.7835933595      -38.9413622861      -34.1633196465  W2        478             0.0000000000
      1434       478  TIP3      H2              1.6157533595      -40.1855222861      -34.3901196465  W2        478             0.0000000000
      1435       479  TIP3      OH2           -16.3200366405      -43.0959822861      -21.9215696465  W2        479             0.0000000000
      1436       479  TIP3      H1            -16.8211966405      -43.1240422861      -22.7365996465  W2        479             0.0000000000
      1437       479  TIP3      H2            -16.3146666405      -44.0016622861      -21.6118396465  W2        479             0.0000000000
      1438       480  TIP3      OH2           -16.5697666405      -40.3156022861      -25.0375496465  W2        480             0.0000000000
      1439       480  TIP3      H1            -15.6237066405      -40.4599022861      -25.0565996465  W2        480             0.0000000000
      1440       480  TIP3      H2            -16.6821366405      -39.5313222861      -24.5004296465  W2        480             0.0000000000
      1441       481  TIP3      OH2             1.6280833595      -39.6496322861      -19.3551796465  W2        481             0.0000000000
      1442       481  TIP3      H1              1.5787633595      -40.6048222861      -19.3924196465  W2        481             0.0000000000
      1443       481  TIP3      H2              0.8013133595      -39.3821022861      -18.9537996465  W2        481             0.0000000000
      1444       482  TIP3      OH2            -7.3935166405      -40.0757122861      -20.4790396465  W2        482             0.0000000000
      1445       482  TIP3      H1             -7.3060566405      -39.2492522861      -20.0041296465  W2        482             0.0000000000
      1446       482  TIP3      H2             -8.2570066405      -40.4053322861      -20.2301096465  W2        482             0.0000000000
      1447       483  TIP3      OH2            -6.9789366405      -36.3033422861      -30.6729796465  W2        483             0.0000000000
      1448       483  TIP3      H1             -7.0543366405      -36.4246222861      -31.6194596465  W2        483             0.0000000000
      1449       483  TIP3      H2             -6.9460666405      -35.3540722861      -30.5545196465  W2        483             0.0000000000
      1450       484  TIP3      OH2           -13.3255566405      -37.5146422861      -28.8920796465  W2        484             0.0000000000
      1451       484  TIP3      H1            -13.1735166405      -37.8626022861      -28.0134296465  W2        484             0.0000000000
      1452       484  TIP3      H2            -14.1765166405      -37.8709122861      -29.1473596465  W2        484             0.0000000000
      1453       485  TIP3      OH2            -3.8773366405      -37.1493222861      -33.6707396465  W2        485             0.0000000000
      1454       485  TIP3      H1             -3.5024966405      -37.8937122861      -34.1414796465  W2        485             0.0000000000
      1455       485  TIP3      H2             -3.8729666405      -37.4192622861      -32.7524096465  W2        485             0.0000000000
      1456       486  TIP3      OH2            -4.2085266405      -37.2236122861      -30.9215196465  W2        486             0.0000000000
      1457       486  TIP3      H1             -5.1435466405      -37.1234222861      -30.7428196465  W2        486             0.0000000000
      1458       486  TIP3      H2             -3.9283366405      -37.9330122861      -30.3431996465  W2        486             0.0000000000
      1459       487  TIP3      OH2            -1.2199366405      -48.1563822861      -18.8749596465  W2        487             0.0000000000
      1460       487  TIP3      H1             -1.6272566405      -47.6758222861      -19.5956296465  W2        487             0.0000000000
      1461       487  TIP3      H2             -1.1793666405      -49.0617822861      -19.1828796465  W2        487             0.0000000000
      1462       488  TIP3      OH2           -14.0709866405      -41.7724422861      -20.8782896465  W2        488             0.0000000000
      1463       488  TIP3      H1            -13.8548566405      -42.1338822861      -20.0187096465  W2        488             0.0000000000
      1464       488  TIP3      H2            -14.9265166405      -42.1470622861      -21.0879396465  W2        488             0.0000000000
      1465       489  TIP3      OH2           -11.4521866405      -53.3023922861      -24.8828696465  W2        489             0.0000000000
      1466       489  TIP3      H1            -12.3138166405      -53.3895722861      -25.2905796465  W2        489             0.0000000000
      1467       489  TIP3      H2            -11.4746166405      -52.4463822861      -24.4551096465  W2        489             0.0000000000
      1468       490  TIP3      OH2            -6.7894066405      -53.5803522861      -21.5081696465  W2        490             0.0000000000
      1469       490  TIP3      H1             -6.3690966405      -53.9956422861      -20.7551096465  W2        490             0.0000000000
      1470       490  TIP3      H2             -7.7224466405      -53.7590222861      -21.3909696465  W2        490             0.0000000000
      1471       491  TIP3      OH2            -3.4629166405      -49.8248322861      -20.6547196465  W2        491             0.0000000000
      1472       491  TIP3      H1             -3.9769666405      -49.9506122861      -19.8571196465  W2        491             0.0000000000
      1473       491  TIP3      H2             -3.6184466405      -48.9125222861      -20.8990996465  W2        491             0.0000000000
      1474       492  TIP3      OH2            -2.7004266405      -44.9638322861      -34.8934196465  W2        492             0.0000000000
      1475       492  TIP3      H1             -2.6583466405      -45.1864422861      -35.8234196465  W2        492             0.0000000000
      1476       492  TIP3      H2             -1.8512166405      -44.5651222861      -34.7034296465  W2        492             0.0000000000
      1477       493  TIP3      OH2            -7.1276766405      -51.0880122861      -34.2230896465  W2        493             0.0000000000
      1478       493  TIP3      H1             -7.3811966405      -51.0688522861      -33.3002796465  W2        493             0.0000000000
      1479       493  TIP3      H2             -7.3844666405      -51.9594722861      -34.5244696465  W2        493             0.0000000000
      1480       494  TIP3      OH2           -11.3611766405      -48.3369422861      -23.7878496465  W2        494             0.0000000000
      1481       494  TIP3      H1            -12.0029666405      -48.3772122861      -23.0788396465  W2        494             0.0000000000
      1482       494  TIP3      H2            -11.3239766405      -47.4104722861      -24.0255496465  W2        494             0.0000000000
      1483       495  TIP3      OH2           -11.3642666405      -48.1159322861      -28.8758496465  W2        495             0.0000000000
      1484       495  TIP3      H1            -12.2569766405      -48.4563222861      -28.9344696465  W2        495             0.0000000000
      1485       495  TIP3      H2            -10.9136066405      -48.4928422861      -29.6315296465  W2        495             0.0000000000
      1486       496  TIP3      OH2            -5.8287166405      -47.6999022861      -30.0587696465  W2        496             0.0000000000
      1487       496  TIP3      H1             -6.2376866405      -46.8850422861      -30.3502896465  W2        496             0.0000000000
      1488       496  TIP3      H2             -5.1080966405      -47.8398922861      -30.6730596465  W2        496             0.0000000000
      1489       497  TIP3      OH2            -6.7265566405      -47.5242622861      -18.5706996465  W2        497             0.0000000000
      1490       497  TIP3      H1             -7.2891766405      -48.2291022861      -18.2499196465  W2        497             0.0000000000
      1491       497  TIP3      H2             -5.9002166405      -47.6450722861      -18.1029396465  W2        497             0.0000000000
      1492       498  TIP3      OH2            -4.8239466405      -48.2538622861      -27.2447996465  W2        498             0.0000000000
      1493       498  TIP3      H1             -5.0194966405      -47.6481822861      -27.9597396465  W2        498             0.0000000000
      1494       498  TIP3      H2             -4.6426866405      -49.0873422861      -27.6791696465  W2        498             0.0000000000
      1495       499  TIP3      OH2           -13.6111266405      -48.0165922861      -21.9206496465  W2        499             0.0000000000
      1496       499  TIP3      H1            -13.6491866405      -47.6164322861      -21.0519396465  W2        499             0.0000000000
      1497       499  TIP3      H2            -14.1020166405      -48.8333522861      -21.8303596465  W2        499             0.0000000000
      1498       500  TIP3      OH2           -10.2453866405      -50.6423622861      -35.1220496465  W2        500             0.0000000000
      1499       500  TIP3      H1            -10.6763166405      -51.0873522861      -34.3923096465  W2        500             0.0000000000
      1500       500  TIP3      H2            -10.9635166405      -50.2707322861      -35.6342996465  W2        500             0.0000000000
      1501       501  TIP3      OH2           -17.0030466405      -50.9004122861      -28.0701796465  W2        501             0.0000000000
      1502       501  TIP3      H1            -16.3722766405      -50.9292022861      -27.3507896465  W2        501             0.0000000000
      1503       501  TIP3      H2            -16.5536166405      -51.3255422861      -28.8005896465  W2        501             0.0000000000
      1504       502  TIP3      OH2           -15.7288366405      -50.1542122861      -32.6461396465  W2        502             0.0000000000
      1505       502  TIP3      H1            -15.2546666405      -49.5632222861      -33.2310496465  W2        502             0.0000000000
      1506       502  TIP3      H2            -16.4461966405      -49.6239222861      -32.2991296465  W2        502             0.0000000000
      1507       503  TIP3      OH2            -5.5600266405      -46.6157322861      -22.5735596465  W2        503             0.0000000000
      1508       503  TIP3      H1             -5.2365466405      -47.2467622861      -23.2165096465  W2        503             0.0000000000
      1509       503  TIP3      H2             -6.0000966405      -47.1505122861      -21.9128196465  W2        503             0.0000000000
      1510       504  TIP3      OH2            -8.7827366405      -50.6881822861      -27.7894396465  W2        504             0.0000000000
      1511       504  TIP3      H1             -9.6936266405      -50.6315022861      -27.5008396465  W2        504             0.0000000000
      1512       504  TIP3      H2             -8.2774466405      -50.7486322861      -26.9787196465  W2        504             0.0000000000
      1513       505  TIP3      OH2           -13.9543966405      -49.0595522861      -28.9626796465  W2        505             0.0000000000
      1514       505  TIP3      H1            -14.8435966405      -48.9600022861      -29.3027196465  W2        505             0.0000000000
      1515       505  TIP3      H2            -13.6579066405      -49.9012522861      -29.3088896465  W2        505             0.0000000000
      1516       506  TIP3      OH2           -10.3012166405      -49.0592922861      -31.3062196465  W2        506             0.0000000000
      1517       506  TIP3      H1             -9.3696666405      -48.9302922861      -31.1279096465  W2        506             0.0000000000
      1518       506  TIP3      H2            -10.5161866405      -48.3898622861      -31.9557496465  W2        506             0.0000000000
      1519       507  TIP3      OH2            -4.3775466405      -51.4535522861      -24.5252596465  W2        507             0.0000000000
      1520       507  TIP3      H1             -5.0543866405      -51.3222422861      -23.8612896465  W2        507             0.0000000000
      1521       507  TIP3      H2             -4.8630566405      -51.6086022861      -25.3354896465  W2        507             0.0000000000
      1522       508  TIP3      OH2           -11.6271966405      -47.8650722861      -33.7396096465  W2        508             0.0000000000
      1523       508  TIP3      H1            -12.1696866405      -48.2446922861      -34.4308496465  W2        508             0.0000000000
      1524       508  TIP3      H2            -10.7937066405      -47.6706022861      -34.1681996465  W2        508             0.0000000000
      1525       509  TIP3      OH2            -1.0900366405      -35.7820122861      -18.2484996465  W2        509             0.0000000000
      1526       509  TIP3      H1             -0.8901666405      -35.3578222861      -19.0829696465  W2        509             0.0000000000
      1527       509  TIP3      H2             -0.4346666405      -35.4381922861      -17.6414596465  W2        509             0.0000000000
      1528       510  TIP3      OH2           -13.4920566405      -43.3078822861      -18.6404496465  W2        510             0.0000000000
      1529       510  TIP3      H1            -12.7598166405      -43.0532922861      -18.0789996465  W2        510             0.0000000000
      1530       510  TIP3      H2            -14.2721866405      -43.1033422861      -18.1249096465  W2        510             0.0000000000
      1531       511  TIP3      OH2            -7.4627666405      -47.9008822861      -25.9024796465  W2        511             0.0000000000
      1532       511  TIP3      H1             -6.8984266405      -48.4472222861      -26.4495196465  W2        511             0.0000000000
      1533       511  TIP3      H2             -7.6104266405      -48.4226922861      -25.1137196465  W2        511             0.0000000000
      1534       512  TIP3      OH2           -12.4607966405      -51.7642722861      -29.4839996465  W2        512             0.0000000000
      1535       512  TIP3      H1            -12.7778466405      -52.6667422861      -29.5194596465  W2        512             0.0000000000
      1536       512  TIP3      H2            -11.6793866405      -51.7625322861      -30.0368396465  W2        512             0.0000000000
      1537       513  TIP3      OH2            -8.8361766405      -49.5122722861      -23.4884396465  W2        513             0.0000000000
      1538       513  TIP3      H1             -9.6716466405      -49.0583222861      -23.3781996465  W2        513             0.0000000000
      1539       513  TIP3      H2             -8.3121166405      -49.2364222861      -22.7364496465  W2        513             0.0000000000
      1540       514  TIP3      OH2            -8.2919166405      -43.2995022861      -31.8037996465  W2        514             0.0000000000
      1541       514  TIP3      H1             -9.0368166405      -43.8069722861      -32.1260096465  W2        514             0.0000000000
      1542       514  TIP3      H2             -8.4261966405      -43.2507022861      -30.8573196465  W2        514             0.0000000000
      1543       515  TIP3      OH2            -1.1420266405      -44.1666822861      -23.0170396465  W2        515             0.0000000000
      1544       515  TIP3      H1             -0.5001466405      -43.7100522861      -23.5608196465  W2        515             0.0000000000
      1545       515  TIP3      H2             -1.9723366405      -44.0534422861      -23.4796296465  W2        515             0.0000000000
      1546       516  TIP3      OH2            -4.3942366405      -50.4855122861      -33.6045396465  W2        516             0.0000000000
      1547       516  TIP3      H1             -5.3328166405      -50.3739522861      -33.7556596465  W2        516             0.0000000000
      1548       516  TIP3      H2             -4.0970266405      -49.6288222861      -33.2979696465  W2        516             0.0000000000
      1549       517  TIP3      OH2            -6.7727066405      -43.1151722861      -20.5668896465  W2        517             0.0000000000
      1550       517  TIP3      H1             -7.1180966405      -43.4969322861      -19.7599296465  W2        517             0.0000000000
      1551       517  TIP3      H2             -6.9726966405      -42.1818122861      -20.4955996465  W2        517             0.0000000000
      1552       518  TIP3      OH2            -3.6758866405      -48.6182422861      -31.9437996465  W2        518             0.0000000000
      1553       518  TIP3      H1             -2.7839866405      -48.7557422861      -31.6246796465  W2        518             0.0000000000
      1554       518  TIP3      H2             -3.6195266405      -47.8276322861      -32.4804496465  W2        518             0.0000000000
      1555       519  TIP3      OH2           -13.1670866405      -44.0045022861      -26.0340096465  W2        519             0.0000000000
      1556       519  TIP3      H1            -12.4223666405      -44.0069322861      -26.6353596465  W2        519             0.0000000000
      1557       519  TIP3      H2            -13.0894266405      -44.8281222861      -25.5524996465  W2        519             0.0000000000
      1558       520  TIP3      OH2            -6.1665066405      -41.8410722861      -32.7783396465  W2        520             0.0000000000
      1559       520  TIP3      H1             -6.4616666405      -41.0142822861      -32.3968596465  W2        520             0.0000000000
      1560       520  TIP3      H2             -6.8695066405      -42.4603822861      -32.5821996465  W2        520             0.0000000000
      1561       521  TIP3      OH2           -16.1591166405      -45.5438122861      -20.7191596465  W2        521             0.0000000000
      1562       521  TIP3      H1            -15.9362566405      -45.9618522861      -19.8874096465  W2        521             0.0000000000
      1563       521  TIP3      H2            -16.7611066405      -46.1563122861      -21.1418796465  W2        521             0.0000000000
      1564       522  TIP3      OH2            -9.1426266405      -46.0268222861      -18.5061896465  W2        522             0.0000000000
      1565       522  TIP3      H1             -9.4385466405      -46.1925222861      -19.4012796465  W2        522             0.0000000000
      1566       522  TIP3      H2             -8.2111066405      -46.2467922861      -18.5167996465  W2        522             0.0000000000
      1567       523  TIP3      OH2            -4.5223466405      -40.6536222861      -20.6163896465  W2        523             0.0000000000
      1568       523  TIP3      H1             -5.4229166405      -40.4703622861      -20.8839996465  W2        523             0.0000000000
      1569       523  TIP3      H2             -4.4882366405      -40.3946922861      -19.6955096465  W2        523             0.0000000000
      1570       524  TIP3      OH2             1.2089833595      -48.4088322861      -32.2491296465  W2        524             0.0000000000
      1571       524  TIP3      H1              0.6546133595      -48.8050322861      -32.9213796465  W2        524             0.0000000000
      1572       524  TIP3      H2              1.3093433595      -47.4983122861      -32.5267996465  W2        524             0.0000000000
      1573       525  TIP3      OH2             1.1721833595      -42.6086622861      -19.4119796465  W2        525             0.0000000000
      1574       525  TIP3      H1              0.3210333595      -42.3702822861      -19.7793396465  W2        525             0.0000000000
      1575       525  TIP3      H2              1.7625233595      -42.6253422861      -20.1652696465  W2        525             0.0000000000
      1576       526  TIP3      OH2            -0.4958466405      -39.6227922861      -31.7839196465  W2        526             0.0000000000
      1577       526  TIP3      H1             -0.8687366405      -40.4484122861      -31.4748596465  W2        526             0.0000000000
      1578       526  TIP3      H2             -0.2184966405      -39.8058522861      -32.6815796465  W2        526             0.0000000000
      1579       527  TIP3      OH2            -3.3354566405      -44.8148422861      -24.7627296465  W2        527             0.0000000000
      1580       527  TIP3      H1             -4.2637666405      -45.0466522861      -24.7897996465  W2        527             0.0000000000
      1581       527  TIP3      H2             -2.8843466405      -45.5918622861      -25.0928496465  W2        527             0.0000000000
      1582       528  TIP3      OH2           -10.7921466405      -40.4866822861      -28.6298596465  W2        528             0.0000000000
      1583       528  TIP3      H1            -10.2649266405      -39.7132422861      -28.8299796465  W2        528             0.0000000000
      1584       528  TIP3      H2            -11.6722966405      -40.2617622861      -28.9314596465  W2        528             0.0000000000
      1585       529  TIP3      OH2           -15.0373766405      -45.6242722861      -34.0426196465  W2        529             0.0000000000
      1586       529  TIP3      H1            -14.4213866405      -44.9975522861      -33.6631396465  W2        529             0.0000000000
      1587       529  TIP3      H2            -15.8991166405      -45.3082922861      -33.7709696465  W2        529             0.0000000000
      1588       530  TIP3      OH2            -9.3649166405      -42.8236922861      -29.0534296465  W2        530             0.0000000000
      1589       530  TIP3      H1             -9.6059166405      -41.8982522861      -29.0118996465  W2        530             0.0000000000
      1590       530  TIP3      H2            -10.1055566405      -43.2825622861      -28.6570396465  W2        530             0.0000000000
      1591       531  TIP3      OH2            -8.8502566405      -38.6743322861      -22.7383196465  W2        531             0.0000000000
      1592       531  TIP3      H1             -8.4877866405      -37.8197722861      -22.9718796465  W2        531             0.0000000000
      1593       531  TIP3      H2             -8.3187366405      -38.9661722861      -21.9976896465  W2        531             0.0000000000
      1594       532  TIP3      OH2           -10.6818366405      -37.8019322861      -29.5082096465  W2        532             0.0000000000
      1595       532  TIP3      H1            -11.6317866405      -37.6961922861      -29.4568796465  W2        532             0.0000000000
      1596       532  TIP3      H2            -10.3300266405      -36.9811922861      -29.1634596465  W2        532             0.0000000000
      1597       533  TIP3      OH2            -5.3061766405      -42.5752622861      -23.0377596465  W2        533             0.0000000000
      1598       533  TIP3      H1             -5.7320466405      -42.8030922861      -22.2113596465  W2        533             0.0000000000
      1599       533  TIP3      H2             -4.7255966405      -43.3140822861      -23.2202296465  W2        533             0.0000000000
      1600       534  TIP3      OH2            -3.1032866405      -41.6462122861      -33.9638596465  W2        534             0.0000000000
      1601       534  TIP3      H1             -2.7499766405      -42.0262322861      -33.1595096465  W2        534             0.0000000000
      1602       534  TIP3      H2             -4.0519366405      -41.7397322861      -33.8769296465  W2        534             0.0000000000
      1603       535  TIP3      OH2            -2.6477566405      -38.0233122861      -20.5682796465  W2        535             0.0000000000
      1604       535  TIP3      H1             -3.2494366405      -38.5790222861      -21.0636496465  W2        535             0.0000000000
      1605       535  TIP3      H2             -2.3663866405      -37.3563322861      -21.1945396465  W2        535             0.0000000000
      1606       536  TIP3      OH2             1.4001533595      -37.1669622861      -33.7628396465  W2        536             0.0000000000
      1607       536  TIP3      H1              2.1439433595      -36.5809122861      -33.9026796465  W2        536             0.0000000000
      1608       536  TIP3      H2              0.7059633595      -36.5983822861      -33.4295996465  W2        536             0.0000000000
      1609       537  TIP3      OH2           -14.5251666405      -50.7905422861      -21.1610196465  W2        537             0.0000000000
      1610       537  TIP3      H1            -15.4179366405      -50.4520022861      -21.2286196465  W2        537             0.0000000000
      1611       537  TIP3      H2            -14.6238866405      -51.6459322861      -20.7429396465  W2        537             0.0000000000
      1612       538  TIP3      OH2            -2.2373566405      -42.9740122861      -31.7370696465  W2        538             0.0000000000
      1613       538  TIP3      H1             -2.5145966405      -43.7020822861      -31.1809596465  W2        538             0.0000000000
      1614       538  TIP3      H2             -1.3100566405      -42.8548122861      -31.5318096465  W2        538             0.0000000000
      1615       539  TIP3      OH2           -14.8739666405      -38.9861022861      -22.7260796465  W2        539             0.0000000000
      1616       539  TIP3      H1            -14.6569366405      -39.9178622861      -22.7571096465  W2        539             0.0000000000
      1617       539  TIP3      H2            -14.6276166405      -38.7116022861      -21.8427996465  W2        539             0.0000000000
      1618       540  TIP3      OH2            -9.0125066405      -40.5346022861      -35.5168596465  W2        540             0.0000000000
      1619       540  TIP3      H1             -8.7735266405      -41.2827922861      -36.0639696465  W2        540             0.0000000000
      1620       540  TIP3      H2             -9.2813766405      -40.9224322861      -34.6840796465  W2        540             0.0000000000
      1621       541  TIP3      OH2           -10.0754466405      -40.9642222861      -33.0605996465  W2        541             0.0000000000
      1622       541  TIP3      H1             -9.9286466405      -41.4842422861      -32.2705096465  W2        541             0.0000000000
      1623       541  TIP3      H2            -10.0782766405      -40.0574622861      -32.7540096465  W2        541             0.0000000000
      1624       542  TIP3      OH2           -13.6223366405      -43.7118922861      -32.5500596465  W2        542             0.0000000000
      1625       542  TIP3      H1            -14.3084066405      -43.3596422861      -31.9830896465  W2        542             0.0000000000
      1626       542  TIP3      H2            -13.0995466405      -42.9489322861      -32.7966296465  W2        542             0.0000000000
      1627       543  TIP3      OH2            -5.7908266405      -51.0495122861      -22.2711596465  W2        543             0.0000000000
      1628       543  TIP3      H1             -5.0920366405      -50.9756422861      -21.6211896465  W2        543             0.0000000000
      1629       543  TIP3      H2             -6.1716866405      -51.9140122861      -22.1168696465  W2        543             0.0000000000
      1630       544  TIP3      OH2            -5.0063366405      -51.3973422861      -31.1739296465  W2        544             0.0000000000
      1631       544  TIP3      H1             -4.7865066405      -50.9258022861      -31.9773896465  W2        544             0.0000000000
      1632       544  TIP3      H2             -4.4479366405      -51.0030822861      -30.5038696465  W2        544             0.0000000000
      1633       545  TIP3      OH2            -7.3377266405      -39.2668622861      -32.3111796465  W2        545             0.0000000000
      1634       545  TIP3      H1             -8.1541166405      -38.7698922861      -32.2587496465  W2        545             0.0000000000
      1635       545  TIP3      H2             -6.8080966405      -38.7915122861      -32.9512996465  W2        545             0.0000000000
      1636       546  TIP3      OH2            -7.8063466405      -49.6694622861      -30.3390896465  W2        546             0.0000000000
      1637       546  TIP3      H1             -6.9940866405      -49.1651422861      -30.2929196465  W2        546             0.0000000000
      1638       546  TIP3      H2             -8.0510466405      -49.8144922861      -29.4251296465  W2        546             0.0000000000
      1639       547  TIP3      OH2            -7.2707066405      -48.6831922861      -21.1544296465  W2        547             0.0000000000
      1640       547  TIP3      H1             -7.1516766405      -48.1096522861      -20.3973896465  W2        547             0.0000000000
      1641       547  TIP3      H2             -6.6152466405      -49.3712522861      -21.0396496465  W2        547             0.0000000000
      1642       548  TIP3      OH2            -6.9226766405      -52.5881622861      -29.4009796465  W2        548             0.0000000000
      1643       548  TIP3      H1             -7.2693266405      -51.9711022861      -28.7565496465  W2        548             0.0000000000
      1644       548  TIP3      H2             -6.2639866405      -52.0875922861      -29.8824296465  W2        548             0.0000000000
      1645       549  TIP3      OH2            -9.9994166405      -38.2231422861      -32.3294896465  W2        549             0.0000000000
      1646       549  TIP3      H1             -9.8385466405      -37.4233922861      -32.8302296465  W2        549             0.0000000000
      1647       549  TIP3      H2            -10.1966366405      -37.9165422861      -31.4444296465  W2        549             0.0000000000
      1648       550  TIP3      OH2           -11.2649766405      -51.5252222861      -32.7137296465  W2        550             0.0000000000
      1649       550  TIP3      H1            -11.3484966405      -50.6369122861      -32.3670896465  W2        550             0.0000000000
      1650       550  TIP3      H2            -10.3749466405      -51.7905522861      -32.4820496465  W2        550             0.0000000000
      1651       551  TIP3      OH2            -1.0661266405      -50.7761622861      -20.3194596465  W2        551             0.0000000000
      1652       551  TIP3      H1             -1.9825466405      -50.5139922861      -20.4070896465  W2        551             0.0000000000
      1653       551  TIP3      H2             -0.7306266405      -50.7792622861      -21.2159296465  W2        551             0.0000000000
      1654       552  TIP3      OH2            -2.4640266405      -47.0260622861      -26.2237296465  W2        552             0.0000000000
      1655       552  TIP3      H1             -3.2615866405      -47.4410422861      -26.5522296465  W2        552             0.0000000000
      1656       552  TIP3      H2             -2.0189166405      -47.7166922861      -25.7326796465  W2        552             0.0000000000
      1657       553  TIP3      OH2           -13.0064466405      -41.0980022861      -33.6532796465  W2        553             0.0000000000
      1658       553  TIP3      H1            -12.4142966405      -40.3985222861      -33.3770396465  W2        553             0.0000000000
      1659       553  TIP3      H2            -12.5471466405      -41.5310522861      -34.3728196465  W2        553             0.0000000000
      1660       554  TIP3      OH2           -14.6905266405      -48.4337022861      -34.5373396465  W2        554             0.0000000000
      1661       554  TIP3      H1            -14.7352666405      -47.4943922861      -34.3586396465  W2        554             0.0000000000
      1662       554  TIP3      H2            -15.5782066405      -48.6692122861      -34.8071296465  W2        554             0.0000000000
      1663       555  TIP3      OH2            -1.3775666405      -37.7698122861      -24.6013796465  W2        555             0.0000000000
      1664       555  TIP3      H1             -1.5331366405      -37.0913722861      -25.2584496465  W2        555             0.0000000000
      1665       555  TIP3      H2             -0.4449266405      -37.6978822861      -24.3983196465  W2        555             0.0000000000
      1666       556  TIP3      OH2           -13.8823266405      -53.6520422861      -25.8642396465  W2        556             0.0000000000
      1667       556  TIP3      H1            -14.1113466405      -53.5927922861      -26.7917396465  W2        556             0.0000000000
      1668       556  TIP3      H2            -14.3249866405      -54.4434922861      -25.5578296465  W2        556             0.0000000000
      1669       557  TIP3      OH2           -14.9519966405      -39.7113322861      -29.7036596465  W2        557             0.0000000000
      1670       557  TIP3      H1            -15.7841366405      -39.2390622861      -29.6765196465  W2        557             0.0000000000
      1671       557  TIP3      H2            -14.4061666405      -39.2015722861      -30.3023496465  W2        557             0.0000000000
      1672       558  TIP3      OH2           -15.6636266405      -37.0989622861      -18.3738596465  W2        558             0.0000000000
      1673       558  TIP3      H1            -15.1234066405      -37.3155622861      -17.6139396465  W2        558             0.0000000000
      1674       558  TIP3      H2            -16.1448266405      -37.9043622861      -18.5636096465  W2        558             0.0000000000
      1675       559  TIP3      OH2           -11.0662866405      -38.1795222861      -16.7534396465  W2        559             0.0000000000
      1676       559  TIP3      H1            -10.2985666405      -38.6384422861      -16.4125196465  W2        559             0.0000000000
      1677       559  TIP3      H2            -11.0876666405      -38.4055422861      -17.6833196465  W2        559             0.0000000000
      1678       560  TIP3      OH2            -6.9743266405      -38.6714622861      -35.3782596465  W2        560             0.0000000000
      1679       560  TIP3      H1             -7.6182266405      -39.3026022861      -35.0568896465  W2        560             0.0000000000
      1680       560  TIP3      H2             -6.2124966405      -39.2026622861      -35.6099096465  W2        560             0.0000000000
      1681       561  TIP3      OH2            -4.4894166405      -39.7994122861      -18.0242896465  W2        561             0.0000000000
      1682       561  TIP3      H1             -4.8404666405      -40.6561122861      -17.7812496465  W2        561             0.0000000000
      1683       561  TIP3      H2             -3.7630966405      -39.6567422861      -17.4173896465  W2        561             0.0000000000
      1684       562  TIP3      OH2            -2.3700366405      -38.8544722861      -35.1444596465  W2        562             0.0000000000
      1685       562  TIP3      H1             -2.0869966405      -39.6489522861      -34.6917696465  W2        562             0.0000000000
      1686       562  TIP3      H2             -1.6302466405      -38.6213722861      -35.7053496465  W2        562             0.0000000000
      1687       563  TIP3      OH2           -15.7566766405      -43.2885522861      -17.4194296465  W2        563             0.0000000000
      1688       563  TIP3      H1            -15.6126266405      -44.1904822861      -17.7057596465  W2        563             0.0000000000
      1689       563  TIP3      H2            -16.5289366405      -43.0023422861      -17.9071996465  W2        563             0.0000000000
      1690       564  TIP3      OH2           -11.4153066405      -42.9449822861      -35.2869696465  W2        564             0.0000000000
      1691       564  TIP3      H1            -11.3508966405      -43.7390222861      -34.7563296465  W2        564             0.0000000000
      1692       564  TIP3      H2            -10.7623866405      -43.0637022861      -35.9767696465  W2        564             0.0000000000
      1693       565  TIP3      OH2            -9.1010666405      -43.3187422861      -17.9867896465  W2        565             0.0000000000
      1694       565  TIP3      H1             -9.4296866405      -43.0479322861      -18.8440496465  W2        565             0.0000000000
      1695       565  TIP3      H2             -8.9492466405      -44.2597622861      -18.0742896465  W2        565             0.0000000000
      1696       566  TIP3      OH2            -6.0629666405      -41.8978122861      -35.5511696465  W2        566             0.0000000000
      1697       566  TIP3      H1             -6.3315566405      -41.7176022861      -34.6502796465  W2        566             0.0000000000
      1698       566  TIP3      H2             -6.2694066405      -42.8231922861      -35.6825896465  W2        566             0.0000000000
      1699       567  TIP3      OH2            -3.3665466405      -43.4030122861      -20.6035596465  W2        567             0.0000000000
      1700       567  TIP3      H1             -2.6210666405      -42.8146422861      -20.7231596465  W2        567             0.0000000000
      1701       567  TIP3      H2             -4.1238666405      -42.8210422861      -20.5402496465  W2        567             0.0000000000
      1702       568  TIP3      OH2           -14.9240266405      -46.0882222861      -17.9994996465  W2        568             0.0000000000
      1703       568  TIP3      H1            -14.5159066405      -46.9455622861      -18.1204396465  W2        568             0.0000000000
      1704       568  TIP3      H2            -15.1842666405      -46.0740922861      -17.0784696465  W2        568             0.0000000000
      1705       569  TIP3      OH2           -10.2659266405      -44.9723622861      -32.9811696465  W2        569             0.0000000000
      1706       569  TIP3      H1            -10.7257266405      -45.4565322861      -32.2953196465  W2        569             0.0000000000
      1707       569  TIP3      H2            -10.0110566405      -45.6408222861      -33.6171196465  W2        569             0.0000000000
      1708       570  TIP3      OH2           -10.9769966405      -47.0796522861      -20.6252096465  W2        570             0.0000000000
      1709       570  TIP3      H1            -11.5953866405      -46.4049922861      -20.3447396465  W2        570             0.0000000000
      1710       570  TIP3      H2            -10.6328766405      -46.7582622861      -21.4585896465  W2        570             0.0000000000
      1711       571  TIP3      OH2            -9.1948866405      -46.7291822861      -34.7188496465  W2        571             0.0000000000
      1712       571  TIP3      H1             -9.3753866405      -46.8840622861      -35.6460196465  W2        571             0.0000000000
      1713       571  TIP3      H2             -8.2448366405      -46.6213122861      -34.6740596465  W2        571             0.0000000000
      1714       572  TIP3      OH2            -5.9571766405      -44.6081222861      -17.3477296465  W2        572             0.0000000000
      1715       572  TIP3      H1             -5.0040566405      -44.5242122861      -17.3751296465  W2        572             0.0000000000
      1716       572  TIP3      H2             -6.1177166405      -45.3199422861      -16.7282396465  W2        572             0.0000000000
      1717       573  TIP3      OH2             0.1949433595      -44.3747622861      -35.2730396465  W2        573             0.0000000000
      1718       573  TIP3      H1             -0.0785766405      -44.7992122861      -36.0862096465  W2        573             0.0000000000
      1719       573  TIP3      H2              0.2343533595      -43.4433122861      -35.4899996465  W2        573             0.0000000000
      1720       574  TIP3      OH2           -10.6376266405      -49.7245722861      -19.5428996465  W2        574             0.0000000000
      1721       574  TIP3      H1            -10.4875366405      -50.4534422861      -20.1449296465  W2        574             0.0000000000
      1722       574  TIP3      H2            -10.6353866405      -48.9474022861      -20.1016796465  W2        574             0.0000000000
      1723       575  TIP3      OH2           -10.2250566405      -51.3549922861      -22.0501596465  W2        575             0.0000000000
      1724       575  TIP3      H1             -9.6893066405      -50.9033222861      -22.7022296465  W2        575             0.0000000000
      1725       575  TIP3      H2            -11.0770966405      -51.4630122861      -22.4727496465  W2        575             0.0000000000
      1726       576  TIP3      OH2            -8.6432166405      -45.9153722861      -21.8106396465  W2        576             0.0000000000
      1727       576  TIP3      H1             -7.8927366405      -46.0716222861      -22.3838596465  W2        576             0.0000000000
      1728       576  TIP3      H2             -8.9823866405      -45.0637122861      -22.0860896465  W2        576             0.0000000000
      1729       577  TIP3      OH2            -4.2275966405      -48.1001922861      -16.7821096465  W2        577             0.0000000000
      1730       577  TIP3      H1             -4.0354666405      -49.0312522861      -16.8936596465  W2        577             0.0000000000
      1731       577  TIP3      H2             -3.3699666405      -47.6752422861      -16.7925696465  W2        577             0.0000000000
      1732       578  TIP3      OH2            -2.9108766405      -45.3116722861      -18.7048396465  W2        578             0.0000000000
      1733       578  TIP3      H1             -3.1923766405      -44.6022122861      -19.2824596465  W2        578             0.0000000000
      1734       578  TIP3      H2             -1.9684466405      -45.3843722861      -18.8557196465  W2        578             0.0000000000
      1735       579  TIP3      OH2           -12.1589966405      -48.5262222861      -17.6313396465  W2        579             0.0000000000
      1736       579  TIP3      H1            -12.9260966405      -49.0587422861      -17.8415796465  W2        579             0.0000000000
      1737       579  TIP3      H2            -11.4800966405      -48.8361822861      -18.2307096465  W2        579             0.0000000000
      1738       580  TIP3      OH2            -9.4195066405      -53.8984222861      -21.6187996465  W2        580             0.0000000000
      1739       580  TIP3      H1             -9.5175466405      -52.9521022861      -21.7241796465  W2        580             0.0000000000
      1740       580  TIP3      H2            -10.1618866405      -54.2710422861      -22.0944496465  W2        580             0.0000000000
      1741       581  TIP3      OH2            -8.1554566405      -49.5768822861      -18.0549596465  W2        581             0.0000000000
      1742       581  TIP3      H1             -8.3909166405      -49.7962122861      -17.1534696465  W2        581             0.0000000000
      1743       581  TIP3      H2             -8.9387666405      -49.7837622861      -18.5647096465  W2        581             0.0000000000
      1744       582  TIP3      OH2            -5.4397966405      -50.4495322861      -18.9796096465  W2        582             0.0000000000
      1745       582  TIP3      H1             -6.3872566405      -50.4175622861      -18.8472796465  W2        582             0.0000000000
      1746       582  TIP3      H2             -5.1271266405      -51.0748222861      -18.3257896465  W2        582             0.0000000000
      1747       583  TIP3      OH2            -3.8056466405      -51.8154222861      -16.9744196465  W2        583             0.0000000000
      1748       583  TIP3      H1             -3.9024666405      -52.7676922861      -16.9802296465  W2        583             0.0000000000
      1749       583  TIP3      H2             -4.1273366405      -51.5467422861      -16.1138696465  W2        583             0.0000000000
      1750       584  TIP3      OH2           -13.9787166405      -50.6058422861      -17.9268696465  W2        584             0.0000000000
      1751       584  TIP3      H1            -13.7669766405      -51.3122322861      -18.5371196465  W2        584             0.0000000000
      1752       584  TIP3      H2            -14.0899666405      -51.0432422861      -17.0827496465  W2        584             0.0000000000
      1753       585  TIP3      OH2            -9.1976966405      -54.6046822861      -18.9475196465  W2        585             0.0000000000
      1754       585  TIP3      H1             -8.4858566405      -55.2444622861      -18.9616096465  W2        585             0.0000000000
      1755       585  TIP3      H2             -9.2986566405      -54.3378522861      -19.8612096465  W2        585             0.0000000000
      1756       586  TIP3      OH2            -8.8439466405      -52.9218422861      -16.8938896465  W2        586             0.0000000000
      1757       586  TIP3      H1             -8.9757266405      -53.3974622861      -17.7140396465  W2        586             0.0000000000
      1758       586  TIP3      H2             -9.4432066405      -52.1774822861      -16.9491796465  W2        586             0.0000000000
      1759       587  TIP3      OH2            -9.2977166405      -36.0388122861      -33.7174896465  W2        587             0.0000000000
      1760       587  TIP3      H1             -8.3646466405      -35.8809422861      -33.5736496465  W2        587             0.0000000000
      1761       587  TIP3      H2             -9.5618366405      -35.3635122861      -34.3423396465  W2        587             0.0000000000
      1762       588  TIP3      OH2           -15.7292266405      -41.4024322861      -34.2346796465  W2        588             0.0000000000
      1763       588  TIP3      H1            -14.8153066405      -41.3235422861      -33.9612896465  W2        588             0.0000000000
      1764       588  TIP3      H2            -15.7219166405      -42.0894722861      -34.9011196465  W2        588             0.0000000000
      1765       589  TIP3      OH2           -17.0801666405      -36.0095822861      -29.1572896465  W2        589             0.0000000000
      1766       589  TIP3      H1            -17.7274566405      -36.4714122861      -29.6901696465  W2        589             0.0000000000
      1767       589  TIP3      H2            -16.7257066405      -36.6812522861      -28.5746696465  W2        589             0.0000000000
      1768       590  TIP3      OH2           -16.2102466405      -37.9288822861      -27.3526696465  W2        590             0.0000000000
      1769       590  TIP3      H1            -16.5445666405      -38.8091522861      -27.1806496465  W2        590             0.0000000000
      1770       590  TIP3      H2            -15.9880066405      -37.5833822861      -26.4881096465  W2        590             0.0000000000
      1771       591  TIP3      OH2             1.3382333595      -37.1192422861      -24.3721896465  W2        591             0.0000000000
      1772       591  TIP3      H1              1.3169033595      -36.9344022861      -23.4332496465  W2        591             0.0000000000
      1773       591  TIP3      H2              2.0288533595      -36.5508422861      -24.7130496465  W2        591             0.0000000000
      1774       592  TIP3      OH2             0.9015233595      -37.5521322861      -21.4502796465  W2        592             0.0000000000
      1775       592  TIP3      H1              0.4143933595      -38.2877222861      -21.8215396465  W2        592             0.0000000000
      1776       592  TIP3      H2              1.4507933595      -37.9457422861      -20.7723396465  W2        592             0.0000000000
      1777       593  TIP3      OH2            -0.6477466405      -41.7623222861      -16.8122496465  W2        593             0.0000000000
      1778       593  TIP3      H1             -1.5136366405      -41.8673522861      -16.4180196465  W2        593             0.0000000000
      1779       593  TIP3      H2             -0.2711566405      -41.0039922861      -16.3657796465  W2        593             0.0000000000
      1780       594  TIP3      OH2             0.6532233595      -43.5059522861      -31.2979996465  W2        594             0.0000000000
      1781       594  TIP3      H1              1.5033633595      -43.0848622861      -31.1708396465  W2        594             0.0000000000
      1782       594  TIP3      H2              0.6587333595      -44.2459422861      -30.6908596465  W2        594             0.0000000000
      1783       595  TIP3      OH2             1.0477833595      -45.4522122861      -29.4744296465  W2        595             0.0000000000
      1784       595  TIP3      H1              0.3212433595      -45.9319522861      -29.0766696465  W2        595             0.0000000000
      1785       595  TIP3      H2              1.6291133595      -45.2467422861      -28.7422696465  W2        595             0.0000000000
      1786       596  TIP3      OH2             0.8069033595      -42.6674622861      -24.5266696465  W2        596             0.0000000000
      1787       596  TIP3      H1              1.6403233595      -43.0454622861      -24.8073096465  W2        596             0.0000000000
      1788       596  TIP3      H2              0.9189333595      -41.7243422861      -24.6457596465  W2        596             0.0000000000
      1789       597  TIP3      OH2            -0.7068666405      -39.7897122861      -22.2198296465  W2        597             0.0000000000
      1790       597  TIP3      H1             -1.3543366405      -39.4645622861      -21.5943096465  W2        597             0.0000000000
      1791       597  TIP3      H2             -1.2244666405      -40.2299422861      -22.8939996465  W2        597             0.0000000000
      1792       598  TIP3      OH2             1.3160933595      -45.5513622861      -33.0832996465  W2        598             0.0000000000
      1793       598  TIP3      H1              0.7942033595      -45.1949522861      -33.8022096465  W2        598             0.0000000000
      1794       598  TIP3      H2              1.2830133595      -44.8765822861      -32.4052096465  W2        598             0.0000000000
      1795       599  TIP3      OH2            -0.3350066405      -48.3118022861      -34.5325896465  W2        599             0.0000000000
      1796       599  TIP3      H1             -0.2385666405      -47.6451022861      -35.2126196465  W2        599             0.0000000000
      1797       599  TIP3      H2             -0.4750466405      -49.1271722861      -35.0140396465  W2        599             0.0000000000
      1798       600  TIP3      OH2            -1.1655366405      -46.9315622861      -28.9115596465  W2        600             0.0000000000
      1799       600  TIP3      H1             -1.3156566405      -47.8767022861      -28.9317796465  W2        600             0.0000000000
      1800       600  TIP3      H2             -1.5190866405      -46.6504222861      -28.0676496465  W2        600             0.0000000000
      1801       601  TIP3      OH2           -16.1302966405      -44.8533422861      -24.9011796465  W2        601             0.0000000000
      1802       601  TIP3      H1            -15.9460066405      -44.9351722861      -25.8368896465  W2        601             0.0000000000
      1803       601  TIP3      H2            -15.2810066405      -44.9776422861      -24.4775396465  W2        601             0.0000000000
      1804       602  TIP3      OH2            -0.3092466405      -44.9612322861      -19.2727296465  W2        602             0.0000000000
      1805       602  TIP3      H1              0.2734833595      -45.6960022861      -19.0810096465  W2        602             0.0000000000
      1806       602  TIP3      H2              0.2546833595      -44.1892022861      -19.2261496465  W2        602             0.0000000000
      1807       603  TIP3      OH2             1.1874633595      -47.0586522861      -18.5881896465  W2        603             0.0000000000
      1808       603  TIP3      H1              0.3241333595      -47.4374422861      -18.7537196465  W2        603             0.0000000000
      1809       603  TIP3      H2              1.7918333595      -47.7971722861      -18.6626096465  W2        603             0.0000000000
      1810       604  TIP3      OH2            -1.0876266405      -50.9038222861      -35.4150396465  W2        604             0.0000000000
      1811       604  TIP3      H1             -0.4770466405      -51.2751422861      -34.7782196465  W2        604             0.0000000000
      1812       604  TIP3      H2             -1.9244766405      -51.3251322861      -35.2190396465  W2        604             0.0000000000
      1813       605  TIP3      OH2            -1.4550566405      -49.3489822861      -30.4490496465  W2        605             0.0000000000
      1814       605  TIP3      H1             -1.1753466405      -50.2559422861      -30.3248796465  W2        605             0.0000000000
      1815       605  TIP3      H2             -0.6958866405      -48.9148322861      -30.8381296465  W2        605             0.0000000000
      1816       606  TIP3      OH2            -0.8432266405      -48.7672422861      -25.0131596465  W2        606             0.0000000000
      1817       606  TIP3      H1              0.0895733595      -48.5552522861      -25.0475596465  W2        606             0.0000000000
      1818       606  TIP3      H2             -1.0784766405      -48.6660322861      -24.0908596465  W2        606             0.0000000000
      1819       607  TIP3      OH2            -0.8140366405      -48.0307122861      -22.2372196465  W2        607             0.0000000000
      1820       607  TIP3      H1             -1.6569066405      -47.7626722861      -21.8712396465  W2        607             0.0000000000
      1821       607  TIP3      H2             -0.3716066405      -47.2085222861      -22.4481096465  W2        607             0.0000000000
      1822       608  TIP3      OH2           -16.5328166405      -49.5828422861      -18.7602996465  W2        608             0.0000000000
      1823       608  TIP3      H1            -15.6133266405      -49.7050122861      -18.5239896465  W2        608             0.0000000000
      1824       608  TIP3      H2            -16.9823666405      -50.3328722861      -18.3709496465  W2        608             0.0000000000
      1825       609  TIP3      OH2             1.4691233595      -54.0506922861      -16.8837196465  W2        609             0.0000000000
      1826       609  TIP3      H1              1.8188233595      -54.7043422861      -17.4892496465  W2        609             0.0000000000
      1827       609  TIP3      H2              1.6160733595      -53.2132822861      -17.3234596465  W2        609             0.0000000000
      1828       610  TIP3      OH2            -0.8415766405      -52.0860522861      -30.4008496465  W2        610             0.0000000000
      1829       610  TIP3      H1             -0.6590766405      -52.5349022861      -29.5753496465  W2        610             0.0000000000
      1830       610  TIP3      H2             -1.4412866405      -52.6706122861      -30.8643896465  W2        610             0.0000000000
      1831       611  TIP3      OH2           -15.3115666405      -51.2706822861      -25.8690096465  W2        611             0.0000000000
      1832       611  TIP3      H1            -14.8664066405      -52.0624322861      -25.5670396465  W2        611             0.0000000000
      1833       611  TIP3      H2            -14.8452666405      -50.5541622861      -25.4384496465  W2        611             0.0000000000
      1834       612  TIP3      OH2           -17.0075366405      -48.2713822861      -24.7999896465  W2        612             0.0000000000
      1835       612  TIP3      H1            -16.5155566405      -48.4923322861      -25.5907896465  W2        612             0.0000000000
      1836       612  TIP3      H2            -16.6454466405      -47.4310422861      -24.5190396465  W2        612             0.0000000000
      1837       613  TIP3      OH2             0.9888433595      -51.9412322861      -18.5345896465  W2        613             0.0000000000
      1838       613  TIP3      H1              0.0714133595      -51.6705222861      -18.5702396465  W2        613             0.0000000000
      1839       613  TIP3      H2              1.1117833595      -52.4763922861      -19.3186196465  W2        613             0.0000000000
      1840       614  TIP3      OH2             1.0250433595      -52.0182422861      -33.8728196465  W2        614             0.0000000000
      1841       614  TIP3      H1              1.4373033595      -52.7396722861      -34.3480196465  W2        614             0.0000000000
      1842       614  TIP3      H2              1.7066933595      -51.3487822861      -33.8143896465  W2        614             0.0000000000
      1843       615  TIP3      OH2           -16.6938866405      -52.0134722861      -30.7457496465  W2        615             0.0000000000
      1844       615  TIP3      H1            -17.6190466405      -51.8048122861      -30.8751996465  W2        615             0.0000000000
      1845       615  TIP3      H2            -16.2398966405      -51.5293922861      -31.4355196465  W2        615             0.0000000000
      1846       616  TIP3      OH2            -1.9231666405      -37.0293022861      -28.8000096465  W2        616             0.0000000000
      1847       616  TIP3      H1             -1.2708766405      -37.3770922861      -29.4080996465  W2        616             0.0000000000
      1848       616  TIP3      H2             -1.4127866405      -36.5409822861      -28.1540396465  W2        616             0.0000000000
      1849       617  TIP3      OH2           -16.7303466405      -53.2755722861      -22.4014996465  W2        617             0.0000000000
      1850       617  TIP3      H1            -17.3952966405      -53.5215422861      -21.7584096465  W2        617             0.0000000000
      1851       617  TIP3      H2            -17.1732166405      -52.6535322861      -22.9786996465  W2        617             0.0000000000
      1852       618  TIP3      OH2           -14.5384166405      -40.1001622861      -18.2569196465  W2        618             0.0000000000
      1853       618  TIP3      H1            -15.3591666405      -39.9255122861      -18.7174496465  W2        618             0.0000000000
      1854       618  TIP3      H2            -14.7906366405      -40.1736922861      -17.3364796465  W2        618             0.0000000000
      1855       619  TIP3      OH2           -11.5841266405      -39.1260422861      -21.9985196465  W2        619             0.0000000000
      1856       619  TIP3      H1            -12.0090166405      -38.3161922861      -22.2810596465  W2        619             0.0000000000
      1857       619  TIP3      H2            -10.6798466405      -39.0406322861      -22.3005396465  W2        619             0.0000000000
      1858       620  TIP3      OH2            -7.2729866405      -37.7270422861      -19.0391496465  W2        620             0.0000000000
      1859       620  TIP3      H1             -7.0882366405      -38.0604322861      -18.1611196465  W2        620             0.0000000000
      1860       620  TIP3      H2             -6.4265366405      -37.4171822861      -19.3612296465  W2        620             0.0000000000
      1861       621  TIP3      OH2            -4.9279466405      -36.4411522861      -19.7950096465  W2        621             0.0000000000
      1862       621  TIP3      H1             -4.2510566405      -37.0739222861      -20.0350896465  W2        621             0.0000000000
      1863       621  TIP3      H2             -4.6060666405      -36.0401022861      -18.9876796465  W2        621             0.0000000000
      1864       622  TIP3      OH2            -0.0105666405      -53.8516022861      -20.7155096465  W2        622             0.0000000000
      1865       622  TIP3      H1             -0.8232166405      -53.5265722861      -21.1030396465  W2        622             0.0000000000
      1866       622  TIP3      H2              0.2222833595      -54.6117522861      -21.2485996465  W2        622             0.0000000000
      1867       623  TIP3      OH2           -14.1824566405      -35.8696522861      -21.9509896465  W2        623             0.0000000000
      1868       623  TIP3      H1            -14.9028166405      -35.4295522861      -22.4022196465  W2        623             0.0000000000
      1869       623  TIP3      H2            -14.5480566405      -36.1201822861      -21.1025896465  W2        623             0.0000000000
      1870       624  TIP3      OH2           -11.7151966405      -36.2692622861      -22.9212696465  W2        624             0.0000000000
      1871       624  TIP3      H1            -12.5799766405      -36.1974122861      -22.5172596465  W2        624             0.0000000000
      1872       624  TIP3      H2            -11.7702966405      -35.7225322861      -23.7050196465  W2        624             0.0000000000
      1873       625  TIP3      OH2            -7.0046366405      -36.3813722861      -23.7456696465  W2        625             0.0000000000
      1874       625  TIP3      H1             -7.4612366405      -35.8524022861      -24.3998296465  W2        625             0.0000000000
      1875       625  TIP3      H2             -6.8418366405      -35.7782322861      -23.0204396465  W2        625             0.0000000000
      1876       626  TIP3      OH2            -4.6770066405      -37.5034122861      -22.8006396465  W2        626             0.0000000000
      1877       626  TIP3      H1             -5.5816366405      -37.3383922861      -23.0664296465  W2        626             0.0000000000
      1878       626  TIP3      H2             -4.2481466405      -36.6501922861      -22.8662996465  W2        626             0.0000000000
      1879       627  TIP3      OH2            -2.0728166405      -35.9335022861      -22.5058596465  W2        627             0.0000000000
      1880       627  TIP3      H1             -2.2546166405      -35.0176122861      -22.7163696465  W2        627             0.0000000000
      1881       627  TIP3      H2             -1.8960366405      -36.3437922861      -23.3523996465  W2        627             0.0000000000
      1882       628  TIP3      OH2           -14.7676466405      -37.2464022861      -25.0408096465  W2        628             0.0000000000
      1883       628  TIP3      H1            -14.7860466405      -37.6718922861      -24.1835796465  W2        628             0.0000000000
      1884       628  TIP3      H2            -13.9628566405      -37.5649022861      -25.4495896465  W2        628             0.0000000000
      1885       629  TIP3      OH2           -12.6263366405      -38.5365322861      -26.3858196465  W2        629             0.0000000000
      1886       629  TIP3      H1            -12.8452666405      -39.4527922861      -26.2162196465  W2        629             0.0000000000
      1887       629  TIP3      H2            -11.8021166405      -38.3964922861      -25.9196796465  W2        629             0.0000000000
      1888       630  TIP3      OH2           -10.0890866405      -38.0666022861      -25.5370196465  W2        630             0.0000000000
      1889       630  TIP3      H1             -9.8765166405      -38.9547022861      -25.8239296465  W2        630             0.0000000000
      1890       630  TIP3      H2            -10.0245766405      -38.1008322861      -24.5826196465  W2        630             0.0000000000
      1891       631  TIP3      OH2            -6.5807166405      -52.4025422861      -26.3926896465  W2        631             0.0000000000
      1892       631  TIP3      H1             -7.2550366405      -53.0319822861      -26.1371096465  W2        631             0.0000000000
      1893       631  TIP3      H2             -6.0167966405      -52.8866522861      -26.9958996465  W2        631             0.0000000000
      1894       632  TIP3      OH2            -1.4379966405      -54.2951422861      -26.2799796465  W2        632             0.0000000000
      1895       632  TIP3      H1             -0.8342366405      -53.7476022861      -26.7818796465  W2        632             0.0000000000
      1896       632  TIP3      H2             -2.3077966405      -53.9761022861      -26.5205696465  W2        632             0.0000000000
      1897       633  TIP3      OH2             0.2890433595      -53.1562722861      -27.9468896465  W2        633             0.0000000000
      1898       633  TIP3      H1              0.9007933595      -53.6707022861      -28.4735296465  W2        633             0.0000000000
      1899       633  TIP3      H2              0.6713833595      -52.2790622861      -27.9234496465  W2        633             0.0000000000
      1900       634  TIP3      OH2           -14.2539666405      -53.7685122861      -28.5706996465  W2        634             0.0000000000
      1901       634  TIP3      H1            -15.0309866405      -54.0030222861      -29.0781096465  W2        634             0.0000000000
      1902       634  TIP3      H2            -13.7236066405      -54.5653022861      -28.5618996465  W2        634             0.0000000000
      1903       635  TIP3      OH2           -15.4176266405      -53.9707022861      -32.7670896465  W2        635             0.0000000000
      1904       635  TIP3      H1            -14.9785566405      -53.3596522861      -33.3587396465  W2        635             0.0000000000
      1905       635  TIP3      H2            -16.0513866405      -53.4322922861      -32.2930896465  W2        635             0.0000000000
      1906       636  TIP3      OH2            -9.6747066405      -53.8418022861      -28.7573896465  W2        636             0.0000000000
      1907       636  TIP3      H1             -8.8003666405      -53.4533722861      -28.7869596465  W2        636             0.0000000000
      1908       636  TIP3      H2             -9.8106266405      -54.0570222861      -27.8346696465  W2        636             0.0000000000
      1909       637  TIP3      OH2            -4.1178666405      -53.8118222861      -27.1082196465  W2        637             0.0000000000
      1910       637  TIP3      H1             -4.0417066405      -53.7166622861      -28.0576196465  W2        637             0.0000000000
      1911       637  TIP3      H2             -4.3929466405      -54.7195322861      -26.9793096465  W2        637             0.0000000000
      1912       638  TIP3      OH2            -2.7646066405      -53.7860422861      -31.4157196465  W2        638             0.0000000000
      1913       638  TIP3      H1             -3.4674966405      -53.1711222861      -31.6255796465  W2        638             0.0000000000
      1914       638  TIP3      H2             -3.2094666405      -54.6233722861      -31.2846296465  W2        638             0.0000000000
      1915       639  TIP3      OH2           -15.5166766405      -38.0224822861      -31.8695796465  W2        639             0.0000000000
      1916       639  TIP3      H1            -16.2016866405      -38.0605922861      -32.5370696465  W2        639             0.0000000000
      1917       639  TIP3      H2            -15.5129566405      -37.1097222861      -31.5813696465  W2        639             0.0000000000
      1918       640  TIP3      OH2           -13.5567166405      -52.0545522861      -34.3246796465  W2        640             0.0000000000
      1919       640  TIP3      H1            -13.0653766405      -52.6843122861      -34.8521296465  W2        640             0.0000000000
      1920       640  TIP3      H2            -12.9330866405      -51.7586122861      -33.6615596465  W2        640             0.0000000000
      1921       641  TIP3      OH2            -8.5307066405      -51.7614022861      -31.8676296465  W2        641             0.0000000000
      1922       641  TIP3      H1             -8.3525766405      -52.4080822861      -31.1847696465  W2        641             0.0000000000
      1923       641  TIP3      H2             -8.5840866405      -50.9276322861      -31.4005196465  W2        641             0.0000000000
      1924       642  TIP3      OH2            -6.6523266405      -36.8129922861      -33.4719596465  W2        642             0.0000000000
      1925       642  TIP3      H1             -5.7863066405      -36.4462522861      -33.6501396465  W2        642             0.0000000000
      1926       642  TIP3      H2             -6.8990466405      -37.2521922861      -34.2858796465  W2        642             0.0000000000
      1927       643  TIP3      OH2             0.0566333595      -37.2499622861      -30.7928496465  W2        643             0.0000000000
      1928       643  TIP3      H1             -0.1376566405      -37.9977522861      -31.3578896465  W2        643             0.0000000000
      1929       643  TIP3      H2              0.0176433595      -36.4919522861      -31.3760596465  W2        643             0.0000000000
      1930       644  TIP3      OH2           -14.2961666405      -53.2543222861      -19.0530796465  W2        644             0.0000000000
      1931       644  TIP3      H1            -14.6623466405      -54.0200622861      -18.6106096465  W2        644             0.0000000000
      1932       644  TIP3      H2            -13.3833166405      -53.2253022861      -18.7665696465  W2        644             0.0000000000
      1933       645  TIP3      OH2           -12.3230866405      -53.9038822861      -17.5173696465  W2        645             0.0000000000
      1934       645  TIP3      H1            -11.4247266405      -54.1778622861      -17.7020296465  W2        645             0.0000000000
      1935       645  TIP3      H2            -12.7097766405      -54.6462822861      -17.0531096465  W2        645             0.0000000000
      1936       646  TIP3      OH2           -13.6985566405      -37.1024022861      -34.8443696465  W2        646             0.0000000000
      1937       646  TIP3      H1            -13.9660966405      -36.8161122861      -33.9710596465  W2        646             0.0000000000
      1938       646  TIP3      H2            -12.9272966405      -37.6484822861      -34.6921196465  W2        646             0.0000000000
      1939       647  TIP3      OH2            -3.9018566405      -54.5713522861      -17.3350896465  W2        647             0.0000000000
      1940       647  TIP3      H1             -3.8251366405      -54.9972822861      -16.4813196465  W2        647             0.0000000000
      1941       647  TIP3      H2             -3.0081966405      -54.5578822861      -17.6777396465  W2        647             0.0000000000
      1942       648  TIP3      OH2            -0.7257466405      -38.4987222861      -18.6426696465  W2        648             0.0000000000
      1943       648  TIP3      H1             -1.5075566405      -38.6849222861      -19.1626096465  W2        648             0.0000000000
      1944       648  TIP3      H2             -0.7977566405      -37.5692922861      -18.4254196465  W2        648             0.0000000000
      1945       649  TIP3      OH2            13.6802933595      -44.6122822861      -28.6119496465  W2        649             0.0000000000
      1946       649  TIP3      H1             13.7694033595      -43.6684622861      -28.7442396465  W2        649             0.0000000000
      1947       649  TIP3      H2             13.0420533595      -44.8876422861      -29.2700096465  W2        649             0.0000000000
      1948       650  TIP3      OH2            12.6134233595      -45.3572122861      -25.1931296465  W2        650             0.0000000000
      1949       650  TIP3      H1             12.5751733595      -46.0035822861      -24.4881696465  W2        650             0.0000000000
      1950       650  TIP3      H2             12.2910733595      -45.8237722861      -25.9642596465  W2        650             0.0000000000
      1951       651  TIP3      OH2             4.9819233595      -45.7430022861      -23.6001396465  W2        651             0.0000000000
      1952       651  TIP3      H1              5.0231333595      -46.3686722861      -22.8768996465  W2        651             0.0000000000
      1953       651  TIP3      H2              5.6846933595      -45.1191422861      -23.4180996465  W2        651             0.0000000000
      1954       652  TIP3      OH2            16.3194433595      -42.4181722861      -26.8916196465  W2        652             0.0000000000
      1955       652  TIP3      H1             15.8787133595      -43.1385722861      -26.4410596465  W2        652             0.0000000000
      1956       652  TIP3      H2             16.3064133595      -41.6974522861      -26.2618496465  W2        652             0.0000000000
      1957       653  TIP3      OH2             5.9052333595      -41.2931122861      -25.0652296465  W2        653             0.0000000000
      1958       653  TIP3      H1              5.5357533595      -42.0950622861      -25.4347996465  W2        653             0.0000000000
      1959       653  TIP3      H2              6.8463433595      -41.4616222861      -25.0188896465  W2        653             0.0000000000
      1960       654  TIP3      OH2             2.5152833595      -47.6328522861      -29.6723496465  W2        654             0.0000000000
      1961       654  TIP3      H1              2.0676233595      -46.7869822861      -29.6906996465  W2        654             0.0000000000
      1962       654  TIP3      H2              1.9544033595      -48.2124322861      -30.1878396465  W2        654             0.0000000000
      1963       655  TIP3      OH2             3.2258933595      -45.4708922861      -27.5465496465  W2        655             0.0000000000
      1964       655  TIP3      H1              3.4392433595      -46.2407322861      -27.0192496465  W2        655             0.0000000000
      1965       655  TIP3      H2              3.9636533595      -45.3812222861      -28.1497896465  W2        655             0.0000000000
      1966       656  TIP3      OH2            13.4309933595      -37.3140022861      -26.6795796465  W2        656             0.0000000000
      1967       656  TIP3      H1             14.0506333595      -37.9905322861      -26.9526596465  W2        656             0.0000000000
      1968       656  TIP3      H2             13.2227333595      -37.5319222861      -25.7710896465  W2        656             0.0000000000
      1969       657  TIP3      OH2            11.0028633595      -42.9250722861      -24.7870296465  W2        657             0.0000000000
      1970       657  TIP3      H1             11.3066533595      -43.6109322861      -25.3816196465  W2        657             0.0000000000
      1971       657  TIP3      H2             11.7242633595      -42.8062022861      -24.1692296465  W2        657             0.0000000000
      1972       658  TIP3      OH2            19.6658433595      -51.3235422861      -23.9264096465  W2        658             0.0000000000
      1973       658  TIP3      H1             19.7150633595      -50.7134222861      -23.1904996465  W2        658             0.0000000000
      1974       658  TIP3      H2             20.0913533595      -50.8624522861      -24.6492996465  W2        658             0.0000000000
      1975       659  TIP3      OH2            14.1435633595      -48.5308322861      -24.4595496465  W2        659             0.0000000000
      1976       659  TIP3      H1             14.2861533595      -49.4771322861      -24.4393896465  W2        659             0.0000000000
      1977       659  TIP3      H2             14.0374633595      -48.3238522861      -25.3880596465  W2        659             0.0000000000
      1978       660  TIP3      OH2             7.2983933595      -50.4291922861      -27.1870696465  W2        660             0.0000000000
      1979       660  TIP3      H1              7.3415033595      -49.5693422861      -27.6054396465  W2        660             0.0000000000
      1980       660  TIP3      H2              6.8408033595      -50.9817222861      -27.8207496465  W2        660             0.0000000000
      1981       661  TIP3      OH2            15.0206633595      -50.2986322861      -28.7862396465  W2        661             0.0000000000
      1982       661  TIP3      H1             15.6670933595      -50.6273122861      -28.1614796465  W2        661             0.0000000000
      1983       661  TIP3      H2             15.5306033595      -49.7807322861      -29.4090996465  W2        661             0.0000000000
      1984       662  TIP3      OH2             3.9185433595      -48.0326122861      -26.4249296465  W2        662             0.0000000000
      1985       662  TIP3      H1              4.5722033595      -48.5824422861      -25.9929196465  W2        662             0.0000000000
      1986       662  TIP3      H2              3.9424733595      -48.3067122861      -27.3417296465  W2        662             0.0000000000
      1987       663  TIP3      OH2             9.0749933595      -46.4824822861      -27.2097796465  W2        663             0.0000000000
      1988       663  TIP3      H1              9.6910933595      -47.0089422861      -26.7003796465  W2        663             0.0000000000
      1989       663  TIP3      H2              8.4888733595      -47.1226122861      -27.6134196465  W2        663             0.0000000000
      1990       664  TIP3      OH2            20.0573033595      -49.8456222861      -21.6904296465  W2        664             0.0000000000
      1991       664  TIP3      H1             19.3687633595      -49.1875522861      -21.7857696465  W2        664             0.0000000000
      1992       664  TIP3      H2             20.0727633595      -50.0428322861      -20.7538896465  W2        664             0.0000000000
      1993       665  TIP3      OH2             6.1085833595      -51.5113522861      -23.1129896465  W2        665             0.0000000000
      1994       665  TIP3      H1              5.8897533595      -50.9812922861      -23.8793896465  W2        665             0.0000000000
      1995       665  TIP3      H2              5.4406733595      -51.2848022861      -22.4658496465  W2        665             0.0000000000
      1996       666  TIP3      OH2            13.4775633595      -42.0112422861      -29.5690796465  W2        666             0.0000000000
      1997       666  TIP3      H1             13.1820733595      -42.3340122861      -30.4203896465  W2        666             0.0000000000
      1998       666  TIP3      H2             13.1533433595      -41.1115722861      -29.5278196465  W2        666             0.0000000000
      1999       667  TIP3      OH2             8.6777233595      -43.8357822861      -22.8256196465  W2        667             0.0000000000
      2000       667  TIP3      H1              7.9376333595      -43.2376322861      -22.7220996465  W2        667             0.0000000000
      2001       667  TIP3      H2              9.3916733595      -43.2818222861      -23.1412596465  W2        667             0.0000000000
      2002       668  TIP3      OH2            16.7845033595      -51.0077022861      -26.8056496465  W2        668             0.0000000000
      2003       668  TIP3      H1             16.5693033595      -51.7733622861      -26.2730496465  W2        668             0.0000000000
      2004       668  TIP3      H2             17.4402433595      -50.5352422861      -26.2927996465  W2        668             0.0000000000
      2005       669  TIP3      OH2             5.7023133595      -49.6191722861      -25.1607696465  W2        669             0.0000000000
      2006       669  TIP3      H1              6.3159433595      -48.9864122861      -24.7875296465  W2        669             0.0000000000
      2007       669  TIP3      H2              6.2143833595      -50.0916722861      -25.8170796465  W2        669             0.0000000000
      2008       670  TIP3      OH2             7.0851533595      -41.8714822861      -22.0384696465  W2        670             0.0000000000
      2009       670  TIP3      H1              7.0799133595      -40.9921322861      -22.4165396465  W2        670             0.0000000000
      2010       670  TIP3      H2              6.2315633595      -41.9550722861      -21.6134796465  W2        670             0.0000000000
      2011       671  TIP3      OH2             3.2062433595      -42.2006922861      -31.2565396465  W2        671             0.0000000000
      2012       671  TIP3      H1              2.9343333595      -41.9715922861      -32.1452496465  W2        671             0.0000000000
      2013       671  TIP3      H2              3.2518133595      -41.3628122861      -30.7960096465  W2        671             0.0000000000
      2014       672  TIP3      OH2            16.8312133595      -40.5791022861      -24.5436896465  W2        672             0.0000000000
      2015       672  TIP3      H1             15.8895833595      -40.5207122861      -24.3819996465  W2        672             0.0000000000
      2016       672  TIP3      H2             17.1078233595      -39.6730522861      -24.6807196465  W2        672             0.0000000000
      2017       673  TIP3      OH2            17.1319133595      -52.2925722861      -23.1262996465  W2        673             0.0000000000
      2018       673  TIP3      H1             16.3958333595      -51.6818622861      -23.1641696465  W2        673             0.0000000000
      2019       673  TIP3      H2             17.8153133595      -51.8776722861      -23.6526596465  W2        673             0.0000000000
      2020       674  TIP3      OH2            10.1350533595      -54.2058422861      -25.6604996465  W2        674             0.0000000000
      2021       674  TIP3      H1             10.0174733595      -55.1542422861      -25.7146696465  W2        674             0.0000000000
      2022       674  TIP3      H2              9.2800633595      -53.8732322861      -25.3873896465  W2        674             0.0000000000
      2023       675  TIP3      OH2            15.0833333595      -38.7977522861      -27.9185296465  W2        675             0.0000000000
      2024       675  TIP3      H1             15.5085633595      -39.5049622861      -28.4035696465  W2        675             0.0000000000
      2025       675  TIP3      H2             15.4003333595      -37.9964822861      -28.3353096465  W2        675             0.0000000000
      2026       676  TIP3      OH2            16.2429833595      -40.8969022861      -29.4098696465  W2        676             0.0000000000
      2027       676  TIP3      H1             15.9854633595      -41.5868922861      -30.0212796465  W2        676             0.0000000000
      2028       676  TIP3      H2             16.3140633595      -41.3397822861      -28.5642796465  W2        676             0.0000000000
      2029       677  TIP3      OH2            17.9290033595      -42.3302322861      -20.9325196465  W2        677             0.0000000000
      2030       677  TIP3      H1             18.0686333595      -42.9219822861      -21.6718196465  W2        677             0.0000000000
      2031       677  TIP3      H2             18.0962833595      -41.4576422861      -21.2886396465  W2        677             0.0000000000
      2032       678  TIP3      OH2            12.4015433595      -45.3682822861      -31.1599196465  W2        678             0.0000000000
      2033       678  TIP3      H1             11.6900933595      -44.8333122861      -31.5118696465  W2        678             0.0000000000
      2034       678  TIP3      H2             13.0925033595      -45.3130722861      -31.8200296465  W2        678             0.0000000000
      2035       679  TIP3      OH2            12.4554633595      -46.9108522861      -34.1214196465  W2        679             0.0000000000
      2036       679  TIP3      H1             13.1564533595      -46.8881622861      -33.4700196465  W2        679             0.0000000000
      2037       679  TIP3      H2             12.7577533595      -47.5388822861      -34.7774896465  W2        679             0.0000000000
      2038       680  TIP3      OH2            19.7709333595      -45.9904322861      -22.8664796465  W2        680             0.0000000000
      2039       680  TIP3      H1             19.1183433595      -45.2958722861      -22.7773896465  W2        680             0.0000000000
      2040       680  TIP3      H2             20.2359633595      -45.7803422861      -23.6763196465  W2        680             0.0000000000
      2041       681  TIP3      OH2            15.8073133595      -45.1589522861      -30.2083296465  W2        681             0.0000000000
      2042       681  TIP3      H1             15.0754133595      -44.9305822861      -29.6352696465  W2        681             0.0000000000
      2043       681  TIP3      H2             16.2545333595      -45.8726822861      -29.7535796465  W2        681             0.0000000000
      2044       682  TIP3      OH2            15.7046633595      -46.9846922861      -21.1406296465  W2        682             0.0000000000
      2045       682  TIP3      H1             15.7845733595      -46.2212522861      -20.5687796465  W2        682             0.0000000000
      2046       682  TIP3      H2             15.1034333595      -46.7054522861      -21.8311196465  W2        682             0.0000000000
      2047       683  TIP3      OH2             7.4526833595      -44.5283322861      -28.3258296465  W2        683             0.0000000000
      2048       683  TIP3      H1              7.1222033595      -44.8989922861      -29.1441296465  W2        683             0.0000000000
      2049       683  TIP3      H2              8.0410933595      -45.1989322861      -27.9789996465  W2        683             0.0000000000
      2050       684  TIP3      OH2             8.8194333595      -41.1002722861      -25.6446096465  W2        684             0.0000000000
      2051       684  TIP3      H1              8.7245633595      -41.6789622861      -26.4011496465  W2        684             0.0000000000
      2052       684  TIP3      H2              9.5487933595      -41.4717022861      -25.1483296465  W2        684             0.0000000000
      2053       685  TIP3      OH2             7.8192333595      -45.7597722861      -24.6923296465  W2        685             0.0000000000
      2054       685  TIP3      H1              8.3844833595      -45.6383522861      -25.4552096465  W2        685             0.0000000000
      2055       685  TIP3      H2              8.1381233595      -45.1222722861      -24.0534796465  W2        685             0.0000000000
      2056       686  TIP3      OH2            14.1284533595      -40.2565822861      -23.9582796465  W2        686             0.0000000000
      2057       686  TIP3      H1             13.8881133595      -39.5942722861      -23.3103596465  W2        686             0.0000000000
      2058       686  TIP3      H2             13.9302733595      -41.0910622861      -23.5333196465  W2        686             0.0000000000
      2059       687  TIP3      OH2             8.6993033595      -41.3605022861      -19.9751396465  W2        687             0.0000000000
      2060       687  TIP3      H1              8.3880533595      -40.5781822861      -19.5198196465  W2        687             0.0000000000
      2061       687  TIP3      H2              8.0493233595      -41.5135922861      -20.6609396465  W2        687             0.0000000000
      2062       688  TIP3      OH2            14.6782633595      -45.9966622861      -32.5232096465  W2        688             0.0000000000
      2063       688  TIP3      H1             15.2578133595      -45.8466322861      -31.7763196465  W2        688             0.0000000000
      2064       688  TIP3      H2             15.0922633595      -45.5259222861      -33.2465696465  W2        688             0.0000000000
      2065       689  TIP3      OH2             5.6192933595      -45.1623922861      -20.7465696465  W2        689             0.0000000000
      2066       689  TIP3      H1              5.6896133595      -44.5117122861      -20.0480696465  W2        689             0.0000000000
      2067       689  TIP3      H2              4.7285133595      -45.0596422861      -21.0814796465  W2        689             0.0000000000
      2068       690  TIP3      OH2            12.4047533595      -39.2598122861      -29.0878996465  W2        690             0.0000000000
      2069       690  TIP3      H1             12.8785133595      -38.9641822861      -28.3104796465  W2        690             0.0000000000
      2070       690  TIP3      H2             11.8416833595      -38.5216522861      -29.3209396465  W2        690             0.0000000000
      2071       691  TIP3      OH2             6.9388933595      -39.2890022861      -19.2117596465  W2        691             0.0000000000
      2072       691  TIP3      H1              6.9464233595      -39.4250322861      -20.1592096465  W2        691             0.0000000000
      2073       691  TIP3      H2              6.0229333595      -39.4061922861      -18.9597596465  W2        691             0.0000000000
      2074       692  TIP3      OH2            18.3771033595      -54.2466222861      -32.7102396465  W2        692             0.0000000000
      2075       692  TIP3      H1             17.4771733595      -54.1077222861      -32.4151796465  W2        692             0.0000000000
      2076       692  TIP3      H2             18.6289433595      -53.4151622861      -33.1120696465  W2        692             0.0000000000
      2077       693  TIP3      OH2             6.4429533595      -45.4589022861      -30.7365496465  W2        693             0.0000000000
      2078       693  TIP3      H1              6.1510833595      -44.6907322861      -31.2274196465  W2        693             0.0000000000
      2079       693  TIP3      H2              5.7684733595      -46.1182822861      -30.8994096465  W2        693             0.0000000000
      2080       694  TIP3      OH2            19.5662433595      -39.8803822861      -34.3338496465  W2        694             0.0000000000
      2081       694  TIP3      H1             19.6395933595      -38.9413622861      -34.1633196465  W2        694             0.0000000000
      2082       694  TIP3      H2             20.4717533595      -40.1855222861      -34.3901196465  W2        694             0.0000000000
      2083       695  TIP3      OH2             2.5359633595      -43.0959822861      -21.9215696465  W2        695             0.0000000000
      2084       695  TIP3      H1              2.0348033595      -43.1240422861      -22.7365996465  W2        695             0.0000000000
      2085       695  TIP3      H2              2.5413333595      -44.0016622861      -21.6118396465  W2        695             0.0000000000
      2086       696  TIP3      OH2             2.2862333595      -40.3156022861      -25.0375496465  W2        696             0.0000000000
      2087       696  TIP3      H1              3.2322933595      -40.4599022861      -25.0565996465  W2        696             0.0000000000
      2088       696  TIP3      H2              2.1738633595      -39.5313222861      -24.5004296465  W2        696             0.0000000000
      2089       697  TIP3      OH2            20.4840833595      -39.6496322861      -19.3551796465  W2        697             0.0000000000
      2090       697  TIP3      H1             20.4347633595      -40.6048222861      -19.3924196465  W2        697             0.0000000000
      2091       697  TIP3      H2             19.6573133595      -39.3821022861      -18.9537996465  W2        697             0.0000000000
      2092       698  TIP3      OH2            11.4624833595      -40.0757122861      -20.4790396465  W2        698             0.0000000000
      2093       698  TIP3      H1             11.5499433595      -39.2492522861      -20.0041296465  W2        698             0.0000000000
      2094       698  TIP3      H2             10.5989933595      -40.4053322861      -20.2301096465  W2        698             0.0000000000
      2095       699  TIP3      OH2            11.8770633595      -36.3033422861      -30.6729796465  W2        699             0.0000000000
      2096       699  TIP3      H1             11.8016633595      -36.4246222861      -31.6194596465  W2        699             0.0000000000
      2097       699  TIP3      H2             11.9099333595      -35.3540722861      -30.5545196465  W2        699             0.0000000000
      2098       700  TIP3      OH2             5.5304433595      -37.5146422861      -28.8920796465  W2        700             0.0000000000
      2099       700  TIP3      H1              5.6824833595      -37.8626022861      -28.0134296465  W2        700             0.0000000000
      2100       700  TIP3      H2              4.6794833595      -37.8709122861      -29.1473596465  W2        700             0.0000000000
      2101       701  TIP3      OH2            14.9786633595      -37.1493222861      -33.6707396465  W2        701             0.0000000000
      2102       701  TIP3      H1             15.3535033595      -37.8937122861      -34.1414796465  W2        701             0.0000000000
      2103       701  TIP3      H2             14.9830333595      -37.4192622861      -32.7524096465  W2        701             0.0000000000
      2104       702  TIP3      OH2            14.6474733595      -37.2236122861      -30.9215196465  W2        702             0.0000000000
      2105       702  TIP3      H1             13.7124533595      -37.1234222861      -30.7428196465  W2        702             0.0000000000
      2106       702  TIP3      H2             14.9276633595      -37.9330122861      -30.3431996465  W2        702             0.0000000000
      2107       703  TIP3      OH2            17.6360633595      -48.1563822861      -18.8749596465  W2        703             0.0000000000
      2108       703  TIP3      H1             17.2287433595      -47.6758222861      -19.5956296465  W2        703             0.0000000000
      2109       703  TIP3      H2             17.6766333595      -49.0617822861      -19.1828796465  W2        703             0.0000000000
      2110       704  TIP3      OH2             4.7850133595      -41.7724422861      -20.8782896465  W2        704             0.0000000000
      2111       704  TIP3      H1              5.0011433595      -42.1338822861      -20.0187096465  W2        704             0.0000000000
      2112       704  TIP3      H2              3.9294833595      -42.1470622861      -21.0879396465  W2        704             0.0000000000
      2113       705  TIP3      OH2             7.4038133595      -53.3023922861      -24.8828696465  W2        705             0.0000000000
      2114       705  TIP3      H1              6.5421833595      -53.3895722861      -25.2905796465  W2        705             0.0000000000
      2115       705  TIP3      H2              7.3813833595      -52.4463822861      -24.4551096465  W2        705             0.0000000000
      2116       706  TIP3      OH2            12.0665933595      -53.5803522861      -21.5081696465  W2        706             0.0000000000
      2117       706  TIP3      H1             12.4869033595      -53.9956422861      -20.7551096465  W2        706             0.0000000000
      2118       706  TIP3      H2             11.1335533595      -53.7590222861      -21.3909696465  W2        706             0.0000000000
      2119       707  TIP3      OH2            15.3930833595      -49.8248322861      -20.6547196465  W2        707             0.0000000000
      2120       707  TIP3      H1             14.8790333595      -49.9506122861      -19.8571196465  W2        707             0.0000000000
      2121       707  TIP3      H2             15.2375533595      -48.9125222861      -20.8990996465  W2        707             0.0000000000
      2122       708  TIP3      OH2            16.1555733595      -44.9638322861      -34.8934196465  W2        708             0.0000000000
      2123       708  TIP3      H1             16.1976533595      -45.1864422861      -35.8234196465  W2        708             0.0000000000
      2124       708  TIP3      H2             17.0047833595      -44.5651222861      -34.7034296465  W2        708             0.0000000000
      2125       709  TIP3      OH2            11.7283233595      -51.0880122861      -34.2230896465  W2        709             0.0000000000
      2126       709  TIP3      H1             11.4748033595      -51.0688522861      -33.3002796465  W2        709             0.0000000000
      2127       709  TIP3      H2             11.4715333595      -51.9594722861      -34.5244696465  W2        709             0.0000000000
      2128       710  TIP3      OH2             7.4948233595      -48.3369422861      -23.7878496465  W2        710             0.0000000000
      2129       710  TIP3      H1              6.8530333595      -48.3772122861      -23.0788396465  W2        710             0.0000000000
      2130       710  TIP3      H2              7.5320233595      -47.4104722861      -24.0255496465  W2        710             0.0000000000
      2131       711  TIP3      OH2             7.4917333595      -48.1159322861      -28.8758496465  W2        711             0.0000000000
      2132       711  TIP3      H1              6.5990233595      -48.4563222861      -28.9344696465  W2        711             0.0000000000
      2133       711  TIP3      H2              7.9423933595      -48.4928422861      -29.6315296465  W2        711             0.0000000000
      2134       712  TIP3      OH2            13.0272833595      -47.6999022861      -30.0587696465  W2        712             0.0000000000
      2135       712  TIP3      H1             12.6183133595      -46.8850422861      -30.3502896465  W2        712             0.0000000000
      2136       712  TIP3      H2             13.7479033595      -47.8398922861      -30.6730596465  W2        712             0.0000000000
      2137       713  TIP3      OH2            12.1294433595      -47.5242622861      -18.5706996465  W2        713             0.0000000000
      2138       713  TIP3      H1             11.5668233595      -48.2291022861      -18.2499196465  W2        713             0.0000000000
      2139       713  TIP3      H2             12.9557833595      -47.6450722861      -18.1029396465  W2        713             0.0000000000
      2140       714  TIP3      OH2            14.0320533595      -48.2538622861      -27.2447996465  W2        714             0.0000000000
      2141       714  TIP3      H1             13.8365033595      -47.6481822861      -27.9597396465  W2        714             0.0000000000
      2142       714  TIP3      H2             14.2133133595      -49.0873422861      -27.6791696465  W2        714             0.0000000000
      2143       715  TIP3      OH2             5.2448733595      -48.0165922861      -21.9206496465  W2        715             0.0000000000
      2144       715  TIP3      H1              5.2068133595      -47.6164322861      -21.0519396465  W2        715             0.0000000000
      2145       715  TIP3      H2              4.7539833595      -48.8333522861      -21.8303596465  W2        715             0.0000000000
      2146       716  TIP3      OH2             8.6106133595      -50.6423622861      -35.1220496465  W2        716             0.0000000000
      2147       716  TIP3      H1              8.1796833595      -51.0873522861      -34.3923096465  W2        716             0.0000000000
      2148       716  TIP3      H2              7.8924833595      -50.2707322861      -35.6342996465  W2        716             0.0000000000
      2149       717  TIP3      OH2             1.8529533595      -50.9004122861      -28.0701796465  W2        717             0.0000000000
      2150       717  TIP3      H1              2.4837233595      -50.9292022861      -27.3507896465  W2        717             0.0000000000
      2151       717  TIP3      H2              2.3023833595      -51.3255422861      -28.8005896465  W2        717             0.0000000000
      2152       718  TIP3      OH2             3.1271633595      -50.1542122861      -32.6461396465  W2        718             0.0000000000
      2153       718  TIP3      H1              3.6013333595      -49.5632222861      -33.2310496465  W2        718             0.0000000000
      2154       718  TIP3      H2              2.4098033595      -49.6239222861      -32.2991296465  W2        718             0.0000000000
      2155       719  TIP3      OH2            13.2959733595      -46.6157322861      -22.5735596465  W2        719             0.0000000000
      2156       719  TIP3      H1             13.6194533595      -47.2467622861      -23.2165096465  W2        719             0.0000000000
      2157       719  TIP3      H2             12.8559033595      -47.1505122861      -21.9128196465  W2        719             0.0000000000
      2158       720  TIP3      OH2            10.0732633595      -50.6881822861      -27.7894396465  W2        720             0.0000000000
      2159       720  TIP3      H1              9.1623733595      -50.6315022861      -27.5008396465  W2        720             0.0000000000
      2160       720  TIP3      H2             10.5785533595      -50.7486322861      -26.9787196465  W2        720             0.0000000000
      2161       721  TIP3      OH2             4.9016033595      -49.0595522861      -28.9626796465  W2        721             0.0000000000
      2162       721  TIP3      H1              4.0124033595      -48.9600022861      -29.3027196465  W2        721             0.0000000000
      2163       721  TIP3      H2              5.1980933595      -49.9012522861      -29.3088896465  W2        721             0.0000000000
      2164       722  TIP3      OH2             8.5547833595      -49.0592922861      -31.3062196465  W2        722             0.0000000000
      2165       722  TIP3      H1              9.4863333595      -48.9302922861      -31.1279096465  W2        722             0.0000000000
      2166       722  TIP3      H2              8.3398133595      -48.3898622861      -31.9557496465  W2        722             0.0000000000
      2167       723  TIP3      OH2            14.4784533595      -51.4535522861      -24.5252596465  W2        723             0.0000000000
      2168       723  TIP3      H1             13.8016133595      -51.3222422861      -23.8612896465  W2        723             0.0000000000
      2169       723  TIP3      H2             13.9929433595      -51.6086022861      -25.3354896465  W2        723             0.0000000000
      2170       724  TIP3      OH2             7.2288033595      -47.8650722861      -33.7396096465  W2        724             0.0000000000
      2171       724  TIP3      H1              6.6863133595      -48.2446922861      -34.4308496465  W2        724             0.0000000000
      2172       724  TIP3      H2              8.0622933595      -47.6706022861      -34.1681996465  W2        724             0.0000000000
      2173       725  TIP3      OH2            17.7659633595      -35.7820122861      -18.2484996465  W2        725             0.0000000000
      2174       725  TIP3      H1             17.9658333595      -35.3578222861      -19.0829696465  W2        725             0.0000000000
      2175       725  TIP3      H2             18.4213333595      -35.4381922861      -17.6414596465  W2        725             0.0000000000
      2176       726  TIP3      OH2             5.3639433595      -43.3078822861      -18.6404496465  W2        726             0.0000000000
      2177       726  TIP3      H1              6.0961833595      -43.0532922861      -18.0789996465  W2        726             0.0000000000
      2178       726  TIP3      H2              4.5838133595      -43.1033422861      -18.1249096465  W2        726             0.0000000000
      2179       727  TIP3      OH2            11.3932333595      -47.9008822861      -25.9024796465  W2        727             0.0000000000
      2180       727  TIP3      H1             11.9575733595      -48.4472222861      -26.4495196465  W2        727             0.0000000000
      2181       727  TIP3      H2             11.2455733595      -48.4226922861      -25.1137196465  W2        727             0.0000000000
      2182       728  TIP3      OH2             6.3952033595      -51.7642722861      -29.4839996465  W2        728             0.0000000000
      2183       728  TIP3      H1              6.0781533595      -52.6667422861      -29.5194596465  W2        728             0.0000000000
      2184       728  TIP3      H2              7.1766133595      -51.7625322861      -30.0368396465  W2        728             0.0000000000
      2185       729  TIP3      OH2            10.0198233595      -49.5122722861      -23.4884396465  W2        729             0.0000000000
      2186       729  TIP3      H1              9.1843533595      -49.0583222861      -23.3781996465  W2        729             0.0000000000
      2187       729  TIP3      H2             10.5438833595      -49.2364222861      -22.7364496465  W2        729             0.0000000000
      2188       730  TIP3      OH2            10.5640833595      -43.2995022861      -31.8037996465  W2        730             0.0000000000
      2189       730  TIP3      H1              9.8191833595      -43.8069722861      -32.1260096465  W2        730             0.0000000000
      2190       730  TIP3      H2             10.4298033595      -43.2507022861      -30.8573196465  W2        730             0.0000000000
      2191       731  TIP3      OH2            17.7139733595      -44.1666822861      -23.0170396465  W2        731             0.0000000000
      2192       731  TIP3      H1             18.3558533595      -43.7100522861      -23.5608196465  W2        731             0.0000000000
      2193       731  TIP3      H2             16.8836633595      -44.0534422861      -23.4796296465  W2        731             0.0000000000
      2194       732  TIP3      OH2            14.4617633595      -50.4855122861      -33.6045396465  W2        732             0.0000000000
      2195       732  TIP3      H1             13.5231833595      -50.3739522861      -33.7556596465  W2        732             0.0000000000
      2196       732  TIP3      H2             14.7589733595      -49.6288222861      -33.2979696465  W2        732             0.0000000000
      2197       733  TIP3      OH2            12.0832933595      -43.1151722861      -20.5668896465  W2        733             0.0000000000
      2198       733  TIP3      H1             11.7379033595      -43.4969322861      -19.7599296465  W2        733             0.0000000000
      2199       733  TIP3      H2             11.8833033595      -42.1818122861      -20.4955996465  W2        733             0.0000000000
      2200       734  TIP3      OH2            15.1801133595      -48.6182422861      -31.9437996465  W2        734             0.0000000000
      2201       734  TIP3      H1             16.0720133595      -48.7557422861      -31.6246796465  W2        734             0.0000000000
      2202       734  TIP3      H2             15.2364733595      -47.8276322861      -32.4804496465  W2        734             0.0000000000
      2203       735  TIP3      OH2             5.6889133595      -44.0045022861      -26.0340096465  W2        735             0.0000000000
      2204       735  TIP3      H1              6.4336333595      -44.0069322861      -26.6353596465  W2        735             0.0000000000
      2205       735  TIP3      H2              5.7665733595      -44.8281222861      -25.5524996465  W2        735             0.0000000000
      2206       736  TIP3      OH2            12.6894933595      -41.8410722861      -32.7783396465  W2        736             0.0000000000
      2207       736  TIP3      H1             12.3943333595      -41.0142822861      -32.3968596465  W2        736             0.0000000000
      2208       736  TIP3      H2             11.9864933595      -42.4603822861      -32.5821996465  W2        736             0.0000000000
      2209       737  TIP3      OH2             2.6968833595      -45.5438122861      -20.7191596465  W2        737             0.0000000000
      2210       737  TIP3      H1              2.9197433595      -45.9618522861      -19.8874096465  W2        737             0.0000000000
      2211       737  TIP3      H2              2.0948933595      -46.1563122861      -21.1418796465  W2        737             0.0000000000
      2212       738  TIP3      OH2             9.7133733595      -46.0268222861      -18.5061896465  W2        738             0.0000000000
      2213       738  TIP3      H1              9.4174533595      -46.1925222861      -19.4012796465  W2        738             0.0000000000
      2214       738  TIP3      H2             10.6448933595      -46.2467922861      -18.5167996465  W2        738             0.0000000000
      2215       739  TIP3      OH2            14.3336533595      -40.6536222861      -20.6163896465  W2        739             0.0000000000
      2216       739  TIP3      H1             13.4330833595      -40.4703622861      -20.8839996465  W2        739             0.0000000000
      2217       739  TIP3      H2             14.3677633595      -40.3946922861      -19.6955096465  W2        739             0.0000000000
      2218       740  TIP3      OH2            20.0649833595      -48.4088322861      -32.2491296465  W2        740             0.0000000000
      2219       740  TIP3      H1             19.5106133595      -48.8050322861      -32.9213796465  W2        740             0.0000000000
      2220       740  TIP3      H2             20.1653433595      -47.4983122861      -32.5267996465  W2        740             0.0000000000
      2221       741  TIP3      OH2            20.0281833595      -42.6086622861      -19.4119796465  W2        741             0.0000000000
      2222       741  TIP3      H1             19.1770333595      -42.3702822861      -19.7793396465  W2        741             0.0000000000
      2223       741  TIP3      H2             20.6185233595      -42.6253422861      -20.1652696465  W2        741             0.0000000000
      2224       742  TIP3      OH2            18.3601533595      -39.6227922861      -31.7839196465  W2        742             0.0000000000
      2225       742  TIP3      H1             17.9872633595      -40.4484122861      -31.4748596465  W2        742             0.0000000000
      2226       742  TIP3      H2             18.6375033595      -39.8058522861      -32.6815796465  W2        742             0.0000000000
      2227       743  TIP3      OH2            15.5205433595      -44.8148422861      -24.7627296465  W2        743             0.0000000000
      2228       743  TIP3      H1             14.5922333595      -45.0466522861      -24.7897996465  W2        743             0.0000000000
      2229       743  TIP3      H2             15.9716533595      -45.5918622861      -25.0928496465  W2        743             0.0000000000
      2230       744  TIP3      OH2             8.0638533595      -40.4866822861      -28.6298596465  W2        744             0.0000000000
      2231       744  TIP3      H1              8.5910733595      -39.7132422861      -28.8299796465  W2        744             0.0000000000
      2232       744  TIP3      H2              7.1837033595      -40.2617622861      -28.9314596465  W2        744             0.0000000000
      2233       745  TIP3      OH2             3.8186233595      -45.6242722861      -34.0426196465  W2        745             0.0000000000
      2234       745  TIP3      H1              4.4346133595      -44.9975522861      -33.6631396465  W2        745             0.0000000000
      2235       745  TIP3      H2              2.9568833595      -45.3082922861      -33.7709696465  W2        745             0.0000000000
      2236       746  TIP3      OH2             9.4910833595      -42.8236922861      -29.0534296465  W2        746             0.0000000000
      2237       746  TIP3      H1              9.2500833595      -41.8982522861      -29.0118996465  W2        746             0.0000000000
      2238       746  TIP3      H2              8.7504433595      -43.2825622861      -28.6570396465  W2        746             0.0000000000
      2239       747  TIP3      OH2            10.0057433595      -38.6743322861      -22.7383196465  W2        747             0.0000000000
      2240       747  TIP3      H1             10.3682133595      -37.8197722861      -22.9718796465  W2        747             0.0000000000
      2241       747  TIP3      H2             10.5372633595      -38.9661722861      -21.9976896465  W2        747             0.0000000000
      2242       748  TIP3      OH2             8.1741633595      -37.8019322861      -29.5082096465  W2        748             0.0000000000
      2243       748  TIP3      H1              7.2242133595      -37.6961922861      -29.4568796465  W2        748             0.0000000000
      2244       748  TIP3      H2              8.5259733595      -36.9811922861      -29.1634596465  W2        748             0.0000000000
      2245       749  TIP3      OH2            13.5498233595      -42.5752622861      -23.0377596465  W2        749             0.0000000000
      2246       749  TIP3      H1             13.1239533595      -42.8030922861      -22.2113596465  W2        749             0.0000000000
      2247       749  TIP3      H2             14.1304033595      -43.3140822861      -23.2202296465  W2        749             0.0000000000
      2248       750  TIP3      OH2            15.7527133595      -41.6462122861      -33.9638596465  W2        750             0.0000000000
      2249       750  TIP3      H1             16.1060233595      -42.0262322861      -33.1595096465  W2        750             0.0000000000
      2250       750  TIP3      H2             14.8040633595      -41.7397322861      -33.8769296465  W2        750             0.0000000000
      2251       751  TIP3      OH2            16.2082433595      -38.0233122861      -20.5682796465  W2        751             0.0000000000
      2252       751  TIP3      H1             15.6065633595      -38.5790222861      -21.0636496465  W2        751             0.0000000000
      2253       751  TIP3      H2             16.4896133595      -37.3563322861      -21.1945396465  W2        751             0.0000000000
      2254       752  TIP3      OH2            20.2561533595      -37.1669622861      -33.7628396465  W2        752             0.0000000000
      2255       752  TIP3      H1             20.9999433595      -36.5809122861      -33.9026796465  W2        752             0.0000000000
      2256       752  TIP3      H2             19.5619633595      -36.5983822861      -33.4295996465  W2        752             0.0000000000
      2257       753  TIP3      OH2             4.3308333595      -50.7905422861      -21.1610196465  W2        753             0.0000000000
      2258       753  TIP3      H1              3.4380633595      -50.4520022861      -21.2286196465  W2        753             0.0000000000
      2259       753  TIP3      H2              4.2321133595      -51.6459322861      -20.7429396465  W2        753             0.0000000000
      2260       754  TIP3      OH2            16.6186433595      -42.9740122861      -31.7370696465  W2        754             0.0000000000
      2261       754  TIP3      H1             16.3414033595      -43.7020822861      -31.1809596465  W2        754             0.0000000000
      2262       754  TIP3      H2             17.5459433595      -42.8548122861      -31.5318096465  W2        754             0.0000000000
      2263       755  TIP3      OH2             3.9820333595      -38.9861022861      -22.7260796465  W2        755             0.0000000000
      2264       755  TIP3      H1              4.1990633595      -39.9178622861      -22.7571096465  W2        755             0.0000000000
      2265       755  TIP3      H2              4.2283833595      -38.7116022861      -21.8427996465  W2        755             0.0000000000
      2266       756  TIP3      OH2             9.8434933595      -40.5346022861      -35.5168596465  W2        756             0.0000000000
      2267       756  TIP3      H1             10.0824733595      -41.2827922861      -36.0639696465  W2        756             0.0000000000
      2268       756  TIP3      H2              9.5746233595      -40.9224322861      -34.6840796465  W2        756             0.0000000000
      2269       757  TIP3      OH2             8.7805533595      -40.9642222861      -33.0605996465  W2        757             0.0000000000
      2270       757  TIP3      H1              8.9273533595      -41.4842422861      -32.2705096465  W2        757             0.0000000000
      2271       757  TIP3      H2              8.7777233595      -40.0574622861      -32.7540096465  W2        757             0.0000000000
      2272       758  TIP3      OH2             5.2336633595      -43.7118922861      -32.5500596465  W2        758             0.0000000000
      2273       758  TIP3      H1              4.5475933595      -43.3596422861      -31.9830896465  W2        758             0.0000000000
      2274       758  TIP3      H2              5.7564533595      -42.9489322861      -32.7966296465  W2        758             0.0000000000
      2275       759  TIP3      OH2            13.0651733595      -51.0495122861      -22.2711596465  W2        759             0.0000000000
      2276       759  TIP3      H1             13.7639633595      -50.9756422861      -21.6211896465  W2        759             0.0000000000
      2277       759  TIP3      H2             12.6843133595      -51.9140122861      -22.1168696465  W2        759             0.0000000000
      2278       760  TIP3      OH2            13.8496633595      -51.3973422861      -31.1739296465  W2        760             0.0000000000
      2279       760  TIP3      H1             14.0694933595      -50.9258022861      -31.9773896465  W2        760             0.0000000000
      2280       760  TIP3      H2             14.4080633595      -51.0030822861      -30.5038696465  W2        760             0.0000000000
      2281       761  TIP3      OH2            11.5182733595      -39.2668622861      -32.3111796465  W2        761             0.0000000000
      2282       761  TIP3      H1             10.7018833595      -38.7698922861      -32.2587496465  W2        761             0.0000000000
      2283       761  TIP3      H2             12.0479033595      -38.7915122861      -32.9512996465  W2        761             0.0000000000
      2284       762  TIP3      OH2            11.0496533595      -49.6694622861      -30.3390896465  W2        762             0.0000000000
      2285       762  TIP3      H1             11.8619133595      -49.1651422861      -30.2929196465  W2        762             0.0000000000
      2286       762  TIP3      H2             10.8049533595      -49.8144922861      -29.4251296465  W2        762             0.0000000000
      2287       763  TIP3      OH2            11.5852933595      -48.6831922861      -21.1544296465  W2        763             0.0000000000
      2288       763  TIP3      H1             11.7043233595      -48.1096522861      -20.3973896465  W2        763             0.0000000000
      2289       763  TIP3      H2             12.2407533595      -49.3712522861      -21.0396496465  W2        763             0.0000000000
      2290       764  TIP3      OH2            11.9333233595      -52.5881622861      -29.4009796465  W2        764             0.0000000000
      2291       764  TIP3      H1             11.5866733595      -51.9711022861      -28.7565496465  W2        764             0.0000000000
      2292       764  TIP3      H2             12.5920133595      -52.0875922861      -29.8824296465  W2        764             0.0000000000
      2293       765  TIP3      OH2             8.8565833595      -38.2231422861      -32.3294896465  W2        765             0.0000000000
      2294       765  TIP3      H1              9.0174533595      -37.4233922861      -32.8302296465  W2        765             0.0000000000
      2295       765  TIP3      H2              8.6593633595      -37.9165422861      -31.4444296465  W2        765             0.0000000000
      2296       766  TIP3      OH2             7.5910233595      -51.5252222861      -32.7137296465  W2        766             0.0000000000
      2297       766  TIP3      H1              7.5075033595      -50.6369122861      -32.3670896465  W2        766             0.0000000000
      2298       766  TIP3      H2              8.4810533595      -51.7905522861      -32.4820496465  W2        766             0.0000000000
      2299       767  TIP3      OH2            17.7898733595      -50.7761622861      -20.3194596465  W2        767             0.0000000000
      2300       767  TIP3      H1             16.8734533595      -50.5139922861      -20.4070896465  W2        767             0.0000000000
      2301       767  TIP3      H2             18.1253733595      -50.7792622861      -21.2159296465  W2        767             0.0000000000
      2302       768  TIP3      OH2            16.3919733595      -47.0260622861      -26.2237296465  W2        768             0.0000000000
      2303       768  TIP3      H1             15.5944133595      -47.4410422861      -26.5522296465  W2        768             0.0000000000
      2304       768  TIP3      H2             16.8370833595      -47.7166922861      -25.7326796465  W2        768             0.0000000000
      2305       769  TIP3      OH2             5.8495533595      -41.0980022861      -33.6532796465  W2        769             0.0000000000
      2306       769  TIP3      H1              6.4417033595      -40.3985222861      -33.3770396465  W2        769             0.0000000000
      2307       769  TIP3      H2              6.3088533595      -41.5310522861      -34.3728196465  W2        769             0.0000000000
      2308       770  TIP3      OH2             4.1654733595      -48.4337022861      -34.5373396465  W2        770             0.0000000000
      2309       770  TIP3      H1              4.1207333595      -47.4943922861      -34.3586396465  W2        770             0.0000000000
      2310       770  TIP3      H2              3.2777933595      -48.6692122861      -34.8071296465  W2        770             0.0000000000
      2311       771  TIP3      OH2            17.4784333595      -37.7698122861      -24.6013796465  W2        771             0.0000000000
      2312       771  TIP3      H1             17.3228633595      -37.0913722861      -25.2584496465  W2        771             0.0000000000
      2313       771  TIP3      H2             18.4110733595      -37.6978822861      -24.3983196465  W2        771             0.0000000000
      2314       772  TIP3      OH2             4.9736733595      -53.6520422861      -25.8642396465  W2        772             0.0000000000
      2315       772  TIP3      H1              4.7446533595      -53.5927922861      -26.7917396465  W2        772             0.0000000000
      2316       772  TIP3      H2              4.5310133595      -54.4434922861      -25.5578296465  W2        772             0.0000000000
      2317       773  TIP3      OH2             3.9040033595      -39.7113322861      -29.7036596465  W2        773             0.0000000000
      2318       773  TIP3      H1              3.0718633595      -39.2390622861      -29.6765196465  W2        773             0.0000000000
      2319       773  TIP3      H2              4.4498333595      -39.2015722861      -30.3023496465  W2        773             0.0000000000
      2320       774  TIP3      OH2             3.1923733595      -37.0989622861      -18.3738596465  W2        774             0.0000000000
      2321       774  TIP3      H1              3.7325933595      -37.3155622861      -17.6139396465  W2        774             0.0000000000
      2322       774  TIP3      H2              2.7111733595      -37.9043622861      -18.5636096465  W2        774             0.0000000000
      2323       775  TIP3      OH2             7.7897133595      -38.1795222861      -16.7534396465  W2        775             0.0000000000
      2324       775  TIP3      H1              8.5574333595      -38.6384422861      -16.4125196465  W2        775             0.0000000000
      2325       775  TIP3      H2              7.7683333595      -38.4055422861      -17.6833196465  W2        775             0.0000000000
      2326       776  TIP3      OH2            11.8816733595      -38.6714622861      -35.3782596465  W2        776             0.0000000000
      2327       776  TIP3      H1             11.2377733595      -39.3026022861      -35.0568896465  W2        776             0.0000000000
      2328       776  TIP3      H2             12.6435033595      -39.2026622861      -35.6099096465  W2        776             0.0000000000
      2329       777  TIP3      OH2            14.3665833595      -39.7994122861      -18.0242896465  W2        777             0.0000000000
      2330       777  TIP3      H1             14.0155333595      -40.6561122861      -17.7812496465  W2        777             0.0000000000
      2331       777  TIP3      H2             15.0929033595      -39.6567422861      -17.4173896465  W2        777             0.0000000000
      2332       778  TIP3      OH2            16.4859633595      -38.8544722861      -35.1444596465  W2        778             0.0000000000
      2333       778  TIP3      H1             16.7690033595      -39.6489522861      -34.6917696465  W2        778             0.0000000000
      2334       778  TIP3      H2             17.2257533595      -38.6213722861      -35.7053496465  W2        778             0.0000000000
      2335       779  TIP3      OH2             3.0993233595      -43.2885522861      -17.4194296465  W2        779             0.0000000000
      2336       779  TIP3      H1              3.2433733595      -44.1904822861      -17.7057596465  W2        779             0.0000000000
      2337       779  TIP3      H2              2.3270633595      -43.0023422861      -17.9071996465  W2        779             0.0000000000
      2338       780  TIP3      OH2             7.4406933595      -42.9449822861      -35.2869696465  W2        780             0.0000000000
      2339       780  TIP3      H1              7.5051033595      -43.7390222861      -34.7563296465  W2        780             0.0000000000
      2340       780  TIP3      H2              8.0936133595      -43.0637022861      -35.9767696465  W2        780             0.0000000000
      2341       781  TIP3      OH2             9.7549333595      -43.3187422861      -17.9867896465  W2        781             0.0000000000
      2342       781  TIP3      H1              9.4263133595      -43.0479322861      -18.8440496465  W2        781             0.0000000000
      2343       781  TIP3      H2              9.9067533595      -44.2597622861      -18.0742896465  W2        781             0.0000000000
      2344       782  TIP3      OH2            12.7930333595      -41.8978122861      -35.5511696465  W2        782             0.0000000000
      2345       782  TIP3      H1             12.5244433595      -41.7176022861      -34.6502796465  W2        782             0.0000000000
      2346       782  TIP3      H2             12.5865933595      -42.8231922861      -35.6825896465  W2        782             0.0000000000
      2347       783  TIP3      OH2            15.4894533595      -43.4030122861      -20.6035596465  W2        783             0.0000000000
      2348       783  TIP3      H1             16.2349333595      -42.8146422861      -20.7231596465  W2        783             0.0000000000
      2349       783  TIP3      H2             14.7321333595      -42.8210422861      -20.5402496465  W2        783             0.0000000000
      2350       784  TIP3      OH2             3.9319733595      -46.0882222861      -17.9994996465  W2        784             0.0000000000
      2351       784  TIP3      H1              4.3400933595      -46.9455622861      -18.1204396465  W2        784             0.0000000000
      2352       784  TIP3      H2              3.6717333595      -46.0740922861      -17.0784696465  W2        784             0.0000000000
      2353       785  TIP3      OH2             8.5900733595      -44.9723622861      -32.9811696465  W2        785             0.0000000000
      2354       785  TIP3      H1              8.1302733595      -45.4565322861      -32.2953196465  W2        785             0.0000000000
      2355       785  TIP3      H2              8.8449433595      -45.6408222861      -33.6171196465  W2        785             0.0000000000
      2356       786  TIP3      OH2             7.8790033595      -47.0796522861      -20.6252096465  W2        786             0.0000000000
      2357       786  TIP3      H1              7.2606133595      -46.4049922861      -20.3447396465  W2        786             0.0000000000
      2358       786  TIP3      H2              8.2231233595      -46.7582622861      -21.4585896465  W2        786             0.0000000000
      2359       787  TIP3      OH2             9.6611133595      -46.7291822861      -34.7188496465  W2        787             0.0000000000
      2360       787  TIP3      H1              9.4806133595      -46.8840622861      -35.6460196465  W2        787             0.0000000000
      2361       787  TIP3      H2             10.6111633595      -46.6213122861      -34.6740596465  W2        787             0.0000000000
      2362       788  TIP3      OH2            12.8988233595      -44.6081222861      -17.3477296465  W2        788             0.0000000000
      2363       788  TIP3      H1             13.8519433595      -44.5242122861      -17.3751296465  W2        788             0.0000000000
      2364       788  TIP3      H2             12.7382833595      -45.3199422861      -16.7282396465  W2        788             0.0000000000
      2365       789  TIP3      OH2            19.0509433595      -44.3747622861      -35.2730396465  W2        789             0.0000000000
      2366       789  TIP3      H1             18.7774233595      -44.7992122861      -36.0862096465  W2        789             0.0000000000
      2367       789  TIP3      H2             19.0903533595      -43.4433122861      -35.4899996465  W2        789             0.0000000000
      2368       790  TIP3      OH2             8.2183733595      -49.7245722861      -19.5428996465  W2        790             0.0000000000
      2369       790  TIP3      H1              8.3684633595      -50.4534422861      -20.1449296465  W2        790             0.0000000000
      2370       790  TIP3      H2              8.2206133595      -48.9474022861      -20.1016796465  W2        790             0.0000000000
      2371       791  TIP3      OH2             8.6309433595      -51.3549922861      -22.0501596465  W2        791             0.0000000000
      2372       791  TIP3      H1              9.1666933595      -50.9033222861      -22.7022296465  W2        791             0.0000000000
      2373       791  TIP3      H2              7.7789033595      -51.4630122861      -22.4727496465  W2        791             0.0000000000
      2374       792  TIP3      OH2            10.2127833595      -45.9153722861      -21.8106396465  W2        792             0.0000000000
      2375       792  TIP3      H1             10.9632633595      -46.0716222861      -22.3838596465  W2        792             0.0000000000
      2376       792  TIP3      H2              9.8736133595      -45.0637122861      -22.0860896465  W2        792             0.0000000000
      2377       793  TIP3      OH2            14.6284033595      -48.1001922861      -16.7821096465  W2        793             0.0000000000
      2378       793  TIP3      H1             14.8205333595      -49.0312522861      -16.8936596465  W2        793             0.0000000000
      2379       793  TIP3      H2             15.4860333595      -47.6752422861      -16.7925696465  W2        793             0.0000000000
      2380       794  TIP3      OH2            15.9451233595      -45.3116722861      -18.7048396465  W2        794             0.0000000000
      2381       794  TIP3      H1             15.6636233595      -44.6022122861      -19.2824596465  W2        794             0.0000000000
      2382       794  TIP3      H2             16.8875533595      -45.3843722861      -18.8557196465  W2        794             0.0000000000
      2383       795  TIP3      OH2             6.6970033595      -48.5262222861      -17.6313396465  W2        795             0.0000000000
      2384       795  TIP3      H1              5.9299033595      -49.0587422861      -17.8415796465  W2        795             0.0000000000
      2385       795  TIP3      H2              7.3759033595      -48.8361822861      -18.2307096465  W2        795             0.0000000000
      2386       796  TIP3      OH2             9.4364933595      -53.8984222861      -21.6187996465  W2        796             0.0000000000
      2387       796  TIP3      H1              9.3384533595      -52.9521022861      -21.7241796465  W2        796             0.0000000000
      2388       796  TIP3      H2              8.6941133595      -54.2710422861      -22.0944496465  W2        796             0.0000000000
      2389       797  TIP3      OH2            10.7005433595      -49.5768822861      -18.0549596465  W2        797             0.0000000000
      2390       797  TIP3      H1             10.4650833595      -49.7962122861      -17.1534696465  W2        797             0.0000000000
      2391       797  TIP3      H2              9.9172333595      -49.7837622861      -18.5647096465  W2        797             0.0000000000
      2392       798  TIP3      OH2            13.4162033595      -50.4495322861      -18.9796096465  W2        798             0.0000000000
      2393       798  TIP3      H1             12.4687433595      -50.4175622861      -18.8472796465  W2        798             0.0000000000
      2394       798  TIP3      H2             13.7288733595      -51.0748222861      -18.3257896465  W2        798             0.0000000000
      2395       799  TIP3      OH2            15.0503533595      -51.8154222861      -16.9744196465  W2        799             0.0000000000
      2396       799  TIP3      H1             14.9535333595      -52.7676922861      -16.9802296465  W2        799             0.0000000000
      2397       799  TIP3      H2             14.7286633595      -51.5467422861      -16.1138696465  W2        799             0.0000000000
      2398       800  TIP3      OH2             4.8772833595      -50.6058422861      -17.9268696465  W2        800             0.0000000000
      2399       800  TIP3      H1              5.0890233595      -51.3122322861      -18.5371196465  W2        800             0.0000000000
      2400       800  TIP3      H2              4.7660333595      -51.0432422861      -17.0827496465  W2        800             0.0000000000
      2401       801  TIP3      OH2             9.6583033595      -54.6046822861      -18.9475196465  W2        801             0.0000000000
      2402       801  TIP3      H1             10.3701433595      -55.2444622861      -18.9616096465  W2        801             0.0000000000
      2403       801  TIP3      H2              9.5573433595      -54.3378522861      -19.8612096465  W2        801             0.0000000000
      2404       802  TIP3      OH2            10.0120533595      -52.9218422861      -16.8938896465  W2        802             0.0000000000
      2405       802  TIP3      H1              9.8802733595      -53.3974622861      -17.7140396465  W2        802             0.0000000000
      2406       802  TIP3      H2              9.4127933595      -52.1774822861      -16.9491796465  W2        802             0.0000000000
      2407       803  TIP3      OH2             9.5582833595      -36.0388122861      -33.7174896465  W2        803             0.0000000000
      2408       803  TIP3      H1             10.4913533595      -35.8809422861      -33.5736496465  W2        803             0.0000000000
      2409       803  TIP3      H2              9.2941633595      -35.3635122861      -34.3423396465  W2        803             0.0000000000
      2410       804  TIP3      OH2             3.1267733595      -41.4024322861      -34.2346796465  W2        804             0.0000000000
      2411       804  TIP3      H1              4.0406933595      -41.3235422861      -33.9612896465  W2        804             0.0000000000
      2412       804  TIP3      H2              3.1340833595      -42.0894722861      -34.9011196465  W2        804             0.0000000000
      2413       805  TIP3      OH2             1.7758333595      -36.0095822861      -29.1572896465  W2        805             0.0000000000
      2414       805  TIP3      H1              1.1285433595      -36.4714122861      -29.6901696465  W2        805             0.0000000000
      2415       805  TIP3      H2              2.1302933595      -36.6812522861      -28.5746696465  W2        805             0.0000000000
      2416       806  TIP3      OH2             2.6457533595      -37.9288822861      -27.3526696465  W2        806             0.0000000000
      2417       806  TIP3      H1              2.3114333595      -38.8091522861      -27.1806496465  W2        806             0.0000000000
      2418       806  TIP3      H2              2.8679933595      -37.5833822861      -26.4881096465  W2        806             0.0000000000
      2419       807  TIP3      OH2            20.1942333595      -37.1192422861      -24.3721896465  W2        807             0.0000000000
      2420       807  TIP3      H1             20.1729033595      -36.9344022861      -23.4332496465  W2        807             0.0000000000
      2421       807  TIP3      H2             20.8848533595      -36.5508422861      -24.7130496465  W2        807             0.0000000000
      2422       808  TIP3      OH2            19.7575233595      -37.5521322861      -21.4502796465  W2        808             0.0000000000
      2423       808  TIP3      H1             19.2703933595      -38.2877222861      -21.8215396465  W2        808             0.0000000000
      2424       808  TIP3      H2             20.3067933595      -37.9457422861      -20.7723396465  W2        808             0.0000000000
      2425       809  TIP3      OH2            18.2082533595      -41.7623222861      -16.8122496465  W2        809             0.0000000000
      2426       809  TIP3      H1             17.3423633595      -41.8673522861      -16.4180196465  W2        809             0.0000000000
      2427       809  TIP3      H2             18.5848433595      -41.0039922861      -16.3657796465  W2        809             0.0000000000
      2428       810  TIP3      OH2            19.5092233595      -43.5059522861      -31.2979996465  W2        810             0.0000000000
      2429       810  TIP3      H1             20.3593633595      -43.0848622861      -31.1708396465  W2        810             0.0000000000
      2430       810  TIP3      H2             19.5147333595      -44.2459422861      -30.6908596465  W2        810             0.0000000000
      2431       811  TIP3      OH2            19.9037833595      -45.4522122861      -29.4744296465  W2        811             0.0000000000
      2432       811  TIP3      H1             19.1772433595      -45.9319522861      -29.0766696465  W2        811             0.0000000000
      2433       811  TIP3      H2             20.4851133595      -45.2467422861      -28.7422696465  W2        811             0.0000000000
      2434       812  TIP3      OH2            19.6629033595      -42.6674622861      -24.5266696465  W2        812             0.0000000000
      2435       812  TIP3      H1             20.4963233595      -43.0454622861      -24.8073096465  W2        812             0.0000000000
      2436       812  TIP3      H2             19.7749333595      -41.7243422861      -24.6457596465  W2        812             0.0000000000
      2437       813  TIP3      OH2            18.1491333595      -39.7897122861      -22.2198296465  W2        813             0.0000000000
      2438       813  TIP3      H1             17.5016633595      -39.4645622861      -21.5943096465  W2        813             0.0000000000
      2439       813  TIP3      H2             17.6315333595      -40.2299422861      -22.8939996465  W2        813             0.0000000000
      2440       814  TIP3      OH2            20.1720933595      -45.5513622861      -33.0832996465  W2        814             0.0000000000
      2441       814  TIP3      H1             19.6502033595      -45.1949522861      -33.8022096465  W2        814             0.0000000000
      2442       814  TIP3      H2             20.1390133595      -44.8765822861      -32.4052096465  W2        814             0.0000000000
      2443       815  TIP3      OH2            18.5209933595      -48.3118022861      -34.5325896465  W2        815             0.0000000000
      2444       815  TIP3      H1             18.6174333595      -47.6451022861      -35.2126196465  W2        815             0.0000000000
      2445       815  TIP3      H2             18.3809533595      -49.1271722861      -35.0140396465  W2        815             0.0000000000
      2446       816  TIP3      OH2            17.6904633595      -46.9315622861      -28.9115596465  W2        816             0.0000000000
      2447       816  TIP3      H1             17.5403433595      -47.8767022861      -28.9317796465  W2        816             0.0000000000
      2448       816  TIP3      H2             17.3369133595      -46.6504222861      -28.0676496465  W2        816             0.0000000000
      2449       817  TIP3      OH2             2.7257033595      -44.8533422861      -24.9011796465  W2        817             0.0000000000
      2450       817  TIP3      H1              2.9099933595      -44.9351722861      -25.8368896465  W2        817             0.0000000000
      2451       817  TIP3      H2              3.5749933595      -44.9776422861      -24.4775396465  W2        817             0.0000000000
      2452       818  TIP3      OH2            18.5467533595      -44.9612322861      -19.2727296465  W2        818             0.0000000000
      2453       818  TIP3      H1             19.1294833595      -45.6960022861      -19.0810096465  W2        818             0.0000000000
      2454       818  TIP3      H2             19.1106833595      -44.1892022861      -19.2261496465  W2        818             0.0000000000
      2455       819  TIP3      OH2            20.0434633595      -47.0586522861      -18.5881896465  W2        819             0.0000000000
      2456       819  TIP3      H1             19.1801333595      -47.4374422861      -18.7537196465  W2        819             0.0000000000
      2457       819  TIP3      H2             20.6478333595      -47.7971722861      -18.6626096465  W2        819             0.0000000000
      2458       820  TIP3      OH2            17.7683733595      -50.9038222861      -35.4150396465  W2        820             0.0000000000
      2459       820  TIP3      H1             18.3789533595      -51.2751422861      -34.7782196465  W2        820             0.0000000000
      2460       820  TIP3      H2             16.9315233595      -51.3251322861      -35.2190396465  W2        820             0.0000000000
      2461       821  TIP3      OH2            17.4009433595      -49.3489822861      -30.4490496465  W2        821             0.0000000000
      2462       821  TIP3      H1             17.6806533595      -50.2559422861      -30.3248796465  W2        821             0.0000000000
      2463       821  TIP3      H2             18.1601133595      -48.9148322861      -30.8381296465  W2        821             0.0000000000
      2464       822  TIP3      OH2            18.0127733595      -48.7672422861      -25.0131596465  W2        822             0.0000000000
      2465       822  TIP3      H1             18.9455733595      -48.5552522861      -25.0475596465  W2        822             0.0000000000
      2466       822  TIP3      H2             17.7775233595      -48.6660322861      -24.0908596465  W2        822             0.0000000000
      2467       823  TIP3      OH2            18.0419633595      -48.0307122861      -22.2372196465  W2        823             0.0000000000
      2468       823  TIP3      H1             17.1990933595      -47.7626722861      -21.8712396465  W2        823             0.0000000000
      2469       823  TIP3      H2             18.4843933595      -47.2085222861      -22.4481096465  W2        823             0.0000000000
      2470       824  TIP3      OH2             2.3231833595      -49.5828422861      -18.7602996465  W2        824             0.0000000000
      2471       824  TIP3      H1              3.2426733595      -49.7050122861      -18.5239896465  W2        824             0.0000000000
      2472       824  TIP3      H2              1.8736333595      -50.3328722861      -18.3709496465  W2        824             0.0000000000
      2473       825  TIP3      OH2            20.3251233595      -54.0506922861      -16.8837196465  W2        825             0.0000000000
      2474       825  TIP3      H1             20.6748233595      -54.7043422861      -17.4892496465  W2        825             0.0000000000
      2475       825  TIP3      H2             20.4720733595      -53.2132822861      -17.3234596465  W2        825             0.0000000000
      2476       826  TIP3      OH2            18.0144233595      -52.0860522861      -30.4008496465  W2        826             0.0000000000
      2477       826  TIP3      H1             18.1969233595      -52.5349022861      -29.5753496465  W2        826             0.0000000000
      2478       826  TIP3      H2             17.4147133595      -52.6706122861      -30.8643896465  W2        826             0.0000000000
      2479       827  TIP3      OH2             3.5444333595      -51.2706822861      -25.8690096465  W2        827             0.0000000000
      2480       827  TIP3      H1              3.9895933595      -52.0624322861      -25.5670396465  W2        827             0.0000000000
      2481       827  TIP3      H2              4.0107333595      -50.5541622861      -25.4384496465  W2        827             0.0000000000
      2482       828  TIP3      OH2             1.8484633595      -48.2713822861      -24.7999896465  W2        828             0.0000000000
      2483       828  TIP3      H1              2.3404433595      -48.4923322861      -25.5907896465  W2        828             0.0000000000
      2484       828  TIP3      H2              2.2105533595      -47.4310422861      -24.5190396465  W2        828             0.0000000000
      2485       829  TIP3      OH2            19.8448433595      -51.9412322861      -18.5345896465  W2        829             0.0000000000
      2486       829  TIP3      H1             18.9274133595      -51.6705222861      -18.5702396465  W2        829             0.0000000000
      2487       829  TIP3      H2             19.9677833595      -52.4763922861      -19.3186196465  W2        829             0.0000000000
      2488       830  TIP3      OH2            19.8810433595      -52.0182422861      -33.8728196465  W2        830             0.0000000000
      2489       830  TIP3      H1             20.2933033595      -52.7396722861      -34.3480196465  W2        830             0.0000000000
      2490       830  TIP3      H2             20.5626933595      -51.3487822861      -33.8143896465  W2        830             0.0000000000
      2491       831  TIP3      OH2             2.1621133595      -52.0134722861      -30.7457496465  W2        831             0.0000000000
      2492       831  TIP3      H1              1.2369533595      -51.8048122861      -30.8751996465  W2        831             0.0000000000
      2493       831  TIP3      H2              2.6161033595      -51.5293922861      -31.4355196465  W2        831             0.0000000000
      2494       832  TIP3      OH2            16.9328333595      -37.0293022861      -28.8000096465  W2        832             0.0000000000
      2495       832  TIP3      H1             17.5851233595      -37.3770922861      -29.4080996465  W2        832             0.0000000000
      2496       832  TIP3      H2             17.4432133595      -36.5409822861      -28.1540396465  W2        832             0.0000000000
      2497       833  TIP3      OH2             2.1256533595      -53.2755722861      -22.4014996465  W2        833             0.0000000000
      2498       833  TIP3      H1              1.4607033595      -53.5215422861      -21.7584096465  W2        833             0.0000000000
      2499       833  TIP3      H2              1.6827833595      -52.6535322861      -22.9786996465  W2        833             0.0000000000
      2500       834  TIP3      OH2             4.3175833595      -40.1001622861      -18.2569196465  W2        834             0.0000000000
      2501       834  TIP3      H1              3.4968333595      -39.9255122861      -18.7174496465  W2        834             0.0000000000
      2502       834  TIP3      H2              4.0653633595      -40.1736922861      -17.3364796465  W2        834             0.0000000000
      2503       835  TIP3      OH2             7.2718733595      -39.1260422861      -21.9985196465  W2        835             0.0000000000
      2504       835  TIP3      H1              6.8469833595      -38.3161922861      -22.2810596465  W2        835             0.0000000000
      2505       835  TIP3      H2              8.1761533595      -39.0406322861      -22.3005396465  W2        835             0.0000000000
      2506       836  TIP3      OH2            11.5830133595      -37.7270422861      -19.0391496465  W2        836             0.0000000000
      2507       836  TIP3      H1             11.7677633595      -38.0604322861      -18.1611196465  W2        836             0.0000000000
      2508       836  TIP3      H2             12.4294633595      -37.4171822861      -19.3612296465  W2        836             0.0000000000
      2509       837  TIP3      OH2            13.9280533595      -36.4411522861      -19.7950096465  W2        837             0.0000000000
      2510       837  TIP3      H1             14.6049433595      -37.0739222861      -20.0350896465  W2        837             0.0000000000
      2511       837  TIP3      H2             14.2499333595      -36.0401022861      -18.9876796465  W2        837             0.0000000000
      2512       838  TIP3      OH2            18.8454333595      -53.8516022861      -20.7155096465  W2        838             0.0000000000
      2513       838  TIP3      H1             18.0327833595      -53.5265722861      -21.1030396465  W2        838             0.0000000000
      2514       838  TIP3      H2             19.0782833595      -54.6117522861      -21.2485996465  W2        838             0.0000000000
      2515       839  TIP3      OH2             4.6735433595      -35.8696522861      -21.9509896465  W2        839             0.0000000000
      2516       839  TIP3      H1              3.9531833595      -35.4295522861      -22.4022196465  W2        839             0.0000000000
      2517       839  TIP3      H2              4.3079433595      -36.1201822861      -21.1025896465  W2        839             0.0000000000
      2518       840  TIP3      OH2             7.1408033595      -36.2692622861      -22.9212696465  W2        840             0.0000000000
      2519       840  TIP3      H1              6.2760233595      -36.1974122861      -22.5172596465  W2        840             0.0000000000
      2520       840  TIP3      H2              7.0857033595      -35.7225322861      -23.7050196465  W2        840             0.0000000000
      2521       841  TIP3      OH2            11.8513633595      -36.3813722861      -23.7456696465  W2        841             0.0000000000
      2522       841  TIP3      H1             11.3947633595      -35.8524022861      -24.3998296465  W2        841             0.0000000000
      2523       841  TIP3      H2             12.0141633595      -35.7782322861      -23.0204396465  W2        841             0.0000000000
      2524       842  TIP3      OH2            14.1789933595      -37.5034122861      -22.8006396465  W2        842             0.0000000000
      2525       842  TIP3      H1             13.2743633595      -37.3383922861      -23.0664296465  W2        842             0.0000000000
      2526       842  TIP3      H2             14.6078533595      -36.6501922861      -22.8662996465  W2        842             0.0000000000
      2527       843  TIP3      OH2            16.7831833595      -35.9335022861      -22.5058596465  W2        843             0.0000000000
      2528       843  TIP3      H1             16.6013833595      -35.0176122861      -22.7163696465  W2        843             0.0000000000
      2529       843  TIP3      H2             16.9599633595      -36.3437922861      -23.3523996465  W2        843             0.0000000000
      2530       844  TIP3      OH2             4.0883533595      -37.2464022861      -25.0408096465  W2        844             0.0000000000
      2531       844  TIP3      H1              4.0699533595      -37.6718922861      -24.1835796465  W2        844             0.0000000000
      2532       844  TIP3      H2              4.8931433595      -37.5649022861      -25.4495896465  W2        844             0.0000000000
      2533       845  TIP3      OH2             6.2296633595      -38.5365322861      -26.3858196465  W2        845             0.0000000000
      2534       845  TIP3      H1              6.0107333595      -39.4527922861      -26.2162196465  W2        845             0.0000000000
      2535       845  TIP3      H2              7.0538833595      -38.3964922861      -25.9196796465  W2        845             0.0000000000
      2536       846  TIP3      OH2             8.7669133595      -38.0666022861      -25.5370196465  W2        846             0.0000000000
      2537       846  TIP3      H1              8.9794833595      -38.9547022861      -25.8239296465  W2        846             0.0000000000
      2538       846  TIP3      H2              8.8314233595      -38.1008322861      -24.5826196465  W2        846             0.0000000000
      2539       847  TIP3      OH2            12.2752833595      -52.4025422861      -26.3926896465  W2        847             0.0000000000
      2540       847  TIP3      H1             11.6009633595      -53.0319822861      -26.1371096465  W2        847             0.0000000000
      2541       847  TIP3      H2             12.8392033595      -52.8866522861      -26.9958996465  W2        847             0.0000000000
      2542       848  TIP3      OH2            17.4180033595      -54.2951422861      -26.2799796465  W2        848             0.0000000000
      2543       848  TIP3      H1             18.0217633595      -53.7476022861      -26.7818796465  W2        848             0.0000000000
      2544       848  TIP3      H2             16.5482033595      -53.9761022861      -26.5205696465  W2        848             0.0000000000
      2545       849  TIP3      OH2            19.1450433595      -53.1562722861      -27.9468896465  W2        849             0.0000000000
      2546       849  TIP3      H1             19.7567933595      -53.6707022861      -28.4735296465  W2        849             0.0000000000
      2547       849  TIP3      H2             19.5273833595      -52.2790622861      -27.9234496465  W2        849             0.0000000000
      2548       850  TIP3      OH2             4.6020333595      -53.7685122861      -28.5706996465  W2        850             0.0000000000
      2549       850  TIP3      H1              3.8250133595      -54.0030222861      -29.0781096465  W2        850             0.0000000000
      2550       850  TIP3      H2              5.1323933595      -54.5653022861      -28.5618996465  W2        850             0.0000000000
      2551       851  TIP3      OH2             3.4383733595      -53.9707022861      -32.7670896465  W2        851             0.0000000000
      2552       851  TIP3      H1              3.8774433595      -53.3596522861      -33.3587396465  W2        851             0.0000000000
      2553       851  TIP3      H2              2.8046133595      -53.4322922861      -32.2930896465  W2        851             0.0000000000
      2554       852  TIP3      OH2             9.1812933595      -53.8418022861      -28.7573896465  W2        852             0.0000000000
      2555       852  TIP3      H1             10.0556333595      -53.4533722861      -28.7869596465  W2        852             0.0000000000
      2556       852  TIP3      H2              9.0453733595      -54.0570222861      -27.8346696465  W2        852             0.0000000000
      2557       853  TIP3      OH2            14.7381333595      -53.8118222861      -27.1082196465  W2        853             0.0000000000
      2558       853  TIP3      H1             14.8142933595      -53.7166622861      -28.0576196465  W2        853             0.0000000000
      2559       853  TIP3      H2             14.4630533595      -54.7195322861      -26.9793096465  W2        853             0.0000000000
      2560       854  TIP3      OH2            16.0913933595      -53.7860422861      -31.4157196465  W2        854             0.0000000000
      2561       854  TIP3      H1             15.3885033595      -53.1711222861      -31.6255796465  W2        854             0.0000000000
      2562       854  TIP3      H2             15.6465333595      -54.6233722861      -31.2846296465  W2        854             0.0000000000
      2563       855  TIP3      OH2             3.3393233595      -38.0224822861      -31.8695796465  W2        855             0.0000000000
      2564       855  TIP3      H1              2.6543133595      -38.0605922861      -32.5370696465  W2        855             0.0000000000
      2565       855  TIP3      H2              3.3430433595      -37.1097222861      -31.5813696465  W2        855             0.0000000000
      2566       856  TIP3      OH2             5.2992833595      -52.0545522861      -34.3246796465  W2        856             0.0000000000
      2567       856  TIP3      H1              5.7906233595      -52.6843122861      -34.8521296465  W2        856             0.0000000000
      2568       856  TIP3      H2              5.9229133595      -51.7586122861      -33.6615596465  W2        856             0.0000000000
      2569       857  TIP3      OH2            10.3252933595      -51.7614022861      -31.8676296465  W2        857             0.0000000000
      2570       857  TIP3      H1             10.5034233595      -52.4080822861      -31.1847696465  W2        857             0.0000000000
      2571       857  TIP3      H2             10.2719133595      -50.9276322861      -31.4005196465  W2        857             0.0000000000
      2572       858  TIP3      OH2            12.2036733595      -36.8129922861      -33.4719596465  W2        858             0.0000000000
      2573       858  TIP3      H1             13.0696933595      -36.4462522861      -33.6501396465  W2        858             0.0000000000
      2574       858  TIP3      H2             11.9569533595      -37.2521922861      -34.2858796465  W2        858             0.0000000000
      2575       859  TIP3      OH2            18.9126333595      -37.2499622861      -30.7928496465  W2        859             0.0000000000
      2576       859  TIP3      H1             18.7183433595      -37.9977522861      -31.3578896465  W2        859             0.0000000000
      2577       859  TIP3      H2             18.8736433595      -36.4919522861      -31.3760596465  W2        859             0.0000000000
      2578       860  TIP3      OH2             4.5598333595      -53.2543222861      -19.0530796465  W2        860             0.0000000000
      2579       860  TIP3      H1              4.1936533595      -54.0200622861      -18.6106096465  W2        860             0.0000000000
      2580       860  TIP3      H2              5.4726833595      -53.2253022861      -18.7665696465  W2        860             0.0000000000
      2581       861  TIP3      OH2             6.5329133595      -53.9038822861      -17.5173696465  W2        861             0.0000000000
      2582       861  TIP3      H1              7.4312733595      -54.1778622861      -17.7020296465  W2        861             0.0000000000
      2583       861  TIP3      H2              6.1462233595      -54.6462822861      -17.0531096465  W2        861             0.0000000000
      2584       862  TIP3      OH2             5.1574433595      -37.1024022861      -34.8443696465  W2        862             0.0000000000
      2585       862  TIP3      H1              4.8899033595      -36.8161122861      -33.9710596465  W2        862             0.0000000000
      2586       862  TIP3      H2              5.9287033595      -37.6484822861      -34.6921196465  W2        862             0.0000000000
      2587       863  TIP3      OH2            14.9541433595      -54.5713522861      -17.3350896465  W2        863             0.0000000000
      2588       863  TIP3      H1             15.0308633595      -54.9972822861      -16.4813196465  W2        863             0.0000000000
      2589       863  TIP3      H2             15.8478033595      -54.5578822861      -17.6777396465  W2        863             0.0000000000
      2590       864  TIP3      OH2            18.1302533595      -38.4987222861      -18.6426696465  W2        864             0.0000000000
      2591       864  TIP3      H1             17.3484433595      -38.6849222861      -19.1626096465  W2        864             0.0000000000
      2592       864  TIP3      H2             18.0582433595      -37.5692922861      -18.4254196465  W2        864             0.0000000000
      2593       865  TIP3      OH2            32.5362933595      -44.6122822861      -28.6119496465  W2        865             0.0000000000
      2594       865  TIP3      H1             32.6254033595      -43.6684622861      -28.7442396465  W2        865             0.0000000000
      2595       865  TIP3      H2             31.8980533595      -44.8876422861      -29.2700096465  W2        865             0.0000000000
      2596       866  TIP3      OH2            31.4694233595      -45.3572122861      -25.1931296465  W2        866             0.0000000000
      2597       866  TIP3      H1             31.4311733595      -46.0035822861      -24.4881696465  W2        866             0.0000000000
      2598       866  TIP3      H2             31.1470733595      -45.8237722861      -25.9642596465  W2        866             0.0000000000
      2599       867  TIP3      OH2            23.8379233595      -45.7430022861      -23.6001396465  W2        867             0.0000000000
      2600       867  TIP3      H1             23.8791333595      -46.3686722861      -22.8768996465  W2        867             0.0000000000
      2601       867  TIP3      H2             24.5406933595      -45.1191422861      -23.4180996465  W2        867             0.0000000000
      2602       868  TIP3      OH2            35.1754433595      -42.4181722861      -26.8916196465  W2        868             0.0000000000
      2603       868  TIP3      H1             34.7347133595      -43.1385722861      -26.4410596465  W2        868             0.0000000000
      2604       868  TIP3      H2             35.1624133595      -41.6974522861      -26.2618496465  W2        868             0.0000000000
      2605       869  TIP3      OH2            24.7612333595      -41.2931122861      -25.0652296465  W2        869             0.0000000000
      2606       869  TIP3      H1             24.3917533595      -42.0950622861      -25.4347996465  W2        869             0.0000000000
      2607       869  TIP3      H2             25.7023433595      -41.4616222861      -25.0188896465  W2        869             0.0000000000
      2608       870  TIP3      OH2            21.3712833595      -47.6328522861      -29.6723496465  W2        870             0.0000000000
      2609       870  TIP3      H1             20.9236233595      -46.7869822861      -29.6906996465  W2        870             0.0000000000
      2610       870  TIP3      H2             20.8104033595      -48.2124322861      -30.1878396465  W2        870             0.0000000000
      2611       871  TIP3      OH2            22.0818933595      -45.4708922861      -27.5465496465  W2        871             0.0000000000
      2612       871  TIP3      H1             22.2952433595      -46.2407322861      -27.0192496465  W2        871             0.0000000000
      2613       871  TIP3      H2             22.8196533595      -45.3812222861      -28.1497896465  W2        871             0.0000000000
      2614       872  TIP3      OH2            32.2869933595      -37.3140022861      -26.6795796465  W2        872             0.0000000000
      2615       872  TIP3      H1             32.9066333595      -37.9905322861      -26.9526596465  W2        872             0.0000000000
      2616       872  TIP3      H2             32.0787333595      -37.5319222861      -25.7710896465  W2        872             0.0000000000
      2617       873  TIP3      OH2            29.8588633595      -42.9250722861      -24.7870296465  W2        873             0.0000000000
      2618       873  TIP3      H1             30.1626533595      -43.6109322861      -25.3816196465  W2        873             0.0000000000
      2619       873  TIP3      H2             30.5802633595      -42.8062022861      -24.1692296465  W2        873             0.0000000000
      2620       874  TIP3      OH2            38.5218433595      -51.3235422861      -23.9264096465  W2        874             0.0000000000
      2621       874  TIP3      H1             38.5710633595      -50.7134222861      -23.1904996465  W2        874             0.0000000000
      2622       874  TIP3      H2             38.9473533595      -50.8624522861      -24.6492996465  W2        874             0.0000000000
      2623       875  TIP3      OH2            32.9995633595      -48.5308322861      -24.4595496465  W2        875             0.0000000000
      2624       875  TIP3      H1             33.1421533595      -49.4771322861      -24.4393896465  W2        875             0.0000000000
      2625       875  TIP3      H2             32.8934633595      -48.3238522861      -25.3880596465  W2        875             0.0000000000
      2626       876  TIP3      OH2            26.1543933595      -50.4291922861      -27.1870696465  W2        876             0.0000000000
      2627       876  TIP3      H1             26.1975033595      -49.5693422861      -27.6054396465  W2        876             0.0000000000
      2628       876  TIP3      H2             25.6968033595      -50.9817222861      -27.8207496465  W2        876             0.0000000000
      2629       877  TIP3      OH2            33.8766633595      -50.2986322861      -28.7862396465  W2        877             0.0000000000
      2630       877  TIP3      H1             34.5230933595      -50.6273122861      -28.1614796465  W2        877             0.0000000000
      2631       877  TIP3      H2             34.3866033595      -49.7807322861      -29.4090996465  W2        877             0.0000000000
      2632       878  TIP3      OH2            22.7745433595      -48.0326122861      -26.4249296465  W2        878             0.0000000000
      2633       878  TIP3      H1             23.4282033595      -48.5824422861      -25.9929196465  W2        878             0.0000000000
      2634       878  TIP3      H2             22.7984733595      -48.3067122861      -27.3417296465  W2        878             0.0000000000
      2635       879  TIP3      OH2            27.9309933595      -46.4824822861      -27.2097796465  W2        879             0.0000000000
      2636       879  TIP3      H1             28.5470933595      -47.0089422861      -26.7003796465  W2        879             0.0000000000
      2637       879  TIP3      H2             27.3448733595      -47.1226122861      -27.6134196465  W2        879             0.0000000000
      2638       880  TIP3      OH2            38.9133033595      -49.8456222861      -21.6904296465  W2        880             0.0000000000
      2639       880  TIP3      H1             38.2247633595      -49.1875522861      -21.7857696465  W2        880             0.0000000000
      2640       880  TIP3      H2             38.9287633595      -50.0428322861      -20.7538896465  W2        880             0.0000000000
      2641       881  TIP3      OH2            24.9645833595      -51.5113522861      -23.1129896465  W2        881             0.0000000000
      2642       881  TIP3      H1             24.7457533595      -50.9812922861      -23.8793896465  W2        881             0.0000000000
      2643       881  TIP3      H2             24.2966733595      -51.2848022861      -22.4658496465  W2        881             0.0000000000
      2644       882  TIP3      OH2            32.3335633595      -42.0112422861      -29.5690796465  W2        882             0.0000000000
      2645       882  TIP3      H1             32.0380733595      -42.3340122861      -30.4203896465  W2        882             0.0000000000
      2646       882  TIP3      H2             32.0093433595      -41.1115722861      -29.5278196465  W2        882             0.0000000000
      2647       883  TIP3      OH2            27.5337233595      -43.8357822861      -22.8256196465  W2        883             0.0000000000
      2648       883  TIP3      H1             26.7936333595      -43.2376322861      -22.7220996465  W2        883             0.0000000000
      2649       883  TIP3      H2             28.2476733595      -43.2818222861      -23.1412596465  W2        883             0.0000000000
      2650       884  TIP3      OH2            35.6405033595      -51.0077022861      -26.8056496465  W2        884             0.0000000000
      2651       884  TIP3      H1             35.4253033595      -51.7733622861      -26.2730496465  W2        884             0.0000000000
      2652       884  TIP3      H2             36.2962433595      -50.5352422861      -26.2927996465  W2        884             0.0000000000
      2653       885  TIP3      OH2            24.5583133595      -49.6191722861      -25.1607696465  W2        885             0.0000000000
      2654       885  TIP3      H1             25.1719433595      -48.9864122861      -24.7875296465  W2        885             0.0000000000
      2655       885  TIP3      H2             25.0703833595      -50.0916722861      -25.8170796465  W2        885             0.0000000000
      2656       886  TIP3      OH2            25.9411533595      -41.8714822861      -22.0384696465  W2        886             0.0000000000
      2657       886  TIP3      H1             25.9359133595      -40.9921322861      -22.4165396465  W2        886             0.0000000000
      2658       886  TIP3      H2             25.0875633595      -41.9550722861      -21.6134796465  W2        886             0.0000000000
      2659       887  TIP3      OH2            22.0622433595      -42.2006922861      -31.2565396465  W2        887             0.0000000000
      2660       887  TIP3      H1             21.7903333595      -41.9715922861      -32.1452496465  W2        887             0.0000000000
      2661       887  TIP3      H2             22.1078133595      -41.3628122861      -30.7960096465  W2        887             0.0000000000
      2662       888  TIP3      OH2            35.6872133595      -40.5791022861      -24.5436896465  W2        888             0.0000000000
      2663       888  TIP3      H1             34.7455833595      -40.5207122861      -24.3819996465  W2        888             0.0000000000
      2664       888  TIP3      H2             35.9638233595      -39.6730522861      -24.6807196465  W2        888             0.0000000000
      2665       889  TIP3      OH2            35.9879133595      -52.2925722861      -23.1262996465  W2        889             0.0000000000
      2666       889  TIP3      H1             35.2518333595      -51.6818622861      -23.1641696465  W2        889             0.0000000000
      2667       889  TIP3      H2             36.6713133595      -51.8776722861      -23.6526596465  W2        889             0.0000000000
      2668       890  TIP3      OH2            28.9910533595      -54.2058422861      -25.6604996465  W2        890             0.0000000000
      2669       890  TIP3      H1             28.8734733595      -55.1542422861      -25.7146696465  W2        890             0.0000000000
      2670       890  TIP3      H2             28.1360633595      -53.8732322861      -25.3873896465  W2        890             0.0000000000
      2671       891  TIP3      OH2            33.9393333595      -38.7977522861      -27.9185296465  W2        891             0.0000000000
      2672       891  TIP3      H1             34.3645633595      -39.5049622861      -28.4035696465  W2        891             0.0000000000
      2673       891  TIP3      H2             34.2563333595      -37.9964822861      -28.3353096465  W2        891             0.0000000000
      2674       892  TIP3      OH2            35.0989833595      -40.8969022861      -29.4098696465  W2        892             0.0000000000
      2675       892  TIP3      H1             34.8414633595      -41.5868922861      -30.0212796465  W2        892             0.0000000000
      2676       892  TIP3      H2             35.1700633595      -41.3397822861      -28.5642796465  W2        892             0.0000000000
      2677       893  TIP3      OH2            36.7850033595      -42.3302322861      -20.9325196465  W2        893             0.0000000000
      2678       893  TIP3      H1             36.9246333595      -42.9219822861      -21.6718196465  W2        893             0.0000000000
      2679       893  TIP3      H2             36.9522833595      -41.4576422861      -21.2886396465  W2        893             0.0000000000
      2680       894  TIP3      OH2            31.2575433595      -45.3682822861      -31.1599196465  W2        894             0.0000000000
      2681       894  TIP3      H1             30.5460933595      -44.8333122861      -31.5118696465  W2        894             0.0000000000
      2682       894  TIP3      H2             31.9485033595      -45.3130722861      -31.8200296465  W2        894             0.0000000000
      2683       895  TIP3      OH2            31.3114633595      -46.9108522861      -34.1214196465  W2        895             0.0000000000
      2684       895  TIP3      H1             32.0124533595      -46.8881622861      -33.4700196465  W2        895             0.0000000000
      2685       895  TIP3      H2             31.6137533595      -47.5388822861      -34.7774896465  W2        895             0.0000000000
      2686       896  TIP3      OH2            38.6269333595      -45.9904322861      -22.8664796465  W2        896             0.0000000000
      2687       896  TIP3      H1             37.9743433595      -45.2958722861      -22.7773896465  W2        896             0.0000000000
      2688       896  TIP3      H2             39.0919633595      -45.7803422861      -23.6763196465  W2        896             0.0000000000
      2689       897  TIP3      OH2            34.6633133595      -45.1589522861      -30.2083296465  W2        897             0.0000000000
      2690       897  TIP3      H1             33.9314133595      -44.9305822861      -29.6352696465  W2        897             0.0000000000
      2691       897  TIP3      H2             35.1105333595      -45.8726822861      -29.7535796465  W2        897             0.0000000000
      2692       898  TIP3      OH2            34.5606633595      -46.9846922861      -21.1406296465  W2        898             0.0000000000
      2693       898  TIP3      H1             34.6405733595      -46.2212522861      -20.5687796465  W2        898             0.0000000000
      2694       898  TIP3      H2             33.9594333595      -46.7054522861      -21.8311196465  W2        898             0.0000000000
      2695       899  TIP3      OH2            26.3086833595      -44.5283322861      -28.3258296465  W2        899             0.0000000000
      2696       899  TIP3      H1             25.9782033595      -44.8989922861      -29.1441296465  W2        899             0.0000000000
      2697       899  TIP3      H2             26.8970933595      -45.1989322861      -27.9789996465  W2        899             0.0000000000
      2698       900  TIP3      OH2            27.6754333595      -41.1002722861      -25.6446096465  W2        900             0.0000000000
      2699       900  TIP3      H1             27.5805633595      -41.6789622861      -26.4011496465  W2        900             0.0000000000
      2700       900  TIP3      H2             28.4047933595      -41.4717022861      -25.1483296465  W2        900             0.0000000000
      2701       901  TIP3      OH2            26.6752333595      -45.7597722861      -24.6923296465  W2        901             0.0000000000
      2702       901  TIP3      H1             27.2404833595      -45.6383522861      -25.4552096465  W2        901             0.0000000000
      2703       901  TIP3      H2             26.9941233595      -45.1222722861      -24.0534796465  W2        901             0.0000000000
      2704       902  TIP3      OH2            32.9844533595      -40.2565822861      -23.9582796465  W2        902             0.0000000000
      2705       902  TIP3      H1             32.7441133595      -39.5942722861      -23.3103596465  W2        902             0.0000000000
      2706       902  TIP3      H2             32.7862733595      -41.0910622861      -23.5333196465  W2        902             0.0000000000
      2707       903  TIP3      OH2            27.5553033595      -41.3605022861      -19.9751396465  W2        903             0.0000000000
      2708       903  TIP3      H1             27.2440533595      -40.5781822861      -19.5198196465  W2        903             0.0000000000
      2709       903  TIP3      H2             26.9053233595      -41.5135922861      -20.6609396465  W2        903             0.0000000000
      2710       904  TIP3      OH2            33.5342633595      -45.9966622861      -32.5232096465  W2        904             0.0000000000
      2711       904  TIP3      H1             34.1138133595      -45.8466322861      -31.7763196465  W2        904             0.0000000000
      2712       904  TIP3      H2             33.9482633595      -45.5259222861      -33.2465696465  W2        904             0.0000000000
      2713       905  TIP3      OH2            24.4752933595      -45.1623922861      -20.7465696465  W2        905             0.0000000000
      2714       905  TIP3      H1             24.5456133595      -44.5117122861      -20.0480696465  W2        905             0.0000000000
      2715       905  TIP3      H2             23.5845133595      -45.0596422861      -21.0814796465  W2        905             0.0000000000
      2716       906  TIP3      OH2            31.2607533595      -39.2598122861      -29.0878996465  W2        906             0.0000000000
      2717       906  TIP3      H1             31.7345133595      -38.9641822861      -28.3104796465  W2        906             0.0000000000
      2718       906  TIP3      H2             30.6976833595      -38.5216522861      -29.3209396465  W2        906             0.0000000000
      2719       907  TIP3      OH2            25.7948933595      -39.2890022861      -19.2117596465  W2        907             0.0000000000
      2720       907  TIP3      H1             25.8024233595      -39.4250322861      -20.1592096465  W2        907             0.0000000000
      2721       907  TIP3      H2             24.8789333595      -39.4061922861      -18.9597596465  W2        907             0.0000000000
      2722       908  TIP3      OH2            37.2331033595      -54.2466222861      -32.7102396465  W2        908             0.0000000000
      2723       908  TIP3      H1             36.3331733595      -54.1077222861      -32.4151796465  W2        908             0.0000000000
      2724       908  TIP3      H2             37.4849433595      -53.4151622861      -33.1120696465  W2        908             0.0000000000
      2725       909  TIP3      OH2            25.2989533595      -45.4589022861      -30.7365496465  W2        909             0.0000000000
      2726       909  TIP3      H1             25.0070833595      -44.6907322861      -31.2274196465  W2        909             0.0000000000
      2727       909  TIP3      H2             24.6244733595      -46.1182822861      -30.8994096465  W2        909             0.0000000000
      2728       910  TIP3      OH2            38.4222433595      -39.8803822861      -34.3338496465  W2        910             0.0000000000
      2729       910  TIP3      H1             38.4955933595      -38.9413622861      -34.1633196465  W2        910             0.0000000000
      2730       910  TIP3      H2             39.3277533595      -40.1855222861      -34.3901196465  W2        910             0.0000000000
      2731       911  TIP3      OH2            21.3919633595      -43.0959822861      -21.9215696465  W2        911             0.0000000000
      2732       911  TIP3      H1             20.8908033595      -43.1240422861      -22.7365996465  W2        911             0.0000000000
      2733       911  TIP3      H2             21.3973333595      -44.0016622861      -21.6118396465  W2        911             0.0000000000
      2734       912  TIP3      OH2            21.1422333595      -40.3156022861      -25.0375496465  W2        912             0.0000000000
      2735       912  TIP3      H1             22.0882933595      -40.4599022861      -25.0565996465  W2        912             0.0000000000
      2736       912  TIP3      H2             21.0298633595      -39.5313222861      -24.5004296465  W2        912             0.0000000000
      2737       913  TIP3      OH2            39.3400833595      -39.6496322861      -19.3551796465  W2        913             0.0000000000
      2738       913  TIP3      H1             39.2907633595      -40.6048222861      -19.3924196465  W2        913             0.0000000000
      2739       913  TIP3      H2             38.5133133595      -39.3821022861      -18.9537996465  W2        913             0.0000000000
      2740       914  TIP3      OH2            30.3184833595      -40.0757122861      -20.4790396465  W2        914             0.0000000000
      2741       914  TIP3      H1             30.4059433595      -39.2492522861      -20.0041296465  W2        914             0.0000000000
      2742       914  TIP3      H2             29.4549933595      -40.4053322861      -20.2301096465  W2        914             0.0000000000
      2743       915  TIP3      OH2            30.7330633595      -36.3033422861      -30.6729796465  W2        915             0.0000000000
      2744       915  TIP3      H1             30.6576633595      -36.4246222861      -31.6194596465  W2        915             0.0000000000
      2745       915  TIP3      H2             30.7659333595      -35.3540722861      -30.5545196465  W2        915             0.0000000000
      2746       916  TIP3      OH2            24.3864433595      -37.5146422861      -28.8920796465  W2        916             0.0000000000
      2747       916  TIP3      H1             24.5384833595      -37.8626022861      -28.0134296465  W2        916             0.0000000000
      2748       916  TIP3      H2             23.5354833595      -37.8709122861      -29.1473596465  W2        916             0.0000000000
      2749       917  TIP3      OH2            33.8346633595      -37.1493222861      -33.6707396465  W2        917             0.0000000000
      2750       917  TIP3      H1             34.2095033595      -37.8937122861      -34.1414796465  W2        917             0.0000000000
      2751       917  TIP3      H2             33.8390333595      -37.4192622861      -32.7524096465  W2        917             0.0000000000
      2752       918  TIP3      OH2            33.5034733595      -37.2236122861      -30.9215196465  W2        918             0.0000000000
      2753       918  TIP3      H1             32.5684533595      -37.1234222861      -30.7428196465  W2        918             0.0000000000
      2754       918  TIP3      H2             33.7836633595      -37.9330122861      -30.3431996465  W2        918             0.0000000000
      2755       919  TIP3      OH2            36.4920633595      -48.1563822861      -18.8749596465  W2        919             0.0000000000
      2756       919  TIP3      H1             36.0847433595      -47.6758222861      -19.5956296465  W2        919             0.0000000000
      2757       919  TIP3      H2             36.5326333595      -49.0617822861      -19.1828796465  W2        919             0.0000000000
      2758       920  TIP3      OH2            23.6410133595      -41.7724422861      -20.8782896465  W2        920             0.0000000000
      2759       920  TIP3      H1             23.8571433595      -42.1338822861      -20.0187096465  W2        920             0.0000000000
      2760       920  TIP3      H2             22.7854833595      -42.1470622861      -21.0879396465  W2        920             0.0000000000
      2761       921  TIP3      OH2            26.2598133595      -53.3023922861      -24.8828696465  W2        921             0.0000000000
      2762       921  TIP3      H1             25.3981833595      -53.3895722861      -25.2905796465  W2        921             0.0000000000
      2763       921  TIP3      H2             26.2373833595      -52.4463822861      -24.4551096465  W2        921             0.0000000000
      2764       922  TIP3      OH2            30.9225933595      -53.5803522861      -21.5081696465  W2        922             0.0000000000
      2765       922  TIP3      H1             31.3429033595      -53.9956422861      -20.7551096465  W2        922             0.0000000000
      2766       922  TIP3      H2             29.9895533595      -53.7590222861      -21.3909696465  W2        922             0.0000000000
      2767       923  TIP3      OH2            34.2490833595      -49.8248322861      -20.6547196465  W2        923             0.0000000000
      2768       923  TIP3      H1             33.7350333595      -49.9506122861      -19.8571196465  W2        923             0.0000000000
      2769       923  TIP3      H2             34.0935533595      -48.9125222861      -20.8990996465  W2        923             0.0000000000
      2770       924  TIP3      OH2            35.0115733595      -44.9638322861      -34.8934196465  W2        924             0.0000000000
      2771       924  TIP3      H1             35.0536533595      -45.1864422861      -35.8234196465  W2        924             0.0000000000
      2772       924  TIP3      H2             35.8607833595      -44.5651222861      -34.7034296465  W2        924             0.0000000000
      2773       925  TIP3      OH2            30.5843233595      -51.0880122861      -34.2230896465  W2        925             0.0000000000
      2774       925  TIP3      H1             30.3308033595      -51.0688522861      -33.3002796465  W2        925             0.0000000000
      2775       925  TIP3      H2             30.3275333595      -51.9594722861      -34.5244696465  W2        925             0.0000000000
      2776       926  TIP3      OH2            26.3508233595      -48.3369422861      -23.7878496465  W2        926             0.0000000000
      2777       926  TIP3      H1             25.7090333595      -48.3772122861      -23.0788396465  W2        926             0.0000000000
      2778       926  TIP3      H2             26.3880233595      -47.4104722861      -24.0255496465  W2        926             0.0000000000
      2779       927  TIP3      OH2            26.3477333595      -48.1159322861      -28.8758496465  W2        927             0.0000000000
      2780       927  TIP3      H1             25.4550233595      -48.4563222861      -28.9344696465  W2        927             0.0000000000
      2781       927  TIP3      H2             26.7983933595      -48.4928422861      -29.6315296465  W2        927             0.0000000000
      2782       928  TIP3      OH2            31.8832833595      -47.6999022861      -30.0587696465  W2        928             0.0000000000
      2783       928  TIP3      H1             31.4743133595      -46.8850422861      -30.3502896465  W2        928             0.0000000000
      2784       928  TIP3      H2             32.6039033595      -47.8398922861      -30.6730596465  W2        928             0.0000000000
      2785       929  TIP3      OH2            30.9854433595      -47.5242622861      -18.5706996465  W2        929             0.0000000000
      2786       929  TIP3      H1             30.4228233595      -48.2291022861      -18.2499196465  W2        929             0.0000000000
      2787       929  TIP3      H2             31.8117833595      -47.6450722861      -18.1029396465  W2        929             0.0000000000
      2788       930  TIP3      OH2            32.8880533595      -48.2538622861      -27.2447996465  W2        930             0.0000000000
      2789       930  TIP3      H1             32.6925033595      -47.6481822861      -27.9597396465  W2        930             0.0000000000
      2790       930  TIP3      H2             33.0693133595      -49.0873422861      -27.6791696465  W2        930             0.0000000000
      2791       931  TIP3      OH2            24.1008733595      -48.0165922861      -21.9206496465  W2        931             0.0000000000
      2792       931  TIP3      H1             24.0628133595      -47.6164322861      -21.0519396465  W2        931             0.0000000000
      2793       931  TIP3      H2             23.6099833595      -48.8333522861      -21.8303596465  W2        931             0.0000000000
      2794       932  TIP3      OH2            27.4666133595      -50.6423622861      -35.1220496465  W2        932             0.0000000000
      2795       932  TIP3      H1             27.0356833595      -51.0873522861      -34.3923096465  W2        932             0.0000000000
      2796       932  TIP3      H2             26.7484833595      -50.2707322861      -35.6342996465  W2        932             0.0000000000
      2797       933  TIP3      OH2            20.7089533595      -50.9004122861      -28.0701796465  W2        933             0.0000000000
      2798       933  TIP3      H1             21.3397233595      -50.9292022861      -27.3507896465  W2        933             0.0000000000
      2799       933  TIP3      H2             21.1583833595      -51.3255422861      -28.8005896465  W2        933             0.0000000000
      2800       934  TIP3      OH2            21.9831633595      -50.1542122861      -32.6461396465  W2        934             0.0000000000
      2801       934  TIP3      H1             22.4573333595      -49.5632222861      -33.2310496465  W2        934             0.0000000000
      2802       934  TIP3      H2             21.2658033595      -49.6239222861      -32.2991296465  W2        934             0.0000000000
      2803       935  TIP3      OH2            32.1519733595      -46.6157322861      -22.5735596465  W2        935             0.0000000000
      2804       935  TIP3      H1             32.4754533595      -47.2467622861      -23.2165096465  W2        935             0.0000000000
      2805       935  TIP3      H2             31.7119033595      -47.1505122861      -21.9128196465  W2        935             0.0000000000
      2806       936  TIP3      OH2            28.9292633595      -50.6881822861      -27.7894396465  W2        936             0.0000000000
      2807       936  TIP3      H1             28.0183733595      -50.6315022861      -27.5008396465  W2        936             0.0000000000
      2808       936  TIP3      H2             29.4345533595      -50.7486322861      -26.9787196465  W2        936             0.0000000000
      2809       937  TIP3      OH2            23.7576033595      -49.0595522861      -28.9626796465  W2        937             0.0000000000
      2810       937  TIP3      H1             22.8684033595      -48.9600022861      -29.3027196465  W2        937             0.0000000000
      2811       937  TIP3      H2             24.0540933595      -49.9012522861      -29.3088896465  W2        937             0.0000000000
      2812       938  TIP3      OH2            27.4107833595      -49.0592922861      -31.3062196465  W2        938             0.0000000000
      2813       938  TIP3      H1             28.3423333595      -48.9302922861      -31.1279096465  W2        938             0.0000000000
      2814       938  TIP3      H2             27.1958133595      -48.3898622861      -31.9557496465  W2        938             0.0000000000
      2815       939  TIP3      OH2            33.3344533595      -51.4535522861      -24.5252596465  W2        939             0.0000000000
      2816       939  TIP3      H1             32.6576133595      -51.3222422861      -23.8612896465  W2        939             0.0000000000
      2817       939  TIP3      H2             32.8489433595      -51.6086022861      -25.3354896465  W2        939             0.0000000000
      2818       940  TIP3      OH2            26.0848033595      -47.8650722861      -33.7396096465  W2        940             0.0000000000
      2819       940  TIP3      H1             25.5423133595      -48.2446922861      -34.4308496465  W2        940             0.0000000000
      2820       940  TIP3      H2             26.9182933595      -47.6706022861      -34.1681996465  W2        940             0.0000000000
      2821       941  TIP3      OH2            36.6219633595      -35.7820122861      -18.2484996465  W2        941             0.0000000000
      2822       941  TIP3      H1             36.8218333595      -35.3578222861      -19.0829696465  W2        941             0.0000000000
      2823       941  TIP3      H2             37.2773333595      -35.4381922861      -17.6414596465  W2        941             0.0000000000
      2824       942  TIP3      OH2            24.2199433595      -43.3078822861      -18.6404496465  W2        942             0.0000000000
      2825       942  TIP3      H1             24.9521833595      -43.0532922861      -18.0789996465  W2        942             0.0000000000
      2826       942  TIP3      H2             23.4398133595      -43.1033422861      -18.1249096465  W2        942             0.0000000000
      2827       943  TIP3      OH2            30.2492333595      -47.9008822861      -25.9024796465  W2        943             0.0000000000
      2828       943  TIP3      H1             30.8135733595      -48.4472222861      -26.4495196465  W2        943             0.0000000000
      2829       943  TIP3      H2             30.1015733595      -48.4226922861      -25.1137196465  W2        943             0.0000000000
      2830       944  TIP3      OH2            25.2512033595      -51.7642722861      -29.4839996465  W2        944             0.0000000000
      2831       944  TIP3      H1             24.9341533595      -52.6667422861      -29.5194596465  W2        944             0.0000000000
      2832       944  TIP3      H2             26.0326133595      -51.7625322861      -30.0368396465  W2        944             0.0000000000
      2833       945  TIP3      OH2            28.8758233595      -49.5122722861      -23.4884396465  W2        945             0.0000000000
      2834       945  TIP3      H1             28.0403533595      -49.0583222861      -23.3781996465  W2        945             0.0000000000
      2835       945  TIP3      H2             29.3998833595      -49.2364222861      -22.7364496465  W2        945             0.0000000000
      2836       946  TIP3      OH2            29.4200833595      -43.2995022861      -31.8037996465  W2        946             0.0000000000
      2837       946  TIP3      H1             28.6751833595      -43.8069722861      -32.1260096465  W2        946             0.0000000000
      2838       946  TIP3      H2             29.2858033595      -43.2507022861      -30.8573196465  W2        946             0.0000000000
      2839       947  TIP3      OH2            36.5699733595      -44.1666822861      -23.0170396465  W2        947             0.0000000000
      2840       947  TIP3      H1             37.2118533595      -43.7100522861      -23.5608196465  W2        947             0.0000000000
      2841       947  TIP3      H2             35.7396633595      -44.0534422861      -23.4796296465  W2        947             0.0000000000
      2842       948  TIP3      OH2            33.3177633595      -50.4855122861      -33.6045396465  W2        948             0.0000000000
      2843       948  TIP3      H1             32.3791833595      -50.3739522861      -33.7556596465  W2        948             0.0000000000
      2844       948  TIP3      H2             33.6149733595      -49.6288222861      -33.2979696465  W2        948             0.0000000000
      2845       949  TIP3      OH2            30.9392933595      -43.1151722861      -20.5668896465  W2        949             0.0000000000
      2846       949  TIP3      H1             30.5939033595      -43.4969322861      -19.7599296465  W2        949             0.0000000000
      2847       949  TIP3      H2             30.7393033595      -42.1818122861      -20.4955996465  W2        949             0.0000000000
      2848       950  TIP3      OH2            34.0361133595      -48.6182422861      -31.9437996465  W2        950             0.0000000000
      2849       950  TIP3      H1             34.9280133595      -48.7557422861      -31.6246796465  W2        950             0.0000000000
      2850       950  TIP3      H2             34.0924733595      -47.8276322861      -32.4804496465  W2        950             0.0000000000
      2851       951  TIP3      OH2            24.5449133595      -44.0045022861      -26.0340096465  W2        951             0.0000000000
      2852       951  TIP3      H1             25.2896333595      -44.0069322861      -26.6353596465  W2        951             0.0000000000
      2853       951  TIP3      H2             24.6225733595      -44.8281222861      -25.5524996465  W2        951             0.0000000000
      2854       952  TIP3      OH2            31.5454933595      -41.8410722861      -32.7783396465  W2        952             0.0000000000
      2855       952  TIP3      H1             31.2503333595      -41.0142822861      -32.3968596465  W2        952             0.0000000000
      2856       952  TIP3      H2             30.8424933595      -42.4603822861      -32.5821996465  W2        952             0.0000000000
      2857       953  TIP3      OH2            21.5528833595      -45.5438122861      -20.7191596465  W2        953             0.0000000000
      2858       953  TIP3      H1             21.7757433595      -45.9618522861      -19.8874096465  W2        953             0.0000000000
      2859       953  TIP3      H2             20.9508933595      -46.1563122861      -21.1418796465  W2        953             0.0000000000
      2860       954  TIP3      OH2            28.5693733595      -46.0268222861      -18.5061896465  W2        954             0.0000000000
      2861       954  TIP3      H1             28.2734533595      -46.1925222861      -19.4012796465  W2        954             0.0000000000
      2862       954  TIP3      H2             29.5008933595      -46.2467922861      -18.5167996465  W2        954             0.0000000000
      2863       955  TIP3      OH2            33.1896533595      -40.6536222861      -20.6163896465  W2        955             0.0000000000
      2864       955  TIP3      H1             32.2890833595      -40.4703622861      -20.8839996465  W2        955             0.0000000000
      2865       955  TIP3      H2             33.2237633595      -40.3946922861      -19.6955096465  W2        955             0.0000000000
      2866       956  TIP3      OH2            38.9209833595      -48.4088322861      -32.2491296465  W2        956             0.0000000000
      2867       956  TIP3      H1             38.3666133595      -48.8050322861      -32.9213796465  W2        956             0.0000000000
      2868       956  TIP3      H2             39.0213433595      -47.4983122861      -32.5267996465  W2        956             0.0000000000
      2869       957  TIP3      OH2            38.8841833595      -42.6086622861      -19.4119796465  W2        957             0.0000000000
      2870       957  TIP3      H1             38.0330333595      -42.3702822861      -19.7793396465  W2        957             0.0000000000
      2871       957  TIP3      H2             39.4745233595      -42.6253422861      -20.1652696465  W2        957             0.0000000000
      2872       958  TIP3      OH2            37.2161533595      -39.6227922861      -31.7839196465  W2        958             0.0000000000
      2873       958  TIP3      H1             36.8432633595      -40.4484122861      -31.4748596465  W2        958             0.0000000000
      2874       958  TIP3      H2             37.4935033595      -39.8058522861      -32.6815796465  W2        958             0.0000000000
      2875       959  TIP3      OH2            34.3765433595      -44.8148422861      -24.7627296465  W2        959             0.0000000000
      2876       959  TIP3      H1             33.4482333595      -45.0466522861      -24.7897996465  W2        959             0.0000000000
      2877       959  TIP3      H2             34.8276533595      -45.5918622861      -25.0928496465  W2        959             0.0000000000
      2878       960  TIP3      OH2            26.9198533595      -40.4866822861      -28.6298596465  W2        960             0.0000000000
      2879       960  TIP3      H1             27.4470733595      -39.7132422861      -28.8299796465  W2        960             0.0000000000
      2880       960  TIP3      H2             26.0397033595      -40.2617622861      -28.9314596465  W2        960             0.0000000000
      2881       961  TIP3      OH2            22.6746233595      -45.6242722861      -34.0426196465  W2        961             0.0000000000
      2882       961  TIP3      H1             23.2906133595      -44.9975522861      -33.6631396465  W2        961             0.0000000000
      2883       961  TIP3      H2             21.8128833595      -45.3082922861      -33.7709696465  W2        961             0.0000000000
      2884       962  TIP3      OH2            28.3470833595      -42.8236922861      -29.0534296465  W2        962             0.0000000000
      2885       962  TIP3      H1             28.1060833595      -41.8982522861      -29.0118996465  W2        962             0.0000000000
      2886       962  TIP3      H2             27.6064433595      -43.2825622861      -28.6570396465  W2        962             0.0000000000
      2887       963  TIP3      OH2            28.8617433595      -38.6743322861      -22.7383196465  W2        963             0.0000000000
      2888       963  TIP3      H1             29.2242133595      -37.8197722861      -22.9718796465  W2        963             0.0000000000
      2889       963  TIP3      H2             29.3932633595      -38.9661722861      -21.9976896465  W2        963             0.0000000000
      2890       964  TIP3      OH2            27.0301633595      -37.8019322861      -29.5082096465  W2        964             0.0000000000
      2891       964  TIP3      H1             26.0802133595      -37.6961922861      -29.4568796465  W2        964             0.0000000000
      2892       964  TIP3      H2             27.3819733595      -36.9811922861      -29.1634596465  W2        964             0.0000000000
      2893       965  TIP3      OH2            32.4058233595      -42.5752622861      -23.0377596465  W2        965             0.0000000000
      2894       965  TIP3      H1             31.9799533595      -42.8030922861      -22.2113596465  W2        965             0.0000000000
      2895       965  TIP3      H2             32.9864033595      -43.3140822861      -23.2202296465  W2        965             0.0000000000
      2896       966  TIP3      OH2            34.6087133595      -41.6462122861      -33.9638596465  W2        966             0.0000000000
      2897       966  TIP3      H1             34.9620233595      -42.0262322861      -33.1595096465  W2        966             0.0000000000
      2898       966  TIP3      H2             33.6600633595      -41.7397322861      -33.8769296465  W2        966             0.0000000000
      2899       967  TIP3      OH2            35.0642433595      -38.0233122861      -20.5682796465  W2        967             0.0000000000
      2900       967  TIP3      H1             34.4625633595      -38.5790222861      -21.0636496465  W2        967             0.0000000000
      2901       967  TIP3      H2             35.3456133595      -37.3563322861      -21.1945396465  W2        967             0.0000000000
      2902       968  TIP3      OH2            39.1121533595      -37.1669622861      -33.7628396465  W2        968             0.0000000000
      2903       968  TIP3      H1             39.8559433595      -36.5809122861      -33.9026796465  W2        968             0.0000000000
      2904       968  TIP3      H2             38.4179633595      -36.5983822861      -33.4295996465  W2        968             0.0000000000
      2905       969  TIP3      OH2            23.1868333595      -50.7905422861      -21.1610196465  W2        969             0.0000000000
      2906       969  TIP3      H1             22.2940633595      -50.4520022861      -21.2286196465  W2        969             0.0000000000
      2907       969  TIP3      H2             23.0881133595      -51.6459322861      -20.7429396465  W2        969             0.0000000000
      2908       970  TIP3      OH2            35.4746433595      -42.9740122861      -31.7370696465  W2        970             0.0000000000
      2909       970  TIP3      H1             35.1974033595      -43.7020822861      -31.1809596465  W2        970             0.0000000000
      2910       970  TIP3      H2             36.4019433595      -42.8548122861      -31.5318096465  W2        970             0.0000000000
      2911       971  TIP3      OH2            22.8380333595      -38.9861022861      -22.7260796465  W2        971             0.0000000000
      2912       971  TIP3      H1             23.0550633595      -39.9178622861      -22.7571096465  W2        971             0.0000000000
      2913       971  TIP3      H2             23.0843833595      -38.7116022861      -21.8427996465  W2        971             0.0000000000
      2914       972  TIP3      OH2            28.6994933595      -40.5346022861      -35.5168596465  W2        972             0.0000000000
      2915       972  TIP3      H1             28.9384733595      -41.2827922861      -36.0639696465  W2        972             0.0000000000
      2916       972  TIP3      H2             28.4306233595      -40.9224322861      -34.6840796465  W2        972             0.0000000000
      2917       973  TIP3      OH2            27.6365533595      -40.9642222861      -33.0605996465  W2        973             0.0000000000
      2918       973  TIP3      H1             27.7833533595      -41.4842422861      -32.2705096465  W2        973             0.0000000000
      2919       973  TIP3      H2             27.6337233595      -40.0574622861      -32.7540096465  W2        973             0.0000000000
      2920       974  TIP3      OH2            24.0896633595      -43.7118922861      -32.5500596465  W2        974             0.0000000000
      2921       974  TIP3      H1             23.4035933595      -43.3596422861      -31.9830896465  W2        974             0.0000000000
      2922       974  TIP3      H2             24.6124533595      -42.9489322861      -32.7966296465  W2        974             0.0000000000
      2923       975  TIP3      OH2            31.9211733595      -51.0495122861      -22.2711596465  W2        975             0.0000000000
      2924       975  TIP3      H1             32.6199633595      -50.9756422861      -21.6211896465  W2        975             0.0000000000
      2925       975  TIP3      H2             31.5403133595      -51.9140122861      -22.1168696465  W2        975             0.0000000000
      2926       976  TIP3      OH2            32.7056633595      -51.3973422861      -31.1739296465  W2        976             0.0000000000
      2927       976  TIP3      H1             32.9254933595      -50.9258022861      -31.9773896465  W2        976             0.0000000000
      2928       976  TIP3      H2             33.2640633595      -51.0030822861      -30.5038696465  W2        976             0.0000000000
      2929       977  TIP3      OH2            30.3742733595      -39.2668622861      -32.3111796465  W2        977             0.0000000000
      2930       977  TIP3      H1             29.5578833595      -38.7698922861      -32.2587496465  W2        977             0.0000000000
      2931       977  TIP3      H2             30.9039033595      -38.7915122861      -32.9512996465  W2        977             0.0000000000
      2932       978  TIP3      OH2            29.9056533595      -49.6694622861      -30.3390896465  W2        978             0.0000000000
      2933       978  TIP3      H1             30.7179133595      -49.1651422861      -30.2929196465  W2        978             0.0000000000
      2934       978  TIP3      H2             29.6609533595      -49.8144922861      -29.4251296465  W2        978             0.0000000000
      2935       979  TIP3      OH2            30.4412933595      -48.6831922861      -21.1544296465  W2        979             0.0000000000
      2936       979  TIP3      H1             30.5603233595      -48.1096522861      -20.3973896465  W2        979             0.0000000000
      2937       979  TIP3      H2             31.0967533595      -49.3712522861      -21.0396496465  W2        979             0.0000000000
      2938       980  TIP3      OH2            30.7893233595      -52.5881622861      -29.4009796465  W2        980             0.0000000000
      2939       980  TIP3      H1             30.4426733595      -51.9711022861      -28.7565496465  W2        980             0.0000000000
      2940       980  TIP3      H2             31.4480133595      -52.0875922861      -29.8824296465  W2        980             0.0000000000
      2941       981  TIP3      OH2            27.7125833595      -38.2231422861      -32.3294896465  W2        981             0.0000000000
      2942       981  TIP3      H1             27.8734533595      -37.4233922861      -32.8302296465  W2        981             0.0000000000
      2943       981  TIP3      H2             27.5153633595      -37.9165422861      -31.4444296465  W2        981             0.0000000000
      2944       982  TIP3      OH2            26.4470233595      -51.5252222861      -32.7137296465  W2        982             0.0000000000
      2945       982  TIP3      H1             26.3635033595      -50.6369122861      -32.3670896465  W2        982             0.0000000000
      2946       982  TIP3      H2             27.3370533595      -51.7905522861      -32.4820496465  W2        982             0.0000000000
      2947       983  TIP3      OH2            36.6458733595      -50.7761622861      -20.3194596465  W2        983             0.0000000000
      2948       983  TIP3      H1             35.7294533595      -50.5139922861      -20.4070896465  W2        983             0.0000000000
      2949       983  TIP3      H2             36.9813733595      -50.7792622861      -21.2159296465  W2        983             0.0000000000
      2950       984  TIP3      OH2            35.2479733595      -47.0260622861      -26.2237296465  W2        984             0.0000000000
      2951       984  TIP3      H1             34.4504133595      -47.4410422861      -26.5522296465  W2        984             0.0000000000
      2952       984  TIP3      H2             35.6930833595      -47.7166922861      -25.7326796465  W2        984             0.0000000000
      2953       985  TIP3      OH2            24.7055533595      -41.0980022861      -33.6532796465  W2        985             0.0000000000
      2954       985  TIP3      H1             25.2977033595      -40.3985222861      -33.3770396465  W2        985             0.0000000000
      2955       985  TIP3      H2             25.1648533595      -41.5310522861      -34.3728196465  W2        985             0.0000000000
      2956       986  TIP3      OH2            23.0214733595      -48.4337022861      -34.5373396465  W2        986             0.0000000000
      2957       986  TIP3      H1             22.9767333595      -47.4943922861      -34.3586396465  W2        986             0.0000000000
      2958       986  TIP3      H2             22.1337933595      -48.6692122861      -34.8071296465  W2        986             0.0000000000
      2959       987  TIP3      OH2            36.3344333595      -37.7698122861      -24.6013796465  W2        987             0.0000000000
      2960       987  TIP3      H1             36.1788633595      -37.0913722861      -25.2584496465  W2        987             0.0000000000
      2961       987  TIP3      H2             37.2670733595      -37.6978822861      -24.3983196465  W2        987             0.0000000000
      2962       988  TIP3      OH2            23.8296733595      -53.6520422861      -25.8642396465  W2        988             0.0000000000
      2963       988  TIP3      H1             23.6006533595      -53.5927922861      -26.7917396465  W2        988             0.0000000000
      2964       988  TIP3      H2             23.3870133595      -54.4434922861      -25.5578296465  W2        988             0.0000000000
      2965       989  TIP3      OH2            22.7600033595      -39.7113322861      -29.7036596465  W2        989             0.0000000000
      2966       989  TIP3      H1             21.9278633595      -39.2390622861      -29.6765196465  W2        989             0.0000000000
      2967       989  TIP3      H2             23.3058333595      -39.2015722861      -30.3023496465  W2        989             0.0000000000
      2968       990  TIP3      OH2            22.0483733595      -37.0989622861      -18.3738596465  W2        990             0.0000000000
      2969       990  TIP3      H1             22.5885933595      -37.3155622861      -17.6139396465  W2        990             0.0000000000
      2970       990  TIP3      H2             21.5671733595      -37.9043622861      -18.5636096465  W2        990             0.0000000000
      2971       991  TIP3      OH2            26.6457133595      -38.1795222861      -16.7534396465  W2        991             0.0000000000
      2972       991  TIP3      H1             27.4134333595      -38.6384422861      -16.4125196465  W2        991             0.0000000000
      2973       991  TIP3      H2             26.6243333595      -38.4055422861      -17.6833196465  W2        991             0.0000000000
      2974       992  TIP3      OH2            30.7376733595      -38.6714622861      -35.3782596465  W2        992             0.0000000000
      2975       992  TIP3      H1             30.0937733595      -39.3026022861      -35.0568896465  W2        992             0.0000000000
      2976       992  TIP3      H2             31.4995033595      -39.2026622861      -35.6099096465  W2        992             0.0000000000
      2977       993  TIP3      OH2            33.2225833595      -39.7994122861      -18.0242896465  W2        993             0.0000000000
      2978       993  TIP3      H1             32.8715333595      -40.6561122861      -17.7812496465  W2        993             0.0000000000
      2979       993  TIP3      H2             33.9489033595      -39.6567422861      -17.4173896465  W2        993             0.0000000000
      2980       994  TIP3      OH2            35.3419633595      -38.8544722861      -35.1444596465  W2        994             0.0000000000
      2981       994  TIP3      H1             35.6250033595      -39.6489522861      -34.6917696465  W2        994             0.0000000000
      2982       994  TIP3      H2             36.0817533595      -38.6213722861      -35.7053496465  W2        994             0.0000000000
      2983       995  TIP3      OH2            21.9553233595      -43.2885522861      -17.4194296465  W2        995             0.0000000000
      2984       995  TIP3      H1             22.0993733595      -44.1904822861      -17.7057596465  W2        995             0.0000000000
      2985       995  TIP3      H2             21.1830633595      -43.0023422861      -17.9071996465  W2        995             0.0000000000
      2986       996  TIP3      OH2            26.2966933595      -42.9449822861      -35.2869696465  W2        996             0.0000000000
      2987       996  TIP3      H1             26.3611033595      -43.7390222861      -34.7563296465  W2        996             0.0000000000
      2988       996  TIP3      H2             26.9496133595      -43.0637022861      -35.9767696465  W2        996             0.0000000000
      2989       997  TIP3      OH2            28.6109333595      -43.3187422861      -17.9867896465  W2        997             0.0000000000
      2990       997  TIP3      H1             28.2823133595      -43.0479322861      -18.8440496465  W2        997             0.0000000000
      2991       997  TIP3      H2             28.7627533595      -44.2597622861      -18.0742896465  W2        997             0.0000000000
      2992       998  TIP3      OH2            31.6490333595      -41.8978122861      -35.5511696465  W2        998             0.0000000000
      2993       998  TIP3      H1             31.3804433595      -41.7176022861      -34.6502796465  W2        998             0.0000000000
      2994       998  TIP3      H2             31.4425933595      -42.8231922861      -35.6825896465  W2        998             0.0000000000
      2995       999  TIP3      OH2            34.3454533595      -43.4030122861      -20.6035596465  W2        999             0.0000000000
      2996       999  TIP3      H1             35.0909333595      -42.8146422861      -20.7231596465  W2        999             0.0000000000
      2997       999  TIP3      H2             33.5881333595      -42.8210422861      -20.5402496465  W2        999             0.0000000000
      2998      1000  TIP3      OH2            22.7879733595      -46.0882222861      -17.9994996465  W2        1000            0.0000000000
      2999      1000  TIP3      H1             23.1960933595      -46.9455622861      -18.1204396465  W2        1000            0.0000000000
      3000      1000  TIP3      H2             22.5277333595      -46.0740922861      -17.0784696465  W2        1000            0.0000000000
      3001      1001  TIP3      OH2            27.4460733595      -44.9723622861      -32.9811696465  W2        1001            0.0000000000
      3002      1001  TIP3      H1             26.9862733595      -45.4565322861      -32.2953196465  W2        1001            0.0000000000
      3003      1001  TIP3      H2             27.7009433595      -45.6408222861      -33.6171196465  W2        1001            0.0000000000
      3004      1002  TIP3      OH2            26.7350033595      -47.0796522861      -20.6252096465  W2        1002            0.0000000000
      3005      1002  TIP3      H1             26.1166133595      -46.4049922861      -20.3447396465  W2        1002            0.0000000000
      3006      1002  TIP3      H2             27.0791233595      -46.7582622861      -21.4585896465  W2        1002            0.0000000000
      3007      1003  TIP3      OH2            28.5171133595      -46.7291822861      -34.7188496465  W2        1003            0.0000000000
      3008      1003  TIP3      H1             28.3366133595      -46.8840622861      -35.6460196465  W2        1003            0.0000000000
      3009      1003  TIP3      H2             29.4671633595      -46.6213122861      -34.6740596465  W2        1003            0.0000000000
      3010      1004  TIP3      OH2            31.7548233595      -44.6081222861      -17.3477296465  W2        1004            0.0000000000
      3011      1004  TIP3      H1             32.7079433595      -44.5242122861      -17.3751296465  W2        1004            0.0000000000
      3012      1004  TIP3      H2             31.5942833595      -45.3199422861      -16.7282396465  W2        1004            0.0000000000
      3013      1005  TIP3      OH2            37.9069433595      -44.3747622861      -35.2730396465  W2        1005            0.0000000000
      3014      1005  TIP3      H1             37.6334233595      -44.7992122861      -36.0862096465  W2        1005            0.0000000000
      3015      1005  TIP3      H2             37.9463533595      -43.4433122861      -35.4899996465  W2        1005            0.0000000000
      3016      1006  TIP3      OH2            27.0743733595      -49.7245722861      -19.5428996465  W2        1006            0.0000000000
      3017      1006  TIP3      H1             27.2244633595      -50.4534422861      -20.1449296465  W2        1006            0.0000000000
      3018      1006  TIP3      H2             27.0766133595      -48.9474022861      -20.1016796465  W2        1006            0.0000000000
      3019      1007  TIP3      OH2            27.4869433595      -51.3549922861      -22.0501596465  W2        1007            0.0000000000
      3020      1007  TIP3      H1             28.0226933595      -50.9033222861      -22.7022296465  W2        1007            0.0000000000
      3021      1007  TIP3      H2             26.6349033595      -51.4630122861      -22.4727496465  W2        1007            0.0000000000
      3022      1008  TIP3      OH2            29.0687833595      -45.9153722861      -21.8106396465  W2        1008            0.0000000000
      3023      1008  TIP3      H1             29.8192633595      -46.0716222861      -22.3838596465  W2        1008            0.0000000000
      3024      1008  TIP3      H2             28.7296133595      -45.0637122861      -22.0860896465  W2        1008            0.0000000000
      3025      1009  TIP3      OH2            33.4844033595      -48.1001922861      -16.7821096465  W2        1009            0.0000000000
      3026      1009  TIP3      H1             33.6765333595      -49.0312522861      -16.8936596465  W2        1009            0.0000000000
      3027      1009  TIP3      H2             34.3420333595      -47.6752422861      -16.7925696465  W2        1009            0.0000000000
      3028      1010  TIP3      OH2            34.8011233595      -45.3116722861      -18.7048396465  W2        1010            0.0000000000
      3029      1010  TIP3      H1             34.5196233595      -44.6022122861      -19.2824596465  W2        1010            0.0000000000
      3030      1010  TIP3      H2             35.7435533595      -45.3843722861      -18.8557196465  W2        1010            0.0000000000
      3031      1011  TIP3      OH2            25.5530033595      -48.5262222861      -17.6313396465  W2        1011            0.0000000000
      3032      1011  TIP3      H1             24.7859033595      -49.0587422861      -17.8415796465  W2        1011            0.0000000000
      3033      1011  TIP3      H2             26.2319033595      -48.8361822861      -18.2307096465  W2        1011            0.0000000000
      3034      1012  TIP3      OH2            28.2924933595      -53.8984222861      -21.6187996465  W2        1012            0.0000000000
      3035      1012  TIP3      H1             28.1944533595      -52.9521022861      -21.7241796465  W2        1012            0.0000000000
      3036      1012  TIP3      H2             27.5501133595      -54.2710422861      -22.0944496465  W2        1012            0.0000000000
      3037      1013  TIP3      OH2            29.5565433595      -49.5768822861      -18.0549596465  W2        1013            0.0000000000
      3038      1013  TIP3      H1             29.3210833595      -49.7962122861      -17.1534696465  W2        1013            0.0000000000
      3039      1013  TIP3      H2             28.7732333595      -49.7837622861      -18.5647096465  W2        1013            0.0000000000
      3040      1014  TIP3      OH2            32.2722033595      -50.4495322861      -18.9796096465  W2        1014            0.0000000000
      3041      1014  TIP3      H1             31.3247433595      -50.4175622861      -18.8472796465  W2        1014            0.0000000000
      3042      1014  TIP3      H2             32.5848733595      -51.0748222861      -18.3257896465  W2        1014            0.0000000000
      3043      1015  TIP3      OH2            33.9063533595      -51.8154222861      -16.9744196465  W2        1015            0.0000000000
      3044      1015  TIP3      H1             33.8095333595      -52.7676922861      -16.9802296465  W2        1015            0.0000000000
      3045      1015  TIP3      H2             33.5846633595      -51.5467422861      -16.1138696465  W2        1015            0.0000000000
      3046      1016  TIP3      OH2            23.7332833595      -50.6058422861      -17.9268696465  W2        1016            0.0000000000
      3047      1016  TIP3      H1             23.9450233595      -51.3122322861      -18.5371196465  W2        1016            0.0000000000
      3048      1016  TIP3      H2             23.6220333595      -51.0432422861      -17.0827496465  W2        1016            0.0000000000
      3049      1017  TIP3      OH2            28.5143033595      -54.6046822861      -18.9475196465  W2        1017            0.0000000000
      3050      1017  TIP3      H1             29.2261433595      -55.2444622861      -18.9616096465  W2        1017            0.0000000000
      3051      1017  TIP3      H2             28.4133433595      -54.3378522861      -19.8612096465  W2        1017            0.0000000000
      3052      1018  TIP3      OH2            28.8680533595      -52.9218422861      -16.8938896465  W2        1018            0.0000000000
      3053      1018  TIP3      H1             28.7362733595      -53.3974622861      -17.7140396465  W2        1018            0.0000000000
      3054      1018  TIP3      H2             28.2687933595      -52.1774822861      -16.9491796465  W2        1018            0.0000000000
      3055      1019  TIP3      OH2            28.4142833595      -36.0388122861      -33.7174896465  W2        1019            0.0000000000
      3056      1019  TIP3      H1             29.3473533595      -35.8809422861      -33.5736496465  W2        1019            0.0000000000
      3057      1019  TIP3      H2             28.1501633595      -35.3635122861      -34.3423396465  W2        1019            0.0000000000
      3058      1020  TIP3      OH2            21.9827733595      -41.4024322861      -34.2346796465  W2        1020            0.0000000000
      3059      1020  TIP3      H1             22.8966933595      -41.3235422861      -33.9612896465  W2        1020            0.0000000000
      3060      1020  TIP3      H2             21.9900833595      -42.0894722861      -34.9011196465  W2        1020            0.0000000000
      3061      1021  TIP3      OH2            20.6318333595      -36.0095822861      -29.1572896465  W2        1021            0.0000000000
      3062      1021  TIP3      H1             19.9845433595      -36.4714122861      -29.6901696465  W2        1021            0.0000000000
      3063      1021  TIP3      H2             20.9862933595      -36.6812522861      -28.5746696465  W2        1021            0.0000000000
      3064      1022  TIP3      OH2            21.5017533595      -37.9288822861      -27.3526696465  W2        1022            0.0000000000
      3065      1022  TIP3      H1             21.1674333595      -38.8091522861      -27.1806496465  W2        1022            0.0000000000
      3066      1022  TIP3      H2             21.7239933595      -37.5833822861      -26.4881096465  W2        1022            0.0000000000
      3067      1023  TIP3      OH2            39.0502333595      -37.1192422861      -24.3721896465  W2        1023            0.0000000000
      3068      1023  TIP3      H1             39.0289033595      -36.9344022861      -23.4332496465  W2        1023            0.0000000000
      3069      1023  TIP3      H2             39.7408533595      -36.5508422861      -24.7130496465  W2        1023            0.0000000000
      3070      1024  TIP3      OH2            38.6135233595      -37.5521322861      -21.4502796465  W2        1024            0.0000000000
      3071      1024  TIP3      H1             38.1263933595      -38.2877222861      -21.8215396465  W2        1024            0.0000000000
      3072      1024  TIP3      H2             39.1627933595      -37.9457422861      -20.7723396465  W2        1024            0.0000000000
      3073      1025  TIP3      OH2            37.0642533595      -41.7623222861      -16.8122496465  W2        1025            0.0000000000
      3074      1025  TIP3      H1             36.1983633595      -41.8673522861      -16.4180196465  W2        1025            0.0000000000
      3075      1025  TIP3      H2             37.4408433595      -41.0039922861      -16.3657796465  W2        1025            0.0000000000
      3076      1026  TIP3      OH2            38.3652233595      -43.5059522861      -31.2979996465  W2        1026            0.0000000000
      3077      1026  TIP3      H1             39.2153633595      -43.0848622861      -31.1708396465  W2        1026            0.0000000000
      3078      1026  TIP3      H2             38.3707333595      -44.2459422861      -30.6908596465  W2        1026            0.0000000000
      3079      1027  TIP3      OH2            38.7597833595      -45.4522122861      -29.4744296465  W2        1027            0.0000000000
      3080      1027  TIP3      H1             38.0332433595      -45.9319522861      -29.0766696465  W2        1027            0.0000000000
      3081      1027  TIP3      H2             39.3411133595      -45.2467422861      -28.7422696465  W2        1027            0.0000000000
      3082      1028  TIP3      OH2            38.5189033595      -42.6674622861      -24.5266696465  W2        1028            0.0000000000
      3083      1028  TIP3      H1             39.3523233595      -43.0454622861      -24.8073096465  W2        1028            0.0000000000
      3084      1028  TIP3      H2             38.6309333595      -41.7243422861      -24.6457596465  W2        1028            0.0000000000
      3085      1029  TIP3      OH2            37.0051333595      -39.7897122861      -22.2198296465  W2        1029            0.0000000000
      3086      1029  TIP3      H1             36.3576633595      -39.4645622861      -21.5943096465  W2        1029            0.0000000000
      3087      1029  TIP3      H2             36.4875333595      -40.2299422861      -22.8939996465  W2        1029            0.0000000000
      3088      1030  TIP3      OH2            39.0280933595      -45.5513622861      -33.0832996465  W2        1030            0.0000000000
      3089      1030  TIP3      H1             38.5062033595      -45.1949522861      -33.8022096465  W2        1030            0.0000000000
      3090      1030  TIP3      H2             38.9950133595      -44.8765822861      -32.4052096465  W2        1030            0.0000000000
      3091      1031  TIP3      OH2            37.3769933595      -48.3118022861      -34.5325896465  W2        1031            0.0000000000
      3092      1031  TIP3      H1             37.4734333595      -47.6451022861      -35.2126196465  W2        1031            0.0000000000
      3093      1031  TIP3      H2             37.2369533595      -49.1271722861      -35.0140396465  W2        1031            0.0000000000
      3094      1032  TIP3      OH2            36.5464633595      -46.9315622861      -28.9115596465  W2        1032            0.0000000000
      3095      1032  TIP3      H1             36.3963433595      -47.8767022861      -28.9317796465  W2        1032            0.0000000000
      3096      1032  TIP3      H2             36.1929133595      -46.6504222861      -28.0676496465  W2        1032            0.0000000000
      3097      1033  TIP3      OH2            21.5817033595      -44.8533422861      -24.9011796465  W2        1033            0.0000000000
      3098      1033  TIP3      H1             21.7659933595      -44.9351722861      -25.8368896465  W2        1033            0.0000000000
      3099      1033  TIP3      H2             22.4309933595      -44.9776422861      -24.4775396465  W2        1033            0.0000000000
      3100      1034  TIP3      OH2            37.4027533595      -44.9612322861      -19.2727296465  W2        1034            0.0000000000
      3101      1034  TIP3      H1             37.9854833595      -45.6960022861      -19.0810096465  W2        1034            0.0000000000
      3102      1034  TIP3      H2             37.9666833595      -44.1892022861      -19.2261496465  W2        1034            0.0000000000
      3103      1035  TIP3      OH2            38.8994633595      -47.0586522861      -18.5881896465  W2        1035            0.0000000000
      3104      1035  TIP3      H1             38.0361333595      -47.4374422861      -18.7537196465  W2        1035            0.0000000000
      3105      1035  TIP3      H2             39.5038333595      -47.7971722861      -18.6626096465  W2        1035            0.0000000000
      3106      1036  TIP3      OH2            36.6243733595      -50.9038222861      -35.4150396465  W2        1036            0.0000000000
      3107      1036  TIP3      H1             37.2349533595      -51.2751422861      -34.7782196465  W2        1036            0.0000000000
      3108      1036  TIP3      H2             35.7875233595      -51.3251322861      -35.2190396465  W2        1036            0.0000000000
      3109      1037  TIP3      OH2            36.2569433595      -49.3489822861      -30.4490496465  W2        1037            0.0000000000
      3110      1037  TIP3      H1             36.5366533595      -50.2559422861      -30.3248796465  W2        1037            0.0000000000
      3111      1037  TIP3      H2             37.0161133595      -48.9148322861      -30.8381296465  W2        1037            0.0000000000
      3112      1038  TIP3      OH2            36.8687733595      -48.7672422861      -25.0131596465  W2        1038            0.0000000000
      3113      1038  TIP3      H1             37.8015733595      -48.5552522861      -25.0475596465  W2        1038            0.0000000000
      3114      1038  TIP3      H2             36.6335233595      -48.6660322861      -24.0908596465  W2        1038            0.0000000000
      3115      1039  TIP3      OH2            36.8979633595      -48.0307122861      -22.2372196465  W2        1039            0.0000000000
      3116      1039  TIP3      H1             36.0550933595      -47.7626722861      -21.8712396465  W2        1039            0.0000000000
      3117      1039  TIP3      H2             37.3403933595      -47.2085222861      -22.4481096465  W2        1039            0.0000000000
      3118      1040  TIP3      OH2            21.1791833595      -49.5828422861      -18.7602996465  W2        1040            0.0000000000
      3119      1040  TIP3      H1             22.0986733595      -49.7050122861      -18.5239896465  W2        1040            0.0000000000
      3120      1040  TIP3      H2             20.7296333595      -50.3328722861      -18.3709496465  W2        1040            0.0000000000
      3121      1041  TIP3      OH2            39.1811233595      -54.0506922861      -16.8837196465  W2        1041            0.0000000000
      3122      1041  TIP3      H1             39.5308233595      -54.7043422861      -17.4892496465  W2        1041            0.0000000000
      3123      1041  TIP3      H2             39.3280733595      -53.2132822861      -17.3234596465  W2        1041            0.0000000000
      3124      1042  TIP3      OH2            36.8704233595      -52.0860522861      -30.4008496465  W2        1042            0.0000000000
      3125      1042  TIP3      H1             37.0529233595      -52.5349022861      -29.5753496465  W2        1042            0.0000000000
      3126      1042  TIP3      H2             36.2707133595      -52.6706122861      -30.8643896465  W2        1042            0.0000000000
      3127      1043  TIP3      OH2            22.4004333595      -51.2706822861      -25.8690096465  W2        1043            0.0000000000
      3128      1043  TIP3      H1             22.8455933595      -52.0624322861      -25.5670396465  W2        1043            0.0000000000
      3129      1043  TIP3      H2             22.8667333595      -50.5541622861      -25.4384496465  W2        1043            0.0000000000
      3130      1044  TIP3      OH2            20.7044633595      -48.2713822861      -24.7999896465  W2        1044            0.0000000000
      3131      1044  TIP3      H1             21.1964433595      -48.4923322861      -25.5907896465  W2        1044            0.0000000000
      3132      1044  TIP3      H2             21.0665533595      -47.4310422861      -24.5190396465  W2        1044            0.0000000000
      3133      1045  TIP3      OH2            38.7008433595      -51.9412322861      -18.5345896465  W2        1045            0.0000000000
      3134      1045  TIP3      H1             37.7834133595      -51.6705222861      -18.5702396465  W2        1045            0.0000000000
      3135      1045  TIP3      H2             38.8237833595      -52.4763922861      -19.3186196465  W2        1045            0.0000000000
      3136      1046  TIP3      OH2            38.7370433595      -52.0182422861      -33.8728196465  W2        1046            0.0000000000
      3137      1046  TIP3      H1             39.1493033595      -52.7396722861      -34.3480196465  W2        1046            0.0000000000
      3138      1046  TIP3      H2             39.4186933595      -51.3487822861      -33.8143896465  W2        1046            0.0000000000
      3139      1047  TIP3      OH2            21.0181133595      -52.0134722861      -30.7457496465  W2        1047            0.0000000000
      3140      1047  TIP3      H1             20.0929533595      -51.8048122861      -30.8751996465  W2        1047            0.0000000000
      3141      1047  TIP3      H2             21.4721033595      -51.5293922861      -31.4355196465  W2        1047            0.0000000000
      3142      1048  TIP3      OH2            35.7888333595      -37.0293022861      -28.8000096465  W2        1048            0.0000000000
      3143      1048  TIP3      H1             36.4411233595      -37.3770922861      -29.4080996465  W2        1048            0.0000000000
      3144      1048  TIP3      H2             36.2992133595      -36.5409822861      -28.1540396465  W2        1048            0.0000000000
      3145      1049  TIP3      OH2            20.9816533595      -53.2755722861      -22.4014996465  W2        1049            0.0000000000
      3146      1049  TIP3      H1             20.3167033595      -53.5215422861      -21.7584096465  W2        1049            0.0000000000
      3147      1049  TIP3      H2             20.5387833595      -52.6535322861      -22.9786996465  W2        1049            0.0000000000
      3148      1050  TIP3      OH2            23.1735833595      -40.1001622861      -18.2569196465  W2        1050            0.0000000000
      3149      1050  TIP3      H1             22.3528333595      -39.9255122861      -18.7174496465  W2        1050            0.0000000000
      3150      1050  TIP3      H2             22.9213633595      -40.1736922861      -17.3364796465  W2        1050            0.0000000000
      3151      1051  TIP3      OH2            26.1278733595      -39.1260422861      -21.9985196465  W2        1051            0.0000000000
      3152      1051  TIP3      H1             25.7029833595      -38.3161922861      -22.2810596465  W2        1051            0.0000000000
      3153      1051  TIP3      H2             27.0321533595      -39.0406322861      -22.3005396465  W2        1051            0.0000000000
      3154      1052  TIP3      OH2            30.4390133595      -37.7270422861      -19.0391496465  W2        1052            0.0000000000
      3155      1052  TIP3      H1             30.6237633595      -38.0604322861      -18.1611196465  W2        1052            0.0000000000
      3156      1052  TIP3      H2             31.2854633595      -37.4171822861      -19.3612296465  W2        1052            0.0000000000
      3157      1053  TIP3      OH2            32.7840533595      -36.4411522861      -19.7950096465  W2        1053            0.0000000000
      3158      1053  TIP3      H1             33.4609433595      -37.0739222861      -20.0350896465  W2        1053            0.0000000000
      3159      1053  TIP3      H2             33.1059333595      -36.0401022861      -18.9876796465  W2        1053            0.0000000000
      3160      1054  TIP3      OH2            37.7014333595      -53.8516022861      -20.7155096465  W2        1054            0.0000000000
      3161      1054  TIP3      H1             36.8887833595      -53.5265722861      -21.1030396465  W2        1054            0.0000000000
      3162      1054  TIP3      H2             37.9342833595      -54.6117522861      -21.2485996465  W2        1054            0.0000000000
      3163      1055  TIP3      OH2            23.5295433595      -35.8696522861      -21.9509896465  W2        1055            0.0000000000
      3164      1055  TIP3      H1             22.8091833595      -35.4295522861      -22.4022196465  W2        1055            0.0000000000
      3165      1055  TIP3      H2             23.1639433595      -36.1201822861      -21.1025896465  W2        1055            0.0000000000
      3166      1056  TIP3      OH2            25.9968033595      -36.2692622861      -22.9212696465  W2        1056            0.0000000000
      3167      1056  TIP3      H1             25.1320233595      -36.1974122861      -22.5172596465  W2        1056            0.0000000000
      3168      1056  TIP3      H2             25.9417033595      -35.7225322861      -23.7050196465  W2        1056            0.0000000000
      3169      1057  TIP3      OH2            30.7073633595      -36.3813722861      -23.7456696465  W2        1057            0.0000000000
      3170      1057  TIP3      H1             30.2507633595      -35.8524022861      -24.3998296465  W2        1057            0.0000000000
      3171      1057  TIP3      H2             30.8701633595      -35.7782322861      -23.0204396465  W2        1057            0.0000000000
      3172      1058  TIP3      OH2            33.0349933595      -37.5034122861      -22.8006396465  W2        1058            0.0000000000
      3173      1058  TIP3      H1             32.1303633595      -37.3383922861      -23.0664296465  W2        1058            0.0000000000
      3174      1058  TIP3      H2             33.4638533595      -36.6501922861      -22.8662996465  W2        1058            0.0000000000
      3175      1059  TIP3      OH2            35.6391833595      -35.9335022861      -22.5058596465  W2        1059            0.0000000000
      3176      1059  TIP3      H1             35.4573833595      -35.0176122861      -22.7163696465  W2        1059            0.0000000000
      3177      1059  TIP3      H2             35.8159633595      -36.3437922861      -23.3523996465  W2        1059            0.0000000000
      3178      1060  TIP3      OH2            22.9443533595      -37.2464022861      -25.0408096465  W2        1060            0.0000000000
      3179      1060  TIP3      H1             22.9259533595      -37.6718922861      -24.1835796465  W2        1060            0.0000000000
      3180      1060  TIP3      H2             23.7491433595      -37.5649022861      -25.4495896465  W2        1060            0.0000000000
      3181      1061  TIP3      OH2            25.0856633595      -38.5365322861      -26.3858196465  W2        1061            0.0000000000
      3182      1061  TIP3      H1             24.8667333595      -39.4527922861      -26.2162196465  W2        1061            0.0000000000
      3183      1061  TIP3      H2             25.9098833595      -38.3964922861      -25.9196796465  W2        1061            0.0000000000
      3184      1062  TIP3      OH2            27.6229133595      -38.0666022861      -25.5370196465  W2        1062            0.0000000000
      3185      1062  TIP3      H1             27.8354833595      -38.9547022861      -25.8239296465  W2        1062            0.0000000000
      3186      1062  TIP3      H2             27.6874233595      -38.1008322861      -24.5826196465  W2        1062            0.0000000000
      3187      1063  TIP3      OH2            31.1312833595      -52.4025422861      -26.3926896465  W2        1063            0.0000000000
      3188      1063  TIP3      H1             30.4569633595      -53.0319822861      -26.1371096465  W2        1063            0.0000000000
      3189      1063  TIP3      H2             31.6952033595      -52.8866522861      -26.9958996465  W2        1063            0.0000000000
      3190      1064  TIP3      OH2            36.2740033595      -54.2951422861      -26.2799796465  W2        1064            0.0000000000
      3191      1064  TIP3      H1             36.8777633595      -53.7476022861      -26.7818796465  W2        1064            0.0000000000
      3192      1064  TIP3      H2             35.4042033595      -53.9761022861      -26.5205696465  W2        1064            0.0000000000
      3193      1065  TIP3      OH2            38.0010433595      -53.1562722861      -27.9468896465  W2        1065            0.0000000000
      3194      1065  TIP3      H1             38.6127933595      -53.6707022861      -28.4735296465  W2        1065            0.0000000000
      3195      1065  TIP3      H2             38.3833833595      -52.2790622861      -27.9234496465  W2        1065            0.0000000000
      3196      1066  TIP3      OH2            23.4580333595      -53.7685122861      -28.5706996465  W2        1066            0.0000000000
      3197      1066  TIP3      H1             22.6810133595      -54.0030222861      -29.0781096465  W2        1066            0.0000000000
      3198      1066  TIP3      H2             23.9883933595      -54.5653022861      -28.5618996465  W2        1066            0.0000000000
      3199      1067  TIP3      OH2            22.2943733595      -53.9707022861      -32.7670896465  W2        1067            0.0000000000
      3200      1067  TIP3      H1             22.7334433595      -53.3596522861      -33.3587396465  W2        1067            0.0000000000
      3201      1067  TIP3      H2             21.6606133595      -53.4322922861      -32.2930896465  W2        1067            0.0000000000
      3202      1068  TIP3      OH2            28.0372933595      -53.8418022861      -28.7573896465  W2        1068            0.0000000000
      3203      1068  TIP3      H1             28.9116333595      -53.4533722861      -28.7869596465  W2        1068            0.0000000000
      3204      1068  TIP3      H2             27.9013733595      -54.0570222861      -27.8346696465  W2        1068            0.0000000000
      3205      1069  TIP3      OH2            33.5941333595      -53.8118222861      -27.1082196465  W2        1069            0.0000000000
      3206      1069  TIP3      H1             33.6702933595      -53.7166622861      -28.0576196465  W2        1069            0.0000000000
      3207      1069  TIP3      H2             33.3190533595      -54.7195322861      -26.9793096465  W2        1069            0.0000000000
      3208      1070  TIP3      OH2            34.9473933595      -53.7860422861      -31.4157196465  W2        1070            0.0000000000
      3209      1070  TIP3      H1             34.2445033595      -53.1711222861      -31.6255796465  W2        1070            0.0000000000
      3210      1070  TIP3      H2             34.5025333595      -54.6233722861      -31.2846296465  W2        1070            0.0000000000
      3211      1071  TIP3      OH2            22.1953233595      -38.0224822861      -31.8695796465  W2        1071            0.0000000000
      3212      1071  TIP3      H1             21.5103133595      -38.0605922861      -32.5370696465  W2        1071            0.0000000000
      3213      1071  TIP3      H2             22.1990433595      -37.1097222861      -31.5813696465  W2        1071            0.0000000000
      3214      1072  TIP3      OH2            24.1552833595      -52.0545522861      -34.3246796465  W2        1072            0.0000000000
      3215      1072  TIP3      H1             24.6466233595      -52.6843122861      -34.8521296465  W2        1072            0.0000000000
      3216      1072  TIP3      H2             24.7789133595      -51.7586122861      -33.6615596465  W2        1072            0.0000000000
      3217      1073  TIP3      OH2            29.1812933595      -51.7614022861      -31.8676296465  W2        1073            0.0000000000
      3218      1073  TIP3      H1             29.3594233595      -52.4080822861      -31.1847696465  W2        1073            0.0000000000
      3219      1073  TIP3      H2             29.1279133595      -50.9276322861      -31.4005196465  W2        1073            0.0000000000
      3220      1074  TIP3      OH2            31.0596733595      -36.8129922861      -33.4719596465  W2        1074            0.0000000000
      3221      1074  TIP3      H1             31.9256933595      -36.4462522861      -33.6501396465  W2        1074            0.0000000000
      3222      1074  TIP3      H2             30.8129533595      -37.2521922861      -34.2858796465  W2        1074            0.0000000000
      3223      1075  TIP3      OH2            37.7686333595      -37.2499622861      -30.7928496465  W2        1075            0.0000000000
      3224      1075  TIP3      H1             37.5743433595      -37.9977522861      -31.3578896465  W2        1075            0.0000000000
      3225      1075  TIP3      H2             37.7296433595      -36.4919522861      -31.3760596465  W2        1075            0.0000000000
      3226      1076  TIP3      OH2            23.4158333595      -53.2543222861      -19.0530796465  W2        1076            0.0000000000
      3227      1076  TIP3      H1             23.0496533595      -54.0200622861      -18.6106096465  W2        1076            0.0000000000
      3228      1076  TIP3      H2             24.3286833595      -53.2253022861      -18.7665696465  W2        1076            0.0000000000
      3229      1077  TIP3      OH2            25.3889133595      -53.9038822861      -17.5173696465  W2        1077            0.0000000000
      3230      1077  TIP3      H1             26.2872733595      -54.1778622861      -17.7020296465  W2        1077            0.0000000000
      3231      1077  TIP3      H2             25.0022233595      -54.6462822861      -17.0531096465  W2        1077            0.0000000000
      3232      1078  TIP3      OH2            24.0134433595      -37.1024022861      -34.8443696465  W2        1078            0.0000000000
      3233      1078  TIP3      H1             23.7459033595      -36.8161122861      -33.9710596465  W2        1078            0.0000000000
      3234      1078  TIP3      H2             24.7847033595      -37.6484822861      -34.6921196465  W2        1078            0.0000000000
      3235      1079  TIP3      OH2            33.8101433595      -54.5713522861      -17.3350896465  W2        1079            0.0000000000
      3236      1079  TIP3      H1             33.8868633595      -54.9972822861      -16.4813196465  W2        1079            0.0000000000
      3237      1079  TIP3      H2             34.7038033595      -54.5578822861      -17.6777396465  W2        1079            0.0000000000
      3238      1080  TIP3      OH2            36.9862533595      -38.4987222861      -18.6426696465  W2        1080            0.0000000000
      3239      1080  TIP3      H1             36.2044433595      -38.6849222861      -19.1626096465  W2        1080            0.0000000000
      3240      1080  TIP3      H2             36.9142433595      -37.5692922861      -18.4254196465  W2        1080            0.0000000000
      3241      1081  TIP3      OH2            51.3922933595      -44.6122822861      -28.6119496465  W2        1081            0.0000000000
      3242      1081  TIP3      H1             51.4814033595      -43.6684622861      -28.7442396465  W2        1081            0.0000000000
      3243      1081  TIP3      H2             50.7540533595      -44.8876422861      -29.2700096465  W2        1081            0.0000000000
      3244      1082  TIP3      OH2            50.3254233595      -45.3572122861      -25.1931296465  W2        1082            0.0000000000
      3245      1082  TIP3      H1             50.2871733595      -46.0035822861      -24.4881696465  W2        1082            0.0000000000
      3246      1082  TIP3      H2             50.0030733595      -45.8237722861      -25.9642596465  W2        1082            0.0000000000
      3247      1083  TIP3      OH2            42.6939233595      -45.7430022861      -23.6001396465  W2        1083            0.0000000000
      3248      1083  TIP3      H1             42.7351333595      -46.3686722861      -22.8768996465  W2        1083            0.0000000000
      3249      1083  TIP3      H2             43.3966933595      -45.1191422861      -23.4180996465  W2        1083            0.0000000000
      3250      1084  TIP3      OH2            54.0314433595      -42.4181722861      -26.8916196465  W2        1084            0.0000000000
      3251      1084  TIP3      H1             53.5907133595      -43.1385722861      -26.4410596465  W2        1084            0.0000000000
      3252      1084  TIP3      H2             54.0184133595      -41.6974522861      -26.2618496465  W2        1084            0.0000000000
      3253      1085  TIP3      OH2            43.6172333595      -41.2931122861      -25.0652296465  W2        1085            0.0000000000
      3254      1085  TIP3      H1             43.2477533595      -42.0950622861      -25.4347996465  W2        1085            0.0000000000
      3255      1085  TIP3      H2             44.5583433595      -41.4616222861      -25.0188896465  W2        1085            0.0000000000
      3256      1086  TIP3      OH2            40.2272833595      -47.6328522861      -29.6723496465  W2        1086            0.0000000000
      3257      1086  TIP3      H1             39.7796233595      -46.7869822861      -29.6906996465  W2        1086            0.0000000000
      3258      1086  TIP3      H2             39.6664033595      -48.2124322861      -30.1878396465  W2        1086            0.0000000000
      3259      1087  TIP3      OH2            40.9378933595      -45.4708922861      -27.5465496465  W2        1087            0.0000000000
      3260      1087  TIP3      H1             41.1512433595      -46.2407322861      -27.0192496465  W2        1087            0.0000000000
      3261      1087  TIP3      H2             41.6756533595      -45.3812222861      -28.1497896465  W2        1087            0.0000000000
      3262      1088  TIP3      OH2            51.1429933595      -37.3140022861      -26.6795796465  W2        1088            0.0000000000
      3263      1088  TIP3      H1             51.7626333595      -37.9905322861      -26.9526596465  W2        1088            0.0000000000
      3264      1088  TIP3      H2             50.9347333595      -37.5319222861      -25.7710896465  W2        1088            0.0000000000
      3265      1089  TIP3      OH2            48.7148633595      -42.9250722861      -24.7870296465  W2        1089            0.0000000000
      3266      1089  TIP3      H1             49.0186533595      -43.6109322861      -25.3816196465  W2        1089            0.0000000000
      3267      1089  TIP3      H2             49.4362633595      -42.8062022861      -24.1692296465  W2        1089            0.0000000000
      3268      1090  TIP3      OH2            51.8555633595      -48.5308322861      -24.4595496465  W2        1090            0.0000000000
      3269      1090  TIP3      H1             51.9981533595      -49.4771322861      -24.4393896465  W2        1090            0.0000000000
      3270      1090  TIP3      H2             51.7494633595      -48.3238522861      -25.3880596465  W2        1090            0.0000000000
      3271      1091  TIP3      OH2            45.0103933595      -50.4291922861      -27.1870696465  W2        1091            0.0000000000
      3272      1091  TIP3      H1             45.0535033595      -49.5693422861      -27.6054396465  W2        1091            0.0000000000
      3273      1091  TIP3      H2             44.5528033595      -50.9817222861      -27.8207496465  W2        1091            0.0000000000
      3274      1092  TIP3      OH2            52.7326633595      -50.2986322861      -28.7862396465  W2        1092            0.0000000000
      3275      1092  TIP3      H1             53.3790933595      -50.6273122861      -28.1614796465  W2        1092            0.0000000000
      3276      1092  TIP3      H2             53.2426033595      -49.7807322861      -29.4090996465  W2        1092            0.0000000000
      3277      1093  TIP3      OH2            41.6305433595      -48.0326122861      -26.4249296465  W2        1093            0.0000000000
      3278      1093  TIP3      H1             42.2842033595      -48.5824422861      -25.9929196465  W2        1093            0.0000000000
      3279      1093  TIP3      H2             41.6544733595      -48.3067122861      -27.3417296465  W2        1093            0.0000000000
      3280      1094  TIP3      OH2            46.7869933595      -46.4824822861      -27.2097796465  W2        1094            0.0000000000
      3281      1094  TIP3      H1             47.4030933595      -47.0089422861      -26.7003796465  W2        1094            0.0000000000
      3282      1094  TIP3      H2             46.2008733595      -47.1226122861      -27.6134196465  W2        1094            0.0000000000
      3283      1095  TIP3      OH2            43.8205833595      -51.5113522861      -23.1129896465  W2        1095            0.0000000000
      3284      1095  TIP3      H1             43.6017533595      -50.9812922861      -23.8793896465  W2        1095            0.0000000000
      3285      1095  TIP3      H2             43.1526733595      -51.2848022861      -22.4658496465  W2        1095            0.0000000000
      3286      1096  TIP3      OH2            51.1895633595      -42.0112422861      -29.5690796465  W2        1096            0.0000000000
      3287      1096  TIP3      H1             50.8940733595      -42.3340122861      -30.4203896465  W2        1096            0.0000000000
      3288      1096  TIP3      H2             50.8653433595      -41.1115722861      -29.5278196465  W2        1096            0.0000000000
      3289      1097  TIP3      OH2            46.3897233595      -43.8357822861      -22.8256196465  W2        1097            0.0000000000
      3290      1097  TIP3      H1             45.6496333595      -43.2376322861      -22.7220996465  W2        1097            0.0000000000
      3291      1097  TIP3      H2             47.1036733595      -43.2818222861      -23.1412596465  W2        1097            0.0000000000
      3292      1098  TIP3      OH2            54.4965033595      -51.0077022861      -26.8056496465  W2        1098            0.0000000000
      3293      1098  TIP3      H1             54.2813033595      -51.7733622861      -26.2730496465  W2        1098            0.0000000000
      3294      1098  TIP3      H2             55.1522433595      -50.5352422861      -26.2927996465  W2        1098            0.0000000000
      3295      1099  TIP3      OH2            43.4143133595      -49.6191722861      -25.1607696465  W2        1099            0.0000000000
      3296      1099  TIP3      H1             44.0279433595      -48.9864122861      -24.7875296465  W2        1099            0.0000000000
      3297      1099  TIP3      H2             43.9263833595      -50.0916722861      -25.8170796465  W2        1099            0.0000000000
      3298      1100  TIP3      OH2            44.7971533595      -41.8714822861      -22.0384696465  W2        1100            0.0000000000
      3299      1100  TIP3      H1             44.7919133595      -40.9921322861      -22.4165396465  W2        1100            0.0000000000
      3300      1100  TIP3      H2             43.9435633595      -41.9550722861      -21.6134796465  W2        1100            0.0000000000
      3301      1101  TIP3      OH2            40.9182433595      -42.2006922861      -31.2565396465  W2        1101            0.0000000000
      3302      1101  TIP3      H1             40.6463333595      -41.9715922861      -32.1452496465  W2        1101            0.0000000000
      3303      1101  TIP3      H2             40.9638133595      -41.3628122861      -30.7960096465  W2        1101            0.0000000000
      3304      1102  TIP3      OH2            54.5432133595      -40.5791022861      -24.5436896465  W2        1102            0.0000000000
      3305      1102  TIP3      H1             53.6015833595      -40.5207122861      -24.3819996465  W2        1102            0.0000000000
      3306      1102  TIP3      H2             54.8198233595      -39.6730522861      -24.6807196465  W2        1102            0.0000000000
      3307      1103  TIP3      OH2            47.8470533595      -54.2058422861      -25.6604996465  W2        1103            0.0000000000
      3308      1103  TIP3      H1             47.7294733595      -55.1542422861      -25.7146696465  W2        1103            0.0000000000
      3309      1103  TIP3      H2             46.9920633595      -53.8732322861      -25.3873896465  W2        1103            0.0000000000
      3310      1104  TIP3      OH2            52.7953333595      -38.7977522861      -27.9185296465  W2        1104            0.0000000000
      3311      1104  TIP3      H1             53.2205633595      -39.5049622861      -28.4035696465  W2        1104            0.0000000000
      3312      1104  TIP3      H2             53.1123333595      -37.9964822861      -28.3353096465  W2        1104            0.0000000000
      3313      1105  TIP3      OH2            53.9549833595      -40.8969022861      -29.4098696465  W2        1105            0.0000000000
      3314      1105  TIP3      H1             53.6974633595      -41.5868922861      -30.0212796465  W2        1105            0.0000000000
      3315      1105  TIP3      H2             54.0260633595      -41.3397822861      -28.5642796465  W2        1105            0.0000000000
      3316      1106  TIP3      OH2            50.1135433595      -45.3682822861      -31.1599196465  W2        1106            0.0000000000
      3317      1106  TIP3      H1             49.4020933595      -44.8333122861      -31.5118696465  W2        1106            0.0000000000
      3318      1106  TIP3      H2             50.8045033595      -45.3130722861      -31.8200296465  W2        1106            0.0000000000
      3319      1107  TIP3      OH2            50.1674633595      -46.9108522861      -34.1214196465  W2        1107            0.0000000000
      3320      1107  TIP3      H1             50.8684533595      -46.8881622861      -33.4700196465  W2        1107            0.0000000000
      3321      1107  TIP3      H2             50.4697533595      -47.5388822861      -34.7774896465  W2        1107            0.0000000000
      3322      1108  TIP3      OH2            53.5193133595      -45.1589522861      -30.2083296465  W2        1108            0.0000000000
      3323      1108  TIP3      H1             52.7874133595      -44.9305822861      -29.6352696465  W2        1108            0.0000000000
      3324      1108  TIP3      H2             53.9665333595      -45.8726822861      -29.7535796465  W2        1108            0.0000000000
      3325      1109  TIP3      OH2            53.4166633595      -46.9846922861      -21.1406296465  W2        1109            0.0000000000
      3326      1109  TIP3      H1             53.4965733595      -46.2212522861      -20.5687796465  W2        1109            0.0000000000
      3327      1109  TIP3      H2             52.8154333595      -46.7054522861      -21.8311196465  W2        1109            0.0000000000
      3328      1110  TIP3      OH2            45.1646833595      -44.5283322861      -28.3258296465  W2        1110            0.0000000000
      3329      1110  TIP3      H1             44.8342033595      -44.8989922861      -29.1441296465  W2        1110            0.0000000000
      3330      1110  TIP3      H2             45.7530933595      -45.1989322861      -27.9789996465  W2        1110            0.0000000000
      3331      1111  TIP3      OH2            46.5314333595      -41.1002722861      -25.6446096465  W2        1111            0.0000000000
      3332      1111  TIP3      H1             46.4365633595      -41.6789622861      -26.4011496465  W2        1111            0.0000000000
      3333      1111  TIP3      H2             47.2607933595      -41.4717022861      -25.1483296465  W2        1111            0.0000000000
      3334      1112  TIP3      OH2            45.5312333595      -45.7597722861      -24.6923296465  W2        1112            0.0000000000
      3335      1112  TIP3      H1             46.0964833595      -45.6383522861      -25.4552096465  W2        1112            0.0000000000
      3336      1112  TIP3      H2             45.8501233595      -45.1222722861      -24.0534796465  W2        1112            0.0000000000
      3337      1113  TIP3      OH2            51.8404533595      -40.2565822861      -23.9582796465  W2        1113            0.0000000000
      3338      1113  TIP3      H1             51.6001133595      -39.5942722861      -23.3103596465  W2        1113            0.0000000000
      3339      1113  TIP3      H2             51.6422733595      -41.0910622861      -23.5333196465  W2        1113            0.0000000000
      3340      1114  TIP3      OH2            46.4113033595      -41.3605022861      -19.9751396465  W2        1114            0.0000000000
      3341      1114  TIP3      H1             46.1000533595      -40.5781822861      -19.5198196465  W2        1114            0.0000000000
      3342      1114  TIP3      H2             45.7613233595      -41.5135922861      -20.6609396465  W2        1114            0.0000000000
      3343      1115  TIP3      OH2            52.3902633595      -45.9966622861      -32.5232096465  W2        1115            0.0000000000
      3344      1115  TIP3      H1             52.9698133595      -45.8466322861      -31.7763196465  W2        1115            0.0000000000
      3345      1115  TIP3      H2             52.8042633595      -45.5259222861      -33.2465696465  W2        1115            0.0000000000
      3346      1116  TIP3      OH2            43.3312933595      -45.1623922861      -20.7465696465  W2        1116            0.0000000000
      3347      1116  TIP3      H1             43.4016133595      -44.5117122861      -20.0480696465  W2        1116            0.0000000000
      3348      1116  TIP3      H2             42.4405133595      -45.0596422861      -21.0814796465  W2        1116            0.0000000000
      3349      1117  TIP3      OH2            50.1167533595      -39.2598122861      -29.0878996465  W2        1117            0.0000000000
      3350      1117  TIP3      H1             50.5905133595      -38.9641822861      -28.3104796465  W2        1117            0.0000000000
      3351      1117  TIP3      H2             49.5536833595      -38.5216522861      -29.3209396465  W2        1117            0.0000000000
      3352      1118  TIP3      OH2            44.6508933595      -39.2890022861      -19.2117596465  W2        1118            0.0000000000
      3353      1118  TIP3      H1             44.6584233595      -39.4250322861      -20.1592096465  W2        1118            0.0000000000
      3354      1118  TIP3      H2             43.7349333595      -39.4061922861      -18.9597596465  W2        1118            0.0000000000
      3355      1119  TIP3      OH2            44.1549533595      -45.4589022861      -30.7365496465  W2        1119            0.0000000000
      3356      1119  TIP3      H1             43.8630833595      -44.6907322861      -31.2274196465  W2        1119            0.0000000000
      3357      1119  TIP3      H2             43.4804733595      -46.1182822861      -30.8994096465  W2        1119            0.0000000000
      3358      1120  TIP3      OH2            40.2479633595      -43.0959822861      -21.9215696465  W2        1120            0.0000000000
      3359      1120  TIP3      H1             39.7468033595      -43.1240422861      -22.7365996465  W2        1120            0.0000000000
      3360      1120  TIP3      H2             40.2533333595      -44.0016622861      -21.6118396465  W2        1120            0.0000000000
      3361      1121  TIP3      OH2            39.9982333595      -40.3156022861      -25.0375496465  W2        1121            0.0000000000
      3362      1121  TIP3      H1             40.9442933595      -40.4599022861      -25.0565996465  W2        1121            0.0000000000
      3363      1121  TIP3      H2             39.8858633595      -39.5313222861      -24.5004296465  W2        1121            0.0000000000
      3364      1122  TIP3      OH2            49.1744833595      -40.0757122861      -20.4790396465  W2        1122            0.0000000000
      3365      1122  TIP3      H1             49.2619433595      -39.2492522861      -20.0041296465  W2        1122            0.0000000000
      3366      1122  TIP3      H2             48.3109933595      -40.4053322861      -20.2301096465  W2        1122            0.0000000000
      3367      1123  TIP3      OH2            49.5890633595      -36.3033422861      -30.6729796465  W2        1123            0.0000000000
      3368      1123  TIP3      H1             49.5136633595      -36.4246222861      -31.6194596465  W2        1123            0.0000000000
      3369      1123  TIP3      H2             49.6219333595      -35.3540722861      -30.5545196465  W2        1123            0.0000000000
      3370      1124  TIP3      OH2            43.2424433595      -37.5146422861      -28.8920796465  W2        1124            0.0000000000
      3371      1124  TIP3      H1             43.3944833595      -37.8626022861      -28.0134296465  W2        1124            0.0000000000
      3372      1124  TIP3      H2             42.3914833595      -37.8709122861      -29.1473596465  W2        1124            0.0000000000
      3373      1125  TIP3      OH2            52.6906633595      -37.1493222861      -33.6707396465  W2        1125            0.0000000000
      3374      1125  TIP3      H1             53.0655033595      -37.8937122861      -34.1414796465  W2        1125            0.0000000000
      3375      1125  TIP3      H2             52.6950333595      -37.4192622861      -32.7524096465  W2        1125            0.0000000000
      3376      1126  TIP3      OH2            52.3594733595      -37.2236122861      -30.9215196465  W2        1126            0.0000000000
      3377      1126  TIP3      H1             51.4244533595      -37.1234222861      -30.7428196465  W2        1126            0.0000000000
      3378      1126  TIP3      H2             52.6396633595      -37.9330122861      -30.3431996465  W2        1126            0.0000000000
      3379      1127  TIP3      OH2            42.4970133595      -41.7724422861      -20.8782896465  W2        1127            0.0000000000
      3380      1127  TIP3      H1             42.7131433595      -42.1338822861      -20.0187096465  W2        1127            0.0000000000
      3381      1127  TIP3      H2             41.6414833595      -42.1470622861      -21.0879396465  W2        1127            0.0000000000
      3382      1128  TIP3      OH2            45.1158133595      -53.3023922861      -24.8828696465  W2        1128            0.0000000000
      3383      1128  TIP3      H1             44.2541833595      -53.3895722861      -25.2905796465  W2        1128            0.0000000000
      3384      1128  TIP3      H2             45.0933833595      -52.4463822861      -24.4551096465  W2        1128            0.0000000000
      3385      1129  TIP3      OH2            49.7785933595      -53.5803522861      -21.5081696465  W2        1129            0.0000000000
      3386      1129  TIP3      H1             50.1989033595      -53.9956422861      -20.7551096465  W2        1129            0.0000000000
      3387      1129  TIP3      H2             48.8455533595      -53.7590222861      -21.3909696465  W2        1129            0.0000000000
      3388      1130  TIP3      OH2            53.1050833595      -49.8248322861      -20.6547196465  W2        1130            0.0000000000
      3389      1130  TIP3      H1             52.5910333595      -49.9506122861      -19.8571196465  W2        1130            0.0000000000
      3390      1130  TIP3      H2             52.9495533595      -48.9125222861      -20.8990996465  W2        1130            0.0000000000
      3391      1131  TIP3      OH2            53.8675733595      -44.9638322861      -34.8934196465  W2        1131            0.0000000000
      3392      1131  TIP3      H1             53.9096533595      -45.1864422861      -35.8234196465  W2        1131            0.0000000000
      3393      1131  TIP3      H2             54.7167833595      -44.5651222861      -34.7034296465  W2        1131            0.0000000000
      3394      1132  TIP3      OH2            49.4403233595      -51.0880122861      -34.2230896465  W2        1132            0.0000000000
      3395      1132  TIP3      H1             49.1868033595      -51.0688522861      -33.3002796465  W2        1132            0.0000000000
      3396      1132  TIP3      H2             49.1835333595      -51.9594722861      -34.5244696465  W2        1132            0.0000000000
      3397      1133  TIP3      OH2            45.2068233595      -48.3369422861      -23.7878496465  W2        1133            0.0000000000
      3398      1133  TIP3      H1             44.5650333595      -48.3772122861      -23.0788396465  W2        1133            0.0000000000
      3399      1133  TIP3      H2             45.2440233595      -47.4104722861      -24.0255496465  W2        1133            0.0000000000
      3400      1134  TIP3      OH2            45.2037333595      -48.1159322861      -28.8758496465  W2        1134            0.0000000000
      3401      1134  TIP3      H1             44.3110233595      -48.4563222861      -28.9344696465  W2        1134            0.0000000000
      3402      1134  TIP3      H2             45.6543933595      -48.4928422861      -29.6315296465  W2        1134            0.0000000000
      3403      1135  TIP3      OH2            50.7392833595      -47.6999022861      -30.0587696465  W2        1135            0.0000000000
      3404      1135  TIP3      H1             50.3303133595      -46.8850422861      -30.3502896465  W2        1135            0.0000000000
      3405      1135  TIP3      H2             51.4599033595      -47.8398922861      -30.6730596465  W2        1135            0.0000000000
      3406      1136  TIP3      OH2            49.8414433595      -47.5242622861      -18.5706996465  W2        1136            0.0000000000
      3407      1136  TIP3      H1             49.2788233595      -48.2291022861      -18.2499196465  W2        1136            0.0000000000
      3408      1136  TIP3      H2             50.6677833595      -47.6450722861      -18.1029396465  W2        1136            0.0000000000
      3409      1137  TIP3      OH2            51.7440533595      -48.2538622861      -27.2447996465  W2        1137            0.0000000000
      3410      1137  TIP3      H1             51.5485033595      -47.6481822861      -27.9597396465  W2        1137            0.0000000000
      3411      1137  TIP3      H2             51.9253133595      -49.0873422861      -27.6791696465  W2        1137            0.0000000000
      3412      1138  TIP3      OH2            42.9568733595      -48.0165922861      -21.9206496465  W2        1138            0.0000000000
      3413      1138  TIP3      H1             42.9188133595      -47.6164322861      -21.0519396465  W2        1138            0.0000000000
      3414      1138  TIP3      H2             42.4659833595      -48.8333522861      -21.8303596465  W2        1138            0.0000000000
      3415      1139  TIP3      OH2            46.3226133595      -50.6423622861      -35.1220496465  W2        1139            0.0000000000
      3416      1139  TIP3      H1             45.8916833595      -51.0873522861      -34.3923096465  W2        1139            0.0000000000
      3417      1139  TIP3      H2             45.6044833595      -50.2707322861      -35.6342996465  W2        1139            0.0000000000
      3418      1140  TIP3      OH2            39.5649533595      -50.9004122861      -28.0701796465  W2        1140            0.0000000000
      3419      1140  TIP3      H1             40.1957233595      -50.9292022861      -27.3507896465  W2        1140            0.0000000000
      3420      1140  TIP3      H2             40.0143833595      -51.3255422861      -28.8005896465  W2        1140            0.0000000000
      3421      1141  TIP3      OH2            40.8391633595      -50.1542122861      -32.6461396465  W2        1141            0.0000000000
      3422      1141  TIP3      H1             41.3133333595      -49.5632222861      -33.2310496465  W2        1141            0.0000000000
      3423      1141  TIP3      H2             40.1218033595      -49.6239222861      -32.2991296465  W2        1141            0.0000000000
      3424      1142  TIP3      OH2            51.0079733595      -46.6157322861      -22.5735596465  W2        1142            0.0000000000
      3425      1142  TIP3      H1             51.3314533595      -47.2467622861      -23.2165096465  W2        1142            0.0000000000
      3426      1142  TIP3      H2             50.5679033595      -47.1505122861      -21.9128196465  W2        1142            0.0000000000
      3427      1143  TIP3      OH2            47.7852633595      -50.6881822861      -27.7894396465  W2        1143            0.0000000000
      3428      1143  TIP3      H1             46.8743733595      -50.6315022861      -27.5008396465  W2        1143            0.0000000000
      3429      1143  TIP3      H2             48.2905533595      -50.7486322861      -26.9787196465  W2        1143            0.0000000000
      3430      1144  TIP3      OH2            42.6136033595      -49.0595522861      -28.9626796465  W2        1144            0.0000000000
      3431      1144  TIP3      H1             41.7244033595      -48.9600022861      -29.3027196465  W2        1144            0.0000000000
      3432      1144  TIP3      H2             42.9100933595      -49.9012522861      -29.3088896465  W2        1144            0.0000000000
      3433      1145  TIP3      OH2            46.2667833595      -49.0592922861      -31.3062196465  W2        1145            0.0000000000
      3434      1145  TIP3      H1             47.1983333595      -48.9302922861      -31.1279096465  W2        1145            0.0000000000
      3435      1145  TIP3      H2             46.0518133595      -48.3898622861      -31.9557496465  W2        1145            0.0000000000
      3436      1146  TIP3      OH2            52.1904533595      -51.4535522861      -24.5252596465  W2        1146            0.0000000000
      3437      1146  TIP3      H1             51.5136133595      -51.3222422861      -23.8612896465  W2        1146            0.0000000000
      3438      1146  TIP3      H2             51.7049433595      -51.6086022861      -25.3354896465  W2        1146            0.0000000000
      3439      1147  TIP3      OH2            44.9408033595      -47.8650722861      -33.7396096465  W2        1147            0.0000000000
      3440      1147  TIP3      H1             44.3983133595      -48.2446922861      -34.4308496465  W2        1147            0.0000000000
      3441      1147  TIP3      H2             45.7742933595      -47.6706022861      -34.1681996465  W2        1147            0.0000000000
      3442      1148  TIP3      OH2            43.0759433595      -43.3078822861      -18.6404496465  W2        1148            0.0000000000
      3443      1148  TIP3      H1             43.8081833595      -43.0532922861      -18.0789996465  W2        1148            0.0000000000
      3444      1148  TIP3      H2             42.2958133595      -43.1033422861      -18.1249096465  W2        1148            0.0000000000
      3445      1149  TIP3      OH2            49.1052333595      -47.9008822861      -25.9024796465  W2        1149            0.0000000000
      3446      1149  TIP3      H1             49.6695733595      -48.4472222861      -26.4495196465  W2        1149            0.0000000000
      3447      1149  TIP3      H2             48.9575733595      -48.4226922861      -25.1137196465  W2        1149            0.0000000000
      3448      1150  TIP3      OH2            44.1072033595      -51.7642722861      -29.4839996465  W2        1150            0.0000000000
      3449      1150  TIP3      H1             43.7901533595      -52.6667422861      -29.5194596465  W2        1150            0.0000000000
      3450      1150  TIP3      H2             44.8886133595      -51.7625322861      -30.0368396465  W2        1150            0.0000000000
      3451      1151  TIP3      OH2            47.7318233595      -49.5122722861      -23.4884396465  W2        1151            0.0000000000
      3452      1151  TIP3      H1             46.8963533595      -49.0583222861      -23.3781996465  W2        1151            0.0000000000
      3453      1151  TIP3      H2             48.2558833595      -49.2364222861      -22.7364496465  W2        1151            0.0000000000
      3454      1152  TIP3      OH2            48.2760833595      -43.2995022861      -31.8037996465  W2        1152            0.0000000000
      3455      1152  TIP3      H1             47.5311833595      -43.8069722861      -32.1260096465  W2        1152            0.0000000000
      3456      1152  TIP3      H2             48.1418033595      -43.2507022861      -30.8573196465  W2        1152            0.0000000000
      3457      1153  TIP3      OH2            52.1737633595      -50.4855122861      -33.6045396465  W2        1153            0.0000000000
      3458      1153  TIP3      H1             51.2351833595      -50.3739522861      -33.7556596465  W2        1153            0.0000000000
      3459      1153  TIP3      H2             52.4709733595      -49.6288222861      -33.2979696465  W2        1153            0.0000000000
      3460      1154  TIP3      OH2            49.7952933595      -43.1151722861      -20.5668896465  W2        1154            0.0000000000
      3461      1154  TIP3      H1             49.4499033595      -43.4969322861      -19.7599296465  W2        1154            0.0000000000
      3462      1154  TIP3      H2             49.5953033595      -42.1818122861      -20.4955996465  W2        1154            0.0000000000
      3463      1155  TIP3      OH2            52.8921133595      -48.6182422861      -31.9437996465  W2        1155            0.0000000000
      3464      1155  TIP3      H1             53.7840133595      -48.7557422861      -31.6246796465  W2        1155            0.0000000000
      3465      1155  TIP3      H2             52.9484733595      -47.8276322861      -32.4804496465  W2        1155            0.0000000000
      3466      1156  TIP3      OH2            43.4009133595      -44.0045022861      -26.0340096465  W2        1156            0.0000000000
      3467      1156  TIP3      H1             44.1456333595      -44.0069322861      -26.6353596465  W2        1156            0.0000000000
      3468      1156  TIP3      H2             43.4785733595      -44.8281222861      -25.5524996465  W2        1156            0.0000000000
      3469      1157  TIP3      OH2            50.4014933595      -41.8410722861      -32.7783396465  W2        1157            0.0000000000
      3470      1157  TIP3      H1             50.1063333595      -41.0142822861      -32.3968596465  W2        1157            0.0000000000
      3471      1157  TIP3      H2             49.6984933595      -42.4603822861      -32.5821996465  W2        1157            0.0000000000
      3472      1158  TIP3      OH2            40.4088833595      -45.5438122861      -20.7191596465  W2        1158            0.0000000000
      3473      1158  TIP3      H1             40.6317433595      -45.9618522861      -19.8874096465  W2        1158            0.0000000000
      3474      1158  TIP3      H2             39.8068933595      -46.1563122861      -21.1418796465  W2        1158            0.0000000000
      3475      1159  TIP3      OH2            47.4253733595      -46.0268222861      -18.5061896465  W2        1159            0.0000000000
      3476      1159  TIP3      H1             47.1294533595      -46.1925222861      -19.4012796465  W2        1159            0.0000000000
      3477      1159  TIP3      H2             48.3568933595      -46.2467922861      -18.5167996465  W2        1159            0.0000000000
      3478      1160  TIP3      OH2            52.0456533595      -40.6536222861      -20.6163896465  W2        1160            0.0000000000
      3479      1160  TIP3      H1             51.1450833595      -40.4703622861      -20.8839996465  W2        1160            0.0000000000
      3480      1160  TIP3      H2             52.0797633595      -40.3946922861      -19.6955096465  W2        1160            0.0000000000
      3481      1161  TIP3      OH2            53.2325433595      -44.8148422861      -24.7627296465  W2        1161            0.0000000000
      3482      1161  TIP3      H1             52.3042333595      -45.0466522861      -24.7897996465  W2        1161            0.0000000000
      3483      1161  TIP3      H2             53.6836533595      -45.5918622861      -25.0928496465  W2        1161            0.0000000000
      3484      1162  TIP3      OH2            45.7758533595      -40.4866822861      -28.6298596465  W2        1162            0.0000000000
      3485      1162  TIP3      H1             46.3030733595      -39.7132422861      -28.8299796465  W2        1162            0.0000000000
      3486      1162  TIP3      H2             44.8957033595      -40.2617622861      -28.9314596465  W2        1162            0.0000000000
      3487      1163  TIP3      OH2            41.5306233595      -45.6242722861      -34.0426196465  W2        1163            0.0000000000
      3488      1163  TIP3      H1             42.1466133595      -44.9975522861      -33.6631396465  W2        1163            0.0000000000
      3489      1163  TIP3      H2             40.6688833595      -45.3082922861      -33.7709696465  W2        1163            0.0000000000
      3490      1164  TIP3      OH2            47.2030833595      -42.8236922861      -29.0534296465  W2        1164            0.0000000000
      3491      1164  TIP3      H1             46.9620833595      -41.8982522861      -29.0118996465  W2        1164            0.0000000000
      3492      1164  TIP3      H2             46.4624433595      -43.2825622861      -28.6570396465  W2        1164            0.0000000000
      3493      1165  TIP3      OH2            47.7177433595      -38.6743322861      -22.7383196465  W2        1165            0.0000000000
      3494      1165  TIP3      H1             48.0802133595      -37.8197722861      -22.9718796465  W2        1165            0.0000000000
      3495      1165  TIP3      H2             48.2492633595      -38.9661722861      -21.9976896465  W2        1165            0.0000000000
      3496      1166  TIP3      OH2            45.8861633595      -37.8019322861      -29.5082096465  W2        1166            0.0000000000
      3497      1166  TIP3      H1             44.9362133595      -37.6961922861      -29.4568796465  W2        1166            0.0000000000
      3498      1166  TIP3      H2             46.2379733595      -36.9811922861      -29.1634596465  W2        1166            0.0000000000
      3499      1167  TIP3      OH2            51.2618233595      -42.5752622861      -23.0377596465  W2        1167            0.0000000000
      3500      1167  TIP3      H1             50.8359533595      -42.8030922861      -22.2113596465  W2        1167            0.0000000000
      3501      1167  TIP3      H2             51.8424033595      -43.3140822861      -23.2202296465  W2        1167            0.0000000000
      3502      1168  TIP3      OH2            53.4647133595      -41.6462122861      -33.9638596465  W2        1168            0.0000000000
      3503      1168  TIP3      H1             53.8180233595      -42.0262322861      -33.1595096465  W2        1168            0.0000000000
      3504      1168  TIP3      H2             52.5160633595      -41.7397322861      -33.8769296465  W2        1168            0.0000000000
      3505      1169  TIP3      OH2            53.9202433595      -38.0233122861      -20.5682796465  W2        1169            0.0000000000
      3506      1169  TIP3      H1             53.3185633595      -38.5790222861      -21.0636496465  W2        1169            0.0000000000
      3507      1169  TIP3      H2             54.2016133595      -37.3563322861      -21.1945396465  W2        1169            0.0000000000
      3508      1170  TIP3      OH2            42.0428333595      -50.7905422861      -21.1610196465  W2        1170            0.0000000000
      3509      1170  TIP3      H1             41.1500633595      -50.4520022861      -21.2286196465  W2        1170            0.0000000000
      3510      1170  TIP3      H2             41.9441133595      -51.6459322861      -20.7429396465  W2        1170            0.0000000000
      3511      1171  TIP3      OH2            54.3306433595      -42.9740122861      -31.7370696465  W2        1171            0.0000000000
      3512      1171  TIP3      H1             54.0534033595      -43.7020822861      -31.1809596465  W2        1171            0.0000000000
      3513      1171  TIP3      H2             55.2579433595      -42.8548122861      -31.5318096465  W2        1171            0.0000000000
      3514      1172  TIP3      OH2            41.6940333595      -38.9861022861      -22.7260796465  W2        1172            0.0000000000
      3515      1172  TIP3      H1             41.9110633595      -39.9178622861      -22.7571096465  W2        1172            0.0000000000
      3516      1172  TIP3      H2             41.9403833595      -38.7116022861      -21.8427996465  W2        1172            0.0000000000
      3517      1173  TIP3      OH2            47.5554933595      -40.5346022861      -35.5168596465  W2        1173            0.0000000000
      3518      1173  TIP3      H1             47.7944733595      -41.2827922861      -36.0639696465  W2        1173            0.0000000000
      3519      1173  TIP3      H2             47.2866233595      -40.9224322861      -34.6840796465  W2        1173            0.0000000000
      3520      1174  TIP3      OH2            46.4925533595      -40.9642222861      -33.0605996465  W2        1174            0.0000000000
      3521      1174  TIP3      H1             46.6393533595      -41.4842422861      -32.2705096465  W2        1174            0.0000000000
      3522      1174  TIP3      H2             46.4897233595      -40.0574622861      -32.7540096465  W2        1174            0.0000000000
      3523      1175  TIP3      OH2            42.9456633595      -43.7118922861      -32.5500596465  W2        1175            0.0000000000
      3524      1175  TIP3      H1             42.2595933595      -43.3596422861      -31.9830896465  W2        1175            0.0000000000
      3525      1175  TIP3      H2             43.4684533595      -42.9489322861      -32.7966296465  W2        1175            0.0000000000
      3526      1176  TIP3      OH2            50.7771733595      -51.0495122861      -22.2711596465  W2        1176            0.0000000000
      3527      1176  TIP3      H1             51.4759633595      -50.9756422861      -21.6211896465  W2        1176            0.0000000000
      3528      1176  TIP3      H2             50.3963133595      -51.9140122861      -22.1168696465  W2        1176            0.0000000000
      3529      1177  TIP3      OH2            51.5616633595      -51.3973422861      -31.1739296465  W2        1177            0.0000000000
      3530      1177  TIP3      H1             51.7814933595      -50.9258022861      -31.9773896465  W2        1177            0.0000000000
      3531      1177  TIP3      H2             52.1200633595      -51.0030822861      -30.5038696465  W2        1177            0.0000000000
      3532      1178  TIP3      OH2            49.2302733595      -39.2668622861      -32.3111796465  W2        1178            0.0000000000
      3533      1178  TIP3      H1             48.4138833595      -38.7698922861      -32.2587496465  W2        1178            0.0000000000
      3534      1178  TIP3      H2             49.7599033595      -38.7915122861      -32.9512996465  W2        1178            0.0000000000
      3535      1179  TIP3      OH2            48.7616533595      -49.6694622861      -30.3390896465  W2        1179            0.0000000000
      3536      1179  TIP3      H1             49.5739133595      -49.1651422861      -30.2929196465  W2        1179            0.0000000000
      3537      1179  TIP3      H2             48.5169533595      -49.8144922861      -29.4251296465  W2        1179            0.0000000000
      3538      1180  TIP3      OH2            49.2972933595      -48.6831922861      -21.1544296465  W2        1180            0.0000000000
      3539      1180  TIP3      H1             49.4163233595      -48.1096522861      -20.3973896465  W2        1180            0.0000000000
      3540      1180  TIP3      H2             49.9527533595      -49.3712522861      -21.0396496465  W2        1180            0.0000000000
      3541      1181  TIP3      OH2            49.6453233595      -52.5881622861      -29.4009796465  W2        1181            0.0000000000
      3542      1181  TIP3      H1             49.2986733595      -51.9711022861      -28.7565496465  W2        1181            0.0000000000
      3543      1181  TIP3      H2             50.3040133595      -52.0875922861      -29.8824296465  W2        1181            0.0000000000
      3544      1182  TIP3      OH2            46.5685833595      -38.2231422861      -32.3294896465  W2        1182            0.0000000000
      3545      1182  TIP3      H1             46.7294533595      -37.4233922861      -32.8302296465  W2        1182            0.0000000000
      3546      1182  TIP3      H2             46.3713633595      -37.9165422861      -31.4444296465  W2        1182            0.0000000000
      3547      1183  TIP3      OH2            45.3030233595      -51.5252222861      -32.7137296465  W2        1183            0.0000000000
      3548      1183  TIP3      H1             45.2195033595      -50.6369122861      -32.3670896465  W2        1183            0.0000000000
      3549      1183  TIP3      H2             46.1930533595      -51.7905522861      -32.4820496465  W2        1183            0.0000000000
      3550      1184  TIP3      OH2            54.1039733595      -47.0260622861      -26.2237296465  W2        1184            0.0000000000
      3551      1184  TIP3      H1             53.3064133595      -47.4410422861      -26.5522296465  W2        1184            0.0000000000
      3552      1184  TIP3      H2             54.5490833595      -47.7166922861      -25.7326796465  W2        1184            0.0000000000
      3553      1185  TIP3      OH2            43.5615533595      -41.0980022861      -33.6532796465  W2        1185            0.0000000000
      3554      1185  TIP3      H1             44.1537033595      -40.3985222861      -33.3770396465  W2        1185            0.0000000000
      3555      1185  TIP3      H2             44.0208533595      -41.5310522861      -34.3728196465  W2        1185            0.0000000000
      3556      1186  TIP3      OH2            41.8774733595      -48.4337022861      -34.5373396465  W2        1186            0.0000000000
      3557      1186  TIP3      H1             41.8327333595      -47.4943922861      -34.3586396465  W2        1186            0.0000000000
      3558      1186  TIP3      H2             40.9897933595      -48.6692122861      -34.8071296465  W2        1186            0.0000000000
      3559      1187  TIP3      OH2            42.6856733595      -53.6520422861      -25.8642396465  W2        1187            0.0000000000
      3560      1187  TIP3      H1             42.4566533595      -53.5927922861      -26.7917396465  W2        1187            0.0000000000
      3561      1187  TIP3      H2             42.2430133595      -54.4434922861      -25.5578296465  W2        1187            0.0000000000
      3562      1188  TIP3      OH2            41.6160033595      -39.7113322861      -29.7036596465  W2        1188            0.0000000000
      3563      1188  TIP3      H1             40.7838633595      -39.2390622861      -29.6765196465  W2        1188            0.0000000000
      3564      1188  TIP3      H2             42.1618333595      -39.2015722861      -30.3023496465  W2        1188            0.0000000000
      3565      1189  TIP3      OH2            40.9043733595      -37.0989622861      -18.3738596465  W2        1189            0.0000000000
      3566      1189  TIP3      H1             41.4445933595      -37.3155622861      -17.6139396465  W2        1189            0.0000000000
      3567      1189  TIP3      H2             40.4231733595      -37.9043622861      -18.5636096465  W2        1189            0.0000000000
      3568      1190  TIP3      OH2            45.5017133595      -38.1795222861      -16.7534396465  W2        1190            0.0000000000
      3569      1190  TIP3      H1             46.2694333595      -38.6384422861      -16.4125196465  W2        1190            0.0000000000
      3570      1190  TIP3      H2             45.4803333595      -38.4055422861      -17.6833196465  W2        1190            0.0000000000
      3571      1191  TIP3      OH2            49.5936733595      -38.6714622861      -35.3782596465  W2        1191            0.0000000000
      3572      1191  TIP3      H1             48.9497733595      -39.3026022861      -35.0568896465  W2        1191            0.0000000000
      3573      1191  TIP3      H2             50.3555033595      -39.2026622861      -35.6099096465  W2        1191            0.0000000000
      3574      1192  TIP3      OH2            52.0785833595      -39.7994122861      -18.0242896465  W2        1192            0.0000000000
      3575      1192  TIP3      H1             51.7275333595      -40.6561122861      -17.7812496465  W2        1192            0.0000000000
      3576      1192  TIP3      H2             52.8049033595      -39.6567422861      -17.4173896465  W2        1192            0.0000000000
      3577      1193  TIP3      OH2            54.1979633595      -38.8544722861      -35.1444596465  W2        1193            0.0000000000
      3578      1193  TIP3      H1             54.4810033595      -39.6489522861      -34.6917696465  W2        1193            0.0000000000
      3579      1193  TIP3      H2             54.9377533595      -38.6213722861      -35.7053496465  W2        1193            0.0000000000
      3580      1194  TIP3      OH2            40.8113233595      -43.2885522861      -17.4194296465  W2        1194            0.0000000000
      3581      1194  TIP3      H1             40.9553733595      -44.1904822861      -17.7057596465  W2        1194            0.0000000000
      3582      1194  TIP3      H2             40.0390633595      -43.0023422861      -17.9071996465  W2        1194            0.0000000000
      3583      1195  TIP3      OH2            45.1526933595      -42.9449822861      -35.2869696465  W2        1195            0.0000000000
      3584      1195  TIP3      H1             45.2171033595      -43.7390222861      -34.7563296465  W2        1195            0.0000000000
      3585      1195  TIP3      H2             45.8056133595      -43.0637022861      -35.9767696465  W2        1195            0.0000000000
      3586      1196  TIP3      OH2            47.4669333595      -43.3187422861      -17.9867896465  W2        1196            0.0000000000
      3587      1196  TIP3      H1             47.1383133595      -43.0479322861      -18.8440496465  W2        1196            0.0000000000
      3588      1196  TIP3      H2             47.6187533595      -44.2597622861      -18.0742896465  W2        1196            0.0000000000
      3589      1197  TIP3      OH2            50.5050333595      -41.8978122861      -35.5511696465  W2        1197            0.0000000000
      3590      1197  TIP3      H1             50.2364433595      -41.7176022861      -34.6502796465  W2        1197            0.0000000000
      3591      1197  TIP3      H2             50.2985933595      -42.8231922861      -35.6825896465  W2        1197            0.0000000000
      3592      1198  TIP3      OH2            53.2014533595      -43.4030122861      -20.6035596465  W2        1198            0.0000000000
      3593      1198  TIP3      H1             53.9469333595      -42.8146422861      -20.7231596465  W2        1198            0.0000000000
      3594      1198  TIP3      H2             52.4441333595      -42.8210422861      -20.5402496465  W2        1198            0.0000000000
      3595      1199  TIP3      OH2            41.6439733595      -46.0882222861      -17.9994996465  W2        1199            0.0000000000
      3596      1199  TIP3      H1             42.0520933595      -46.9455622861      -18.1204396465  W2        1199            0.0000000000
      3597      1199  TIP3      H2             41.3837333595      -46.0740922861      -17.0784696465  W2        1199            0.0000000000
      3598      1200  TIP3      OH2            46.3020733595      -44.9723622861      -32.9811696465  W2        1200            0.0000000000
      3599      1200  TIP3      H1             45.8422733595      -45.4565322861      -32.2953196465  W2        1200            0.0000000000
      3600      1200  TIP3      H2             46.5569433595      -45.6408222861      -33.6171196465  W2        1200            0.0000000000
      3601      1201  TIP3      OH2            45.5910033595      -47.0796522861      -20.6252096465  W2        1201            0.0000000000
      3602      1201  TIP3      H1             44.9726133595      -46.4049922861      -20.3447396465  W2        1201            0.0000000000
      3603      1201  TIP3      H2             45.9351233595      -46.7582622861      -21.4585896465  W2        1201            0.0000000000
      3604      1202  TIP3      OH2            47.3731133595      -46.7291822861      -34.7188496465  W2        1202            0.0000000000
      3605      1202  TIP3      H1             47.1926133595      -46.8840622861      -35.6460196465  W2        1202            0.0000000000
      3606      1202  TIP3      H2             48.3231633595      -46.6213122861      -34.6740596465  W2        1202            0.0000000000
      3607      1203  TIP3      OH2            50.6108233595      -44.6081222861      -17.3477296465  W2        1203            0.0000000000
      3608      1203  TIP3      H1             51.5639433595      -44.5242122861      -17.3751296465  W2        1203            0.0000000000
      3609      1203  TIP3      H2             50.4502833595      -45.3199422861      -16.7282396465  W2        1203            0.0000000000
      3610      1204  TIP3      OH2            45.9303733595      -49.7245722861      -19.5428996465  W2        1204            0.0000000000
      3611      1204  TIP3      H1             46.0804633595      -50.4534422861      -20.1449296465  W2        1204            0.0000000000
      3612      1204  TIP3      H2             45.9326133595      -48.9474022861      -20.1016796465  W2        1204            0.0000000000
      3613      1205  TIP3      OH2            46.3429433595      -51.3549922861      -22.0501596465  W2        1205            0.0000000000
      3614      1205  TIP3      H1             46.8786933595      -50.9033222861      -22.7022296465  W2        1205            0.0000000000
      3615      1205  TIP3      H2             45.4909033595      -51.4630122861      -22.4727496465  W2        1205            0.0000000000
      3616      1206  TIP3      OH2            47.9247833595      -45.9153722861      -21.8106396465  W2        1206            0.0000000000
      3617      1206  TIP3      H1             48.6752633595      -46.0716222861      -22.3838596465  W2        1206            0.0000000000
      3618      1206  TIP3      H2             47.5856133595      -45.0637122861      -22.0860896465  W2        1206            0.0000000000
      3619      1207  TIP3      OH2            52.3404033595      -48.1001922861      -16.7821096465  W2        1207            0.0000000000
      3620      1207  TIP3      H1             52.5325333595      -49.0312522861      -16.8936596465  W2        1207            0.0000000000
      3621      1207  TIP3      H2             53.1980333595      -47.6752422861      -16.7925696465  W2        1207            0.0000000000
      3622      1208  TIP3      OH2            53.6571233595      -45.3116722861      -18.7048396465  W2        1208            0.0000000000
      3623      1208  TIP3      H1             53.3756233595      -44.6022122861      -19.2824596465  W2        1208            0.0000000000
      3624      1208  TIP3      H2             54.5995533595      -45.3843722861      -18.8557196465  W2        1208            0.0000000000
      3625      1209  TIP3      OH2            44.4090033595      -48.5262222861      -17.6313396465  W2        1209            0.0000000000
      3626      1209  TIP3      H1             43.6419033595      -49.0587422861      -17.8415796465  W2        1209            0.0000000000
      3627      1209  TIP3      H2             45.0879033595      -48.8361822861      -18.2307096465  W2        1209            0.0000000000
      3628      1210  TIP3      OH2            47.1484933595      -53.8984222861      -21.6187996465  W2        1210            0.0000000000
      3629      1210  TIP3      H1             47.0504533595      -52.9521022861      -21.7241796465  W2        1210            0.0000000000
      3630      1210  TIP3      H2             46.4061133595      -54.2710422861      -22.0944496465  W2        1210            0.0000000000
      3631      1211  TIP3      OH2            48.4125433595      -49.5768822861      -18.0549596465  W2        1211            0.0000000000
      3632      1211  TIP3      H1             48.1770833595      -49.7962122861      -17.1534696465  W2        1211            0.0000000000
      3633      1211  TIP3      H2             47.6292333595      -49.7837622861      -18.5647096465  W2        1211            0.0000000000
      3634      1212  TIP3      OH2            51.1282033595      -50.4495322861      -18.9796096465  W2        1212            0.0000000000
      3635      1212  TIP3      H1             50.1807433595      -50.4175622861      -18.8472796465  W2        1212            0.0000000000
      3636      1212  TIP3      H2             51.4408733595      -51.0748222861      -18.3257896465  W2        1212            0.0000000000
      3637      1213  TIP3      OH2            52.7623533595      -51.8154222861      -16.9744196465  W2        1213            0.0000000000
      3638      1213  TIP3      H1             52.6655333595      -52.7676922861      -16.9802296465  W2        1213            0.0000000000
      3639      1213  TIP3      H2             52.4406633595      -51.5467422861      -16.1138696465  W2        1213            0.0000000000
      3640      1214  TIP3      OH2            42.5892833595      -50.6058422861      -17.9268696465  W2        1214            0.0000000000
      3641      1214  TIP3      H1             42.8010233595      -51.3122322861      -18.5371196465  W2        1214            0.0000000000
      3642      1214  TIP3      H2             42.4780333595      -51.0432422861      -17.0827496465  W2        1214            0.0000000000
      3643      1215  TIP3      OH2            47.3703033595      -54.6046822861      -18.9475196465  W2        1215            0.0000000000
      3644      1215  TIP3      H1             48.0821433595      -55.2444622861      -18.9616096465  W2        1215            0.0000000000
      3645      1215  TIP3      H2             47.2693433595      -54.3378522861      -19.8612096465  W2        1215            0.0000000000
      3646      1216  TIP3      OH2            47.7240533595      -52.9218422861      -16.8938896465  W2        1216            0.0000000000
      3647      1216  TIP3      H1             47.5922733595      -53.3974622861      -17.7140396465  W2        1216            0.0000000000
      3648      1216  TIP3      H2             47.1247933595      -52.1774822861      -16.9491796465  W2        1216            0.0000000000
      3649      1217  TIP3      OH2            47.2702833595      -36.0388122861      -33.7174896465  W2        1217            0.0000000000
      3650      1217  TIP3      H1             48.2033533595      -35.8809422861      -33.5736496465  W2        1217            0.0000000000
      3651      1217  TIP3      H2             47.0061633595      -35.3635122861      -34.3423396465  W2        1217            0.0000000000
      3652      1218  TIP3      OH2            40.8387733595      -41.4024322861      -34.2346796465  W2        1218            0.0000000000
      3653      1218  TIP3      H1             41.7526933595      -41.3235422861      -33.9612896465  W2        1218            0.0000000000
      3654      1218  TIP3      H2             40.8460833595      -42.0894722861      -34.9011196465  W2        1218            0.0000000000
      3655      1219  TIP3      OH2            39.4878333595      -36.0095822861      -29.1572896465  W2        1219            0.0000000000
      3656      1219  TIP3      H1             38.8405433595      -36.4714122861      -29.6901696465  W2        1219            0.0000000000
      3657      1219  TIP3      H2             39.8422933595      -36.6812522861      -28.5746696465  W2        1219            0.0000000000
      3658      1220  TIP3      OH2            40.3577533595      -37.9288822861      -27.3526696465  W2        1220            0.0000000000
      3659      1220  TIP3      H1             40.0234333595      -38.8091522861      -27.1806496465  W2        1220            0.0000000000
      3660      1220  TIP3      H2             40.5799933595      -37.5833822861      -26.4881096465  W2        1220            0.0000000000
      3661      1221  TIP3      OH2            40.4377033595      -44.8533422861      -24.9011796465  W2        1221            0.0000000000
      3662      1221  TIP3      H1             40.6219933595      -44.9351722861      -25.8368896465  W2        1221            0.0000000000
      3663      1221  TIP3      H2             41.2869933595      -44.9776422861      -24.4775396465  W2        1221            0.0000000000
      3664      1222  TIP3      OH2            40.0351833595      -49.5828422861      -18.7602996465  W2        1222            0.0000000000
      3665      1222  TIP3      H1             40.9546733595      -49.7050122861      -18.5239896465  W2        1222            0.0000000000
      3666      1222  TIP3      H2             39.5856333595      -50.3328722861      -18.3709496465  W2        1222            0.0000000000
      3667      1223  TIP3      OH2            41.2564333595      -51.2706822861      -25.8690096465  W2        1223            0.0000000000
      3668      1223  TIP3      H1             41.7015933595      -52.0624322861      -25.5670396465  W2        1223            0.0000000000
      3669      1223  TIP3      H2             41.7227333595      -50.5541622861      -25.4384496465  W2        1223            0.0000000000
      3670      1224  TIP3      OH2            39.5604633595      -48.2713822861      -24.7999896465  W2        1224            0.0000000000
      3671      1224  TIP3      H1             40.0524433595      -48.4923322861      -25.5907896465  W2        1224            0.0000000000
      3672      1224  TIP3      H2             39.9225533595      -47.4310422861      -24.5190396465  W2        1224            0.0000000000
      3673      1225  TIP3      OH2            39.8741133595      -52.0134722861      -30.7457496465  W2        1225            0.0000000000
      3674      1225  TIP3      H1             38.9489533595      -51.8048122861      -30.8751996465  W2        1225            0.0000000000
      3675      1225  TIP3      H2             40.3281033595      -51.5293922861      -31.4355196465  W2        1225            0.0000000000
      3676      1226  TIP3      OH2            54.6448333595      -37.0293022861      -28.8000096465  W2        1226            0.0000000000
      3677      1226  TIP3      H1             55.2971233595      -37.3770922861      -29.4080996465  W2        1226            0.0000000000
      3678      1226  TIP3      H2             55.1552133595      -36.5409822861      -28.1540396465  W2        1226            0.0000000000
      3679      1227  TIP3      OH2            39.8376533595      -53.2755722861      -22.4014996465  W2        1227            0.0000000000
      3680      1227  TIP3      H1             39.1727033595      -53.5215422861      -21.7584096465  W2        1227            0.0000000000
      3681      1227  TIP3      H2             39.3947833595      -52.6535322861      -22.9786996465  W2        1227            0.0000000000
      3682      1228  TIP3      OH2            42.0295833595      -40.1001622861      -18.2569196465  W2        1228            0.0000000000
      3683      1228  TIP3      H1             41.2088333595      -39.9255122861      -18.7174496465  W2        1228            0.0000000000
      3684      1228  TIP3      H2             41.7773633595      -40.1736922861      -17.3364796465  W2        1228            0.0000000000
      3685      1229  TIP3      OH2            44.9838733595      -39.1260422861      -21.9985196465  W2        1229            0.0000000000
      3686      1229  TIP3      H1             44.5589833595      -38.3161922861      -22.2810596465  W2        1229            0.0000000000
      3687      1229  TIP3      H2             45.8881533595      -39.0406322861      -22.3005396465  W2        1229            0.0000000000
      3688      1230  TIP3      OH2            49.2950133595      -37.7270422861      -19.0391496465  W2        1230            0.0000000000
      3689      1230  TIP3      H1             49.4797633595      -38.0604322861      -18.1611196465  W2        1230            0.0000000000
      3690      1230  TIP3      H2             50.1414633595      -37.4171822861      -19.3612296465  W2        1230            0.0000000000
      3691      1231  TIP3      OH2            51.6400533595      -36.4411522861      -19.7950096465  W2        1231            0.0000000000
      3692      1231  TIP3      H1             52.3169433595      -37.0739222861      -20.0350896465  W2        1231            0.0000000000
      3693      1231  TIP3      H2             51.9619333595      -36.0401022861      -18.9876796465  W2        1231            0.0000000000
      3694      1232  TIP3      OH2            42.3855433595      -35.8696522861      -21.9509896465  W2        1232            0.0000000000
      3695      1232  TIP3      H1             41.6651833595      -35.4295522861      -22.4022196465  W2        1232            0.0000000000
      3696      1232  TIP3      H2             42.0199433595      -36.1201822861      -21.1025896465  W2        1232            0.0000000000
      3697      1233  TIP3      OH2            44.8528033595      -36.2692622861      -22.9212696465  W2        1233            0.0000000000
      3698      1233  TIP3      H1             43.9880233595      -36.1974122861      -22.5172596465  W2        1233            0.0000000000
      3699      1233  TIP3      H2             44.7977033595      -35.7225322861      -23.7050196465  W2        1233            0.0000000000
      3700      1234  TIP3      OH2            49.5633633595      -36.3813722861      -23.7456696465  W2        1234            0.0000000000
      3701      1234  TIP3      H1             49.1067633595      -35.8524022861      -24.3998296465  W2        1234            0.0000000000
      3702      1234  TIP3      H2             49.7261633595      -35.7782322861      -23.0204396465  W2        1234            0.0000000000
      3703      1235  TIP3      OH2            51.8909933595      -37.5034122861      -22.8006396465  W2        1235            0.0000000000
      3704      1235  TIP3      H1             50.9863633595      -37.3383922861      -23.0664296465  W2        1235            0.0000000000
      3705      1235  TIP3      H2             52.3198533595      -36.6501922861      -22.8662996465  W2        1235            0.0000000000
      3706      1236  TIP3      OH2            54.4951833595      -35.9335022861      -22.5058596465  W2        1236            0.0000000000
      3707      1236  TIP3      H1             54.3133833595      -35.0176122861      -22.7163696465  W2        1236            0.0000000000
      3708      1236  TIP3      H2             54.6719633595      -36.3437922861      -23.3523996465  W2        1236            0.0000000000
      3709      1237  TIP3      OH2            41.8003533595      -37.2464022861      -25.0408096465  W2        1237            0.0000000000
      3710      1237  TIP3      H1             41.7819533595      -37.6718922861      -24.1835796465  W2        1237            0.0000000000
      3711      1237  TIP3      H2             42.6051433595      -37.5649022861      -25.4495896465  W2        1237            0.0000000000
      3712      1238  TIP3      OH2            43.9416633595      -38.5365322861      -26.3858196465  W2        1238            0.0000000000
      3713      1238  TIP3      H1             43.7227333595      -39.4527922861      -26.2162196465  W2        1238            0.0000000000
      3714      1238  TIP3      H2             44.7658833595      -38.3964922861      -25.9196796465  W2        1238            0.0000000000
      3715      1239  TIP3      OH2            46.4789133595      -38.0666022861      -25.5370196465  W2        1239            0.0000000000
      3716      1239  TIP3      H1             46.6914833595      -38.9547022861      -25.8239296465  W2        1239            0.0000000000
      3717      1239  TIP3      H2             46.5434233595      -38.1008322861      -24.5826196465  W2        1239            0.0000000000
      3718      1240  TIP3      OH2            49.9872833595      -52.4025422861      -26.3926896465  W2        1240            0.0000000000
      3719      1240  TIP3      H1             49.3129633595      -53.0319822861      -26.1371096465  W2        1240            0.0000000000
      3720      1240  TIP3      H2             50.5512033595      -52.8866522861      -26.9958996465  W2        1240            0.0000000000
      3721      1241  TIP3      OH2            42.3140333595      -53.7685122861      -28.5706996465  W2        1241            0.0000000000
      3722      1241  TIP3      H1             41.5370133595      -54.0030222861      -29.0781096465  W2        1241            0.0000000000
      3723      1241  TIP3      H2             42.8443933595      -54.5653022861      -28.5618996465  W2        1241            0.0000000000
      3724      1242  TIP3      OH2            41.1503733595      -53.9707022861      -32.7670896465  W2        1242            0.0000000000
      3725      1242  TIP3      H1             41.5894433595      -53.3596522861      -33.3587396465  W2        1242            0.0000000000
      3726      1242  TIP3      H2             40.5166133595      -53.4322922861      -32.2930896465  W2        1242            0.0000000000
      3727      1243  TIP3      OH2            46.8932933595      -53.8418022861      -28.7573896465  W2        1243            0.0000000000
      3728      1243  TIP3      H1             47.7676333595      -53.4533722861      -28.7869596465  W2        1243            0.0000000000
      3729      1243  TIP3      H2             46.7573733595      -54.0570222861      -27.8346696465  W2        1243            0.0000000000
      3730      1244  TIP3      OH2            52.4501333595      -53.8118222861      -27.1082196465  W2        1244            0.0000000000
      3731      1244  TIP3      H1             52.5262933595      -53.7166622861      -28.0576196465  W2        1244            0.0000000000
      3732      1244  TIP3      H2             52.1750533595      -54.7195322861      -26.9793096465  W2        1244            0.0000000000
      3733      1245  TIP3      OH2            53.8033933595      -53.7860422861      -31.4157196465  W2        1245            0.0000000000
      3734      1245  TIP3      H1             53.1005033595      -53.1711222861      -31.6255796465  W2        1245            0.0000000000
      3735      1245  TIP3      H2             53.3585333595      -54.6233722861      -31.2846296465  W2        1245            0.0000000000
      3736      1246  TIP3      OH2            41.0513233595      -38.0224822861      -31.8695796465  W2        1246            0.0000000000
      3737      1246  TIP3      H1             40.3663133595      -38.0605922861      -32.5370696465  W2        1246            0.0000000000
      3738      1246  TIP3      H2             41.0550433595      -37.1097222861      -31.5813696465  W2        1246            0.0000000000
      3739      1247  TIP3      OH2            43.0112833595      -52.0545522861      -34.3246796465  W2        1247            0.0000000000
      3740      1247  TIP3      H1             43.5026233595      -52.6843122861      -34.8521296465  W2        1247            0.0000000000
      3741      1247  TIP3      H2             43.6349133595      -51.7586122861      -33.6615596465  W2        1247            0.0000000000
      3742      1248  TIP3      OH2            48.0372933595      -51.7614022861      -31.8676296465  W2        1248            0.0000000000
      3743      1248  TIP3      H1             48.2154233595      -52.4080822861      -31.1847696465  W2        1248            0.0000000000
      3744      1248  TIP3      H2             47.9839133595      -50.9276322861      -31.4005196465  W2        1248            0.0000000000
      3745      1249  TIP3      OH2            49.9156733595      -36.8129922861      -33.4719596465  W2        1249            0.0000000000
      3746      1249  TIP3      H1             50.7816933595      -36.4462522861      -33.6501396465  W2        1249            0.0000000000
      3747      1249  TIP3      H2             49.6689533595      -37.2521922861      -34.2858796465  W2        1249            0.0000000000
      3748      1250  TIP3      OH2            42.2718333595      -53.2543222861      -19.0530796465  W2        1250            0.0000000000
      3749      1250  TIP3      H1             41.9056533595      -54.0200622861      -18.6106096465  W2        1250            0.0000000000
      3750      1250  TIP3      H2             43.1846833595      -53.2253022861      -18.7665696465  W2        1250            0.0000000000
      3751      1251  TIP3      OH2            44.2449133595      -53.9038822861      -17.5173696465  W2        1251            0.0000000000
      3752      1251  TIP3      H1             45.1432733595      -54.1778622861      -17.7020296465  W2        1251            0.0000000000
      3753      1251  TIP3      H2             43.8582233595      -54.6462822861      -17.0531096465  W2        1251            0.0000000000
      3754      1252  TIP3      OH2            42.8694433595      -37.1024022861      -34.8443696465  W2        1252            0.0000000000
      3755      1252  TIP3      H1             42.6019033595      -36.8161122861      -33.9710596465  W2        1252            0.0000000000
      3756      1252  TIP3      H2             43.6407033595      -37.6484822861      -34.6921196465  W2        1252            0.0000000000
      3757      1253  TIP3      OH2            52.6661433595      -54.5713522861      -17.3350896465  W2        1253            0.0000000000
      3758      1253  TIP3      H1             52.7428633595      -54.9972822861      -16.4813196465  W2        1253            0.0000000000
      3759      1253  TIP3      H2             53.5598033595      -54.5578822861      -17.6777396465  W2        1253            0.0000000000
      3760      1254  TIP3      OH2           -42.8877066405      -25.7562822861      -28.6119496465  W2        1254            0.0000000000
      3761      1254  TIP3      H1            -42.7985966405      -24.8124622861      -28.7442396465  W2        1254            0.0000000000
      3762      1254  TIP3      H2            -43.5259466405      -26.0316422861      -29.2700096465  W2        1254            0.0000000000
      3763      1255  TIP3      OH2           -43.9545766405      -26.5012122861      -25.1931296465  W2        1255            0.0000000000
      3764      1255  TIP3      H1            -43.9928266405      -27.1475822861      -24.4881696465  W2        1255            0.0000000000
      3765      1255  TIP3      H2            -44.2769266405      -26.9677722861      -25.9642596465  W2        1255            0.0000000000
      3766      1256  TIP3      OH2           -51.5860766405      -26.8870022861      -23.6001396465  W2        1256            0.0000000000
      3767      1256  TIP3      H1            -51.5448666405      -27.5126722861      -22.8768996465  W2        1256            0.0000000000
      3768      1256  TIP3      H2            -50.8833066405      -26.2631422861      -23.4180996465  W2        1256            0.0000000000
      3769      1257  TIP3      OH2           -40.2485566405      -23.5621722861      -26.8916196465  W2        1257            0.0000000000
      3770      1257  TIP3      H1            -40.6892866405      -24.2825722861      -26.4410596465  W2        1257            0.0000000000
      3771      1257  TIP3      H2            -40.2615866405      -22.8414522861      -26.2618496465  W2        1257            0.0000000000
      3772      1258  TIP3      OH2           -50.6627666405      -22.4371122861      -25.0652296465  W2        1258            0.0000000000
      3773      1258  TIP3      H1            -51.0322466405      -23.2390622861      -25.4347996465  W2        1258            0.0000000000
      3774      1258  TIP3      H2            -49.7216566405      -22.6056222861      -25.0188896465  W2        1258            0.0000000000
      3775      1259  TIP3      OH2           -54.0527166405      -28.7768522861      -29.6723496465  W2        1259            0.0000000000
      3776      1259  TIP3      H1            -54.5003766405      -27.9309822861      -29.6906996465  W2        1259            0.0000000000
      3777      1259  TIP3      H2            -54.6135966405      -29.3564322861      -30.1878396465  W2        1259            0.0000000000
      3778      1260  TIP3      OH2           -53.3421066405      -26.6148922861      -27.5465496465  W2        1260            0.0000000000
      3779      1260  TIP3      H1            -53.1287566405      -27.3847322861      -27.0192496465  W2        1260            0.0000000000
      3780      1260  TIP3      H2            -52.6043466405      -26.5252222861      -28.1497896465  W2        1260            0.0000000000
      3781      1261  TIP3      OH2           -43.1370066405      -18.4580022861      -26.6795796465  W2        1261            0.0000000000
      3782      1261  TIP3      H1            -42.5173666405      -19.1345322861      -26.9526596465  W2        1261            0.0000000000
      3783      1261  TIP3      H2            -43.3452666405      -18.6759222861      -25.7710896465  W2        1261            0.0000000000
      3784      1262  TIP3      OH2           -45.5651366405      -24.0690722861      -24.7870296465  W2        1262            0.0000000000
      3785      1262  TIP3      H1            -45.2613466405      -24.7549322861      -25.3816196465  W2        1262            0.0000000000
      3786      1262  TIP3      H2            -44.8437366405      -23.9502022861      -24.1692296465  W2        1262            0.0000000000
      3787      1263  TIP3      OH2           -36.9021566405      -32.4675422861      -23.9264096465  W2        1263            0.0000000000
      3788      1263  TIP3      H1            -36.8529366405      -31.8574222861      -23.1904996465  W2        1263            0.0000000000
      3789      1263  TIP3      H2            -36.4766466405      -32.0064522861      -24.6492996465  W2        1263            0.0000000000
      3790      1264  TIP3      OH2           -42.4244366405      -29.6748322861      -24.4595496465  W2        1264            0.0000000000
      3791      1264  TIP3      H1            -42.2818466405      -30.6211322861      -24.4393896465  W2        1264            0.0000000000
      3792      1264  TIP3      H2            -42.5305366405      -29.4678522861      -25.3880596465  W2        1264            0.0000000000
      3793      1265  TIP3      OH2           -49.2696066405      -31.5731922861      -27.1870696465  W2        1265            0.0000000000
      3794      1265  TIP3      H1            -49.2264966405      -30.7133422861      -27.6054396465  W2        1265            0.0000000000
      3795      1265  TIP3      H2            -49.7271966405      -32.1257222861      -27.8207496465  W2        1265            0.0000000000
      3796      1266  TIP3      OH2           -41.5473366405      -31.4426322861      -28.7862396465  W2        1266            0.0000000000
      3797      1266  TIP3      H1            -40.9009066405      -31.7713122861      -28.1614796465  W2        1266            0.0000000000
      3798      1266  TIP3      H2            -41.0373966405      -30.9247322861      -29.4090996465  W2        1266            0.0000000000
      3799      1267  TIP3      OH2           -52.6494566405      -29.1766122861      -26.4249296465  W2        1267            0.0000000000
      3800      1267  TIP3      H1            -51.9957966405      -29.7264422861      -25.9929196465  W2        1267            0.0000000000
      3801      1267  TIP3      H2            -52.6255266405      -29.4507122861      -27.3417296465  W2        1267            0.0000000000
      3802      1268  TIP3      OH2           -47.4930066405      -27.6264822861      -27.2097796465  W2        1268            0.0000000000
      3803      1268  TIP3      H1            -46.8769066405      -28.1529422861      -26.7003796465  W2        1268            0.0000000000
      3804      1268  TIP3      H2            -48.0791266405      -28.2666122861      -27.6134196465  W2        1268            0.0000000000
      3805      1269  TIP3      OH2           -36.5106966405      -30.9896222861      -21.6904296465  W2        1269            0.0000000000
      3806      1269  TIP3      H1            -37.1992366405      -30.3315522861      -21.7857696465  W2        1269            0.0000000000
      3807      1269  TIP3      H2            -36.4952366405      -31.1868322861      -20.7538896465  W2        1269            0.0000000000
      3808      1270  TIP3      OH2           -50.4594166405      -32.6553522861      -23.1129896465  W2        1270            0.0000000000
      3809      1270  TIP3      H1            -50.6782466405      -32.1252922861      -23.8793896465  W2        1270            0.0000000000
      3810      1270  TIP3      H2            -51.1273266405      -32.4288022861      -22.4658496465  W2        1270            0.0000000000
      3811      1271  TIP3      OH2           -43.0904366405      -23.1552422861      -29.5690796465  W2        1271            0.0000000000
      3812      1271  TIP3      H1            -43.3859266405      -23.4780122861      -30.4203896465  W2        1271            0.0000000000
      3813      1271  TIP3      H2            -43.4146566405      -22.2555722861      -29.5278196465  W2        1271            0.0000000000
      3814      1272  TIP3      OH2           -47.8902766405      -24.9797822861      -22.8256196465  W2        1272            0.0000000000
      3815      1272  TIP3      H1            -48.6303666405      -24.3816322861      -22.7220996465  W2        1272            0.0000000000
      3816      1272  TIP3      H2            -47.1763266405      -24.4258222861      -23.1412596465  W2        1272            0.0000000000
      3817      1273  TIP3      OH2           -39.7834966405      -32.1517022861      -26.8056496465  W2        1273            0.0000000000
      3818      1273  TIP3      H1            -39.9986966405      -32.9173622861      -26.2730496465  W2        1273            0.0000000000
      3819      1273  TIP3      H2            -39.1277566405      -31.6792422861      -26.2927996465  W2        1273            0.0000000000
      3820      1274  TIP3      OH2           -50.8656866405      -30.7631722861      -25.1607696465  W2        1274            0.0000000000
      3821      1274  TIP3      H1            -50.2520566405      -30.1304122861      -24.7875296465  W2        1274            0.0000000000
      3822      1274  TIP3      H2            -50.3536166405      -31.2356722861      -25.8170796465  W2        1274            0.0000000000
      3823      1275  TIP3      OH2           -49.4828466405      -23.0154822861      -22.0384696465  W2        1275            0.0000000000
      3824      1275  TIP3      H1            -49.4880866405      -22.1361322861      -22.4165396465  W2        1275            0.0000000000
      3825      1275  TIP3      H2            -50.3364366405      -23.0990722861      -21.6134796465  W2        1275            0.0000000000
      3826      1276  TIP3      OH2           -53.3617566405      -23.3446922861      -31.2565396465  W2        1276            0.0000000000
      3827      1276  TIP3      H1            -53.6336666405      -23.1155922861      -32.1452496465  W2        1276            0.0000000000
      3828      1276  TIP3      H2            -53.3161866405      -22.5068122861      -30.7960096465  W2        1276            0.0000000000
      3829      1277  TIP3      OH2           -39.7367866405      -21.7231022861      -24.5436896465  W2        1277            0.0000000000
      3830      1277  TIP3      H1            -40.6784166405      -21.6647122861      -24.3819996465  W2        1277            0.0000000000
      3831      1277  TIP3      H2            -39.4601766405      -20.8170522861      -24.6807196465  W2        1277            0.0000000000
      3832      1278  TIP3      OH2           -39.4360866405      -33.4365722861      -23.1262996465  W2        1278            0.0000000000
      3833      1278  TIP3      H1            -40.1721666405      -32.8258622861      -23.1641696465  W2        1278            0.0000000000
      3834      1278  TIP3      H2            -38.7526866405      -33.0216722861      -23.6526596465  W2        1278            0.0000000000
      3835      1279  TIP3      OH2           -46.4329466405      -35.3498422861      -25.6604996465  W2        1279            0.0000000000
      3836      1279  TIP3      H1            -46.5505266405      -36.2982422861      -25.7146696465  W2        1279            0.0000000000
      3837      1279  TIP3      H2            -47.2879366405      -35.0172322861      -25.3873896465  W2        1279            0.0000000000
      3838      1280  TIP3      OH2           -41.4846666405      -19.9417522861      -27.9185296465  W2        1280            0.0000000000
      3839      1280  TIP3      H1            -41.0594366405      -20.6489622861      -28.4035696465  W2        1280            0.0000000000
      3840      1280  TIP3      H2            -41.1676666405      -19.1404822861      -28.3353096465  W2        1280            0.0000000000
      3841      1281  TIP3      OH2           -40.3250166405      -22.0409022861      -29.4098696465  W2        1281            0.0000000000
      3842      1281  TIP3      H1            -40.5825366405      -22.7308922861      -30.0212796465  W2        1281            0.0000000000
      3843      1281  TIP3      H2            -40.2539366405      -22.4837822861      -28.5642796465  W2        1281            0.0000000000
      3844      1282  TIP3      OH2           -38.6389966405      -23.4742322861      -20.9325196465  W2        1282            0.0000000000
      3845      1282  TIP3      H1            -38.4993666405      -24.0659822861      -21.6718196465  W2        1282            0.0000000000
      3846      1282  TIP3      H2            -38.4717166405      -22.6016422861      -21.2886396465  W2        1282            0.0000000000
      3847      1283  TIP3      OH2           -44.1664566405      -26.5122822861      -31.1599196465  W2        1283            0.0000000000
      3848      1283  TIP3      H1            -44.8779066405      -25.9773122861      -31.5118696465  W2        1283            0.0000000000
      3849      1283  TIP3      H2            -43.4754966405      -26.4570722861      -31.8200296465  W2        1283            0.0000000000
      3850      1284  TIP3      OH2           -44.1125366405      -28.0548522861      -34.1214196465  W2        1284            0.0000000000
      3851      1284  TIP3      H1            -43.4115466405      -28.0321622861      -33.4700196465  W2        1284            0.0000000000
      3852      1284  TIP3      H2            -43.8102466405      -28.6828822861      -34.7774896465  W2        1284            0.0000000000
      3853      1285  TIP3      OH2           -36.7970666405      -27.1344322861      -22.8664796465  W2        1285            0.0000000000
      3854      1285  TIP3      H1            -37.4496566405      -26.4398722861      -22.7773896465  W2        1285            0.0000000000
      3855      1285  TIP3      H2            -36.3320366405      -26.9243422861      -23.6763196465  W2        1285            0.0000000000
      3856      1286  TIP3      OH2           -40.7606866405      -26.3029522861      -30.2083296465  W2        1286            0.0000000000
      3857      1286  TIP3      H1            -41.4925866405      -26.0745822861      -29.6352696465  W2        1286            0.0000000000
      3858      1286  TIP3      H2            -40.3134666405      -27.0166822861      -29.7535796465  W2        1286            0.0000000000
      3859      1287  TIP3      OH2           -40.8633366405      -28.1286922861      -21.1406296465  W2        1287            0.0000000000
      3860      1287  TIP3      H1            -40.7834266405      -27.3652522861      -20.5687796465  W2        1287            0.0000000000
      3861      1287  TIP3      H2            -41.4645666405      -27.8494522861      -21.8311196465  W2        1287            0.0000000000
      3862      1288  TIP3      OH2           -49.1153166405      -25.6723322861      -28.3258296465  W2        1288            0.0000000000
      3863      1288  TIP3      H1            -49.4457966405      -26.0429922861      -29.1441296465  W2        1288            0.0000000000
      3864      1288  TIP3      H2            -48.5269066405      -26.3429322861      -27.9789996465  W2        1288            0.0000000000
      3865      1289  TIP3      OH2           -47.7485666405      -22.2442722861      -25.6446096465  W2        1289            0.0000000000
      3866      1289  TIP3      H1            -47.8434366405      -22.8229622861      -26.4011496465  W2        1289            0.0000000000
      3867      1289  TIP3      H2            -47.0192066405      -22.6157022861      -25.1483296465  W2        1289            0.0000000000
      3868      1290  TIP3      OH2           -48.7487666405      -26.9037722861      -24.6923296465  W2        1290            0.0000000000
      3869      1290  TIP3      H1            -48.1835166405      -26.7823522861      -25.4552096465  W2        1290            0.0000000000
      3870      1290  TIP3      H2            -48.4298766405      -26.2662722861      -24.0534796465  W2        1290            0.0000000000
      3871      1291  TIP3      OH2           -42.4395466405      -21.4005822861      -23.9582796465  W2        1291            0.0000000000
      3872      1291  TIP3      H1            -42.6798866405      -20.7382722861      -23.3103596465  W2        1291            0.0000000000
      3873      1291  TIP3      H2            -42.6377266405      -22.2350622861      -23.5333196465  W2        1291            0.0000000000
      3874      1292  TIP3      OH2           -47.8686966405      -22.5045022861      -19.9751396465  W2        1292            0.0000000000
      3875      1292  TIP3      H1            -48.1799466405      -21.7221822861      -19.5198196465  W2        1292            0.0000000000
      3876      1292  TIP3      H2            -48.5186766405      -22.6575922861      -20.6609396465  W2        1292            0.0000000000
      3877      1293  TIP3      OH2           -41.8897366405      -27.1406622861      -32.5232096465  W2        1293            0.0000000000
      3878      1293  TIP3      H1            -41.3101866405      -26.9906322861      -31.7763196465  W2        1293            0.0000000000
      3879      1293  TIP3      H2            -41.4757366405      -26.6699222861      -33.2465696465  W2        1293            0.0000000000
      3880      1294  TIP3      OH2           -50.9487066405      -26.3063922861      -20.7465696465  W2        1294            0.0000000000
      3881      1294  TIP3      H1            -50.8783866405      -25.6557122861      -20.0480696465  W2        1294            0.0000000000
      3882      1294  TIP3      H2            -51.8394866405      -26.2036422861      -21.0814796465  W2        1294            0.0000000000
      3883      1295  TIP3      OH2           -44.1632466405      -20.4038122861      -29.0878996465  W2        1295            0.0000000000
      3884      1295  TIP3      H1            -43.6894866405      -20.1081822861      -28.3104796465  W2        1295            0.0000000000
      3885      1295  TIP3      H2            -44.7263166405      -19.6656522861      -29.3209396465  W2        1295            0.0000000000
      3886      1296  TIP3      OH2           -49.6291066405      -20.4330022861      -19.2117596465  W2        1296            0.0000000000
      3887      1296  TIP3      H1            -49.6215766405      -20.5690322861      -20.1592096465  W2        1296            0.0000000000
      3888      1296  TIP3      H2            -50.5450666405      -20.5501922861      -18.9597596465  W2        1296            0.0000000000
      3889      1297  TIP3      OH2           -38.1908966405      -35.3906222861      -32.7102396465  W2        1297            0.0000000000
      3890      1297  TIP3      H1            -39.0908266405      -35.2517222861      -32.4151796465  W2        1297            0.0000000000
      3891      1297  TIP3      H2            -37.9390566405      -34.5591622861      -33.1120696465  W2        1297            0.0000000000
      3892      1298  TIP3      OH2           -50.1250466405      -26.6029022861      -30.7365496465  W2        1298            0.0000000000
      3893      1298  TIP3      H1            -50.4169166405      -25.8347322861      -31.2274196465  W2        1298            0.0000000000
      3894      1298  TIP3      H2            -50.7995266405      -27.2622822861      -30.8994096465  W2        1298            0.0000000000
      3895      1299  TIP3      OH2           -37.0017566405      -21.0243822861      -34.3338496465  W2        1299            0.0000000000
      3896      1299  TIP3      H1            -36.9284066405      -20.0853622861      -34.1633196465  W2        1299            0.0000000000
      3897      1299  TIP3      H2            -36.0962466405      -21.3295222861      -34.3901196465  W2        1299            0.0000000000
      3898      1300  TIP3      OH2           -54.0320366405      -24.2399822861      -21.9215696465  W2        1300            0.0000000000
      3899      1300  TIP3      H1            -54.5331966405      -24.2680422861      -22.7365996465  W2        1300            0.0000000000
      3900      1300  TIP3      H2            -54.0266666405      -25.1456622861      -21.6118396465  W2        1300            0.0000000000
      3901      1301  TIP3      OH2           -54.2817666405      -21.4596022861      -25.0375496465  W2        1301            0.0000000000
      3902      1301  TIP3      H1            -53.3357066405      -21.6039022861      -25.0565996465  W2        1301            0.0000000000
      3903      1301  TIP3      H2            -54.3941366405      -20.6753222861      -24.5004296465  W2        1301            0.0000000000
      3904      1302  TIP3      OH2           -36.0839166405      -20.7936322861      -19.3551796465  W2        1302            0.0000000000
      3905      1302  TIP3      H1            -36.1332366405      -21.7488222861      -19.3924196465  W2        1302            0.0000000000
      3906      1302  TIP3      H2            -36.9106866405      -20.5261022861      -18.9537996465  W2        1302            0.0000000000
      3907      1303  TIP3      OH2           -45.1055166405      -21.2197122861      -20.4790396465  W2        1303            0.0000000000
      3908      1303  TIP3      H1            -45.0180566405      -20.3932522861      -20.0041296465  W2        1303            0.0000000000
      3909      1303  TIP3      H2            -45.9690066405      -21.5493322861      -20.2301096465  W2        1303            0.0000000000
      3910      1304  TIP3      OH2           -44.6909366405      -17.4473422861      -30.6729796465  W2        1304            0.0000000000
      3911      1304  TIP3      H1            -44.7663366405      -17.5686222861      -31.6194596465  W2        1304            0.0000000000
      3912      1304  TIP3      H2            -44.6580666405      -16.4980722861      -30.5545196465  W2        1304            0.0000000000
      3913      1305  TIP3      OH2           -51.0375566405      -18.6586422861      -28.8920796465  W2        1305            0.0000000000
      3914      1305  TIP3      H1            -50.8855166405      -19.0066022861      -28.0134296465  W2        1305            0.0000000000
      3915      1305  TIP3      H2            -51.8885166405      -19.0149122861      -29.1473596465  W2        1305            0.0000000000
      3916      1306  TIP3      OH2           -41.5893366405      -18.2933222861      -33.6707396465  W2        1306            0.0000000000
      3917      1306  TIP3      H1            -41.2144966405      -19.0377122861      -34.1414796465  W2        1306            0.0000000000
      3918      1306  TIP3      H2            -41.5849666405      -18.5632622861      -32.7524096465  W2        1306            0.0000000000
      3919      1307  TIP3      OH2           -41.9205266405      -18.3676122861      -30.9215196465  W2        1307            0.0000000000
      3920      1307  TIP3      H1            -42.8555466405      -18.2674222861      -30.7428196465  W2        1307            0.0000000000
      3921      1307  TIP3      H2            -41.6403366405      -19.0770122861      -30.3431996465  W2        1307            0.0000000000
      3922      1308  TIP3      OH2           -38.9319366405      -29.3003822861      -18.8749596465  W2        1308            0.0000000000
      3923      1308  TIP3      H1            -39.3392566405      -28.8198222861      -19.5956296465  W2        1308            0.0000000000
      3924      1308  TIP3      H2            -38.8913666405      -30.2057822861      -19.1828796465  W2        1308            0.0000000000
      3925      1309  TIP3      OH2           -51.7829866405      -22.9164422861      -20.8782896465  W2        1309            0.0000000000
      3926      1309  TIP3      H1            -51.5668566405      -23.2778822861      -20.0187096465  W2        1309            0.0000000000
      3927      1309  TIP3      H2            -52.6385166405      -23.2910622861      -21.0879396465  W2        1309            0.0000000000
      3928      1310  TIP3      OH2           -49.1641866405      -34.4463922861      -24.8828696465  W2        1310            0.0000000000
      3929      1310  TIP3      H1            -50.0258166405      -34.5335722861      -25.2905796465  W2        1310            0.0000000000
      3930      1310  TIP3      H2            -49.1866166405      -33.5903822861      -24.4551096465  W2        1310            0.0000000000
      3931      1311  TIP3      OH2           -44.5014066405      -34.7243522861      -21.5081696465  W2        1311            0.0000000000
      3932      1311  TIP3      H1            -44.0810966405      -35.1396422861      -20.7551096465  W2        1311            0.0000000000
      3933      1311  TIP3      H2            -45.4344466405      -34.9030222861      -21.3909696465  W2        1311            0.0000000000
      3934      1312  TIP3      OH2           -41.1749166405      -30.9688322861      -20.6547196465  W2        1312            0.0000000000
      3935      1312  TIP3      H1            -41.6889666405      -31.0946122861      -19.8571196465  W2        1312            0.0000000000
      3936      1312  TIP3      H2            -41.3304466405      -30.0565222861      -20.8990996465  W2        1312            0.0000000000
      3937      1313  TIP3      OH2           -40.4124266405      -26.1078322861      -34.8934196465  W2        1313            0.0000000000
      3938      1313  TIP3      H1            -40.3703466405      -26.3304422861      -35.8234196465  W2        1313            0.0000000000
      3939      1313  TIP3      H2            -39.5632166405      -25.7091222861      -34.7034296465  W2        1313            0.0000000000
      3940      1314  TIP3      OH2           -44.8396766405      -32.2320122861      -34.2230896465  W2        1314            0.0000000000
      3941      1314  TIP3      H1            -45.0931966405      -32.2128522861      -33.3002796465  W2        1314            0.0000000000
      3942      1314  TIP3      H2            -45.0964666405      -33.1034722861      -34.5244696465  W2        1314            0.0000000000
      3943      1315  TIP3      OH2           -49.0731766405      -29.4809422861      -23.7878496465  W2        1315            0.0000000000
      3944      1315  TIP3      H1            -49.7149666405      -29.5212122861      -23.0788396465  W2        1315            0.0000000000
      3945      1315  TIP3      H2            -49.0359766405      -28.5544722861      -24.0255496465  W2        1315            0.0000000000
      3946      1316  TIP3      OH2           -49.0762666405      -29.2599322861      -28.8758496465  W2        1316            0.0000000000
      3947      1316  TIP3      H1            -49.9689766405      -29.6003222861      -28.9344696465  W2        1316            0.0000000000
      3948      1316  TIP3      H2            -48.6256066405      -29.6368422861      -29.6315296465  W2        1316            0.0000000000
      3949      1317  TIP3      OH2           -43.5407166405      -28.8439022861      -30.0587696465  W2        1317            0.0000000000
      3950      1317  TIP3      H1            -43.9496866405      -28.0290422861      -30.3502896465  W2        1317            0.0000000000
      3951      1317  TIP3      H2            -42.8200966405      -28.9838922861      -30.6730596465  W2        1317            0.0000000000
      3952      1318  TIP3      OH2           -44.4385566405      -28.6682622861      -18.5706996465  W2        1318            0.0000000000
      3953      1318  TIP3      H1            -45.0011766405      -29.3731022861      -18.2499196465  W2        1318            0.0000000000
      3954      1318  TIP3      H2            -43.6122166405      -28.7890722861      -18.1029396465  W2        1318            0.0000000000
      3955      1319  TIP3      OH2           -42.5359466405      -29.3978622861      -27.2447996465  W2        1319            0.0000000000
      3956      1319  TIP3      H1            -42.7314966405      -28.7921822861      -27.9597396465  W2        1319            0.0000000000
      3957      1319  TIP3      H2            -42.3546866405      -30.2313422861      -27.6791696465  W2        1319            0.0000000000
      3958      1320  TIP3      OH2           -51.3231266405      -29.1605922861      -21.9206496465  W2        1320            0.0000000000
      3959      1320  TIP3      H1            -51.3611866405      -28.7604322861      -21.0519396465  W2        1320            0.0000000000
      3960      1320  TIP3      H2            -51.8140166405      -29.9773522861      -21.8303596465  W2        1320            0.0000000000
      3961      1321  TIP3      OH2           -47.9573866405      -31.7863622861      -35.1220496465  W2        1321            0.0000000000
      3962      1321  TIP3      H1            -48.3883166405      -32.2313522861      -34.3923096465  W2        1321            0.0000000000
      3963      1321  TIP3      H2            -48.6755166405      -31.4147322861      -35.6342996465  W2        1321            0.0000000000
      3964      1322  TIP3      OH2           -54.7150466405      -32.0444122861      -28.0701796465  W2        1322            0.0000000000
      3965      1322  TIP3      H1            -54.0842766405      -32.0732022861      -27.3507896465  W2        1322            0.0000000000
      3966      1322  TIP3      H2            -54.2656166405      -32.4695422861      -28.8005896465  W2        1322            0.0000000000
      3967      1323  TIP3      OH2           -53.4408366405      -31.2982122861      -32.6461396465  W2        1323            0.0000000000
      3968      1323  TIP3      H1            -52.9666666405      -30.7072222861      -33.2310496465  W2        1323            0.0000000000
      3969      1323  TIP3      H2            -54.1581966405      -30.7679222861      -32.2991296465  W2        1323            0.0000000000
      3970      1324  TIP3      OH2           -43.2720266405      -27.7597322861      -22.5735596465  W2        1324            0.0000000000
      3971      1324  TIP3      H1            -42.9485466405      -28.3907622861      -23.2165096465  W2        1324            0.0000000000
      3972      1324  TIP3      H2            -43.7120966405      -28.2945122861      -21.9128196465  W2        1324            0.0000000000
      3973      1325  TIP3      OH2           -46.4947366405      -31.8321822861      -27.7894396465  W2        1325            0.0000000000
      3974      1325  TIP3      H1            -47.4056266405      -31.7755022861      -27.5008396465  W2        1325            0.0000000000
      3975      1325  TIP3      H2            -45.9894466405      -31.8926322861      -26.9787196465  W2        1325            0.0000000000
      3976      1326  TIP3      OH2           -51.6663966405      -30.2035522861      -28.9626796465  W2        1326            0.0000000000
      3977      1326  TIP3      H1            -52.5555966405      -30.1040022861      -29.3027196465  W2        1326            0.0000000000
      3978      1326  TIP3      H2            -51.3699066405      -31.0452522861      -29.3088896465  W2        1326            0.0000000000
      3979      1327  TIP3      OH2           -48.0132166405      -30.2032922861      -31.3062196465  W2        1327            0.0000000000
      3980      1327  TIP3      H1            -47.0816666405      -30.0742922861      -31.1279096465  W2        1327            0.0000000000
      3981      1327  TIP3      H2            -48.2281866405      -29.5338622861      -31.9557496465  W2        1327            0.0000000000
      3982      1328  TIP3      OH2           -42.0895466405      -32.5975522861      -24.5252596465  W2        1328            0.0000000000
      3983      1328  TIP3      H1            -42.7663866405      -32.4662422861      -23.8612896465  W2        1328            0.0000000000
      3984      1328  TIP3      H2            -42.5750566405      -32.7526022861      -25.3354896465  W2        1328            0.0000000000
      3985      1329  TIP3      OH2           -49.3391966405      -29.0090722861      -33.7396096465  W2        1329            0.0000000000
      3986      1329  TIP3      H1            -49.8816866405      -29.3886922861      -34.4308496465  W2        1329            0.0000000000
      3987      1329  TIP3      H2            -48.5057066405      -28.8146022861      -34.1681996465  W2        1329            0.0000000000
      3988      1330  TIP3      OH2           -38.8020366405      -16.9260122861      -18.2484996465  W2        1330            0.0000000000
      3989      1330  TIP3      H1            -38.6021666405      -16.5018222861      -19.0829696465  W2        1330            0.0000000000
      3990      1330  TIP3      H2            -38.1466666405      -16.5821922861      -17.6414596465  W2        1330            0.0000000000
      3991      1331  TIP3      OH2           -51.2040566405      -24.4518822861      -18.6404496465  W2        1331            0.0000000000
      3992      1331  TIP3      H1            -50.4718166405      -24.1972922861      -18.0789996465  W2        1331            0.0000000000
      3993      1331  TIP3      H2            -51.9841866405      -24.2473422861      -18.1249096465  W2        1331            0.0000000000
      3994      1332  TIP3      OH2           -45.1747666405      -29.0448822861      -25.9024796465  W2        1332            0.0000000000
      3995      1332  TIP3      H1            -44.6104266405      -29.5912222861      -26.4495196465  W2        1332            0.0000000000
      3996      1332  TIP3      H2            -45.3224266405      -29.5666922861      -25.1137196465  W2        1332            0.0000000000
      3997      1333  TIP3      OH2           -50.1727966405      -32.9082722861      -29.4839996465  W2        1333            0.0000000000
      3998      1333  TIP3      H1            -50.4898466405      -33.8107422861      -29.5194596465  W2        1333            0.0000000000
      3999      1333  TIP3      H2            -49.3913866405      -32.9065322861      -30.0368396465  W2        1333            0.0000000000
      4000      1334  TIP3      OH2           -46.5481766405      -30.6562722861      -23.4884396465  W2        1334            0.0000000000
      4001      1334  TIP3      H1            -47.3836466405      -30.2023222861      -23.3781996465  W2        1334            0.0000000000
      4002      1334  TIP3      H2            -46.0241166405      -30.3804222861      -22.7364496465  W2        1334            0.0000000000
      4003      1335  TIP3      OH2           -46.0039166405      -24.4435022861      -31.8037996465  W2        1335            0.0000000000
      4004      1335  TIP3      H1            -46.7488166405      -24.9509722861      -32.1260096465  W2        1335            0.0000000000
      4005      1335  TIP3      H2            -46.1381966405      -24.3947022861      -30.8573196465  W2        1335            0.0000000000
      4006      1336  TIP3      OH2           -38.8540266405      -25.3106822861      -23.0170396465  W2        1336            0.0000000000
      4007      1336  TIP3      H1            -38.2121466405      -24.8540522861      -23.5608196465  W2        1336            0.0000000000
      4008      1336  TIP3      H2            -39.6843366405      -25.1974422861      -23.4796296465  W2        1336            0.0000000000
      4009      1337  TIP3      OH2           -42.1062366405      -31.6295122861      -33.6045396465  W2        1337            0.0000000000
      4010      1337  TIP3      H1            -43.0448166405      -31.5179522861      -33.7556596465  W2        1337            0.0000000000
      4011      1337  TIP3      H2            -41.8090266405      -30.7728222861      -33.2979696465  W2        1337            0.0000000000
      4012      1338  TIP3      OH2           -44.4847066405      -24.2591722861      -20.5668896465  W2        1338            0.0000000000
      4013      1338  TIP3      H1            -44.8300966405      -24.6409322861      -19.7599296465  W2        1338            0.0000000000
      4014      1338  TIP3      H2            -44.6846966405      -23.3258122861      -20.4955996465  W2        1338            0.0000000000
      4015      1339  TIP3      OH2           -41.3878866405      -29.7622422861      -31.9437996465  W2        1339            0.0000000000
      4016      1339  TIP3      H1            -40.4959866405      -29.8997422861      -31.6246796465  W2        1339            0.0000000000
      4017      1339  TIP3      H2            -41.3315266405      -28.9716322861      -32.4804496465  W2        1339            0.0000000000
      4018      1340  TIP3      OH2           -50.8790866405      -25.1485022861      -26.0340096465  W2        1340            0.0000000000
      4019      1340  TIP3      H1            -50.1343666405      -25.1509322861      -26.6353596465  W2        1340            0.0000000000
      4020      1340  TIP3      H2            -50.8014266405      -25.9721222861      -25.5524996465  W2        1340            0.0000000000
      4021      1341  TIP3      OH2           -43.8785066405      -22.9850722861      -32.7783396465  W2        1341            0.0000000000
      4022      1341  TIP3      H1            -44.1736666405      -22.1582822861      -32.3968596465  W2        1341            0.0000000000
      4023      1341  TIP3      H2            -44.5815066405      -23.6043822861      -32.5821996465  W2        1341            0.0000000000
      4024      1342  TIP3      OH2           -53.8711166405      -26.6878122861      -20.7191596465  W2        1342            0.0000000000
      4025      1342  TIP3      H1            -53.6482566405      -27.1058522861      -19.8874096465  W2        1342            0.0000000000
      4026      1342  TIP3      H2            -54.4731066405      -27.3003122861      -21.1418796465  W2        1342            0.0000000000
      4027      1343  TIP3      OH2           -46.8546266405      -27.1708222861      -18.5061896465  W2        1343            0.0000000000
      4028      1343  TIP3      H1            -47.1505466405      -27.3365222861      -19.4012796465  W2        1343            0.0000000000
      4029      1343  TIP3      H2            -45.9231066405      -27.3907922861      -18.5167996465  W2        1343            0.0000000000
      4030      1344  TIP3      OH2           -42.2343466405      -21.7976222861      -20.6163896465  W2        1344            0.0000000000
      4031      1344  TIP3      H1            -43.1349166405      -21.6143622861      -20.8839996465  W2        1344            0.0000000000
      4032      1344  TIP3      H2            -42.2002366405      -21.5386922861      -19.6955096465  W2        1344            0.0000000000
      4033      1345  TIP3      OH2           -36.5030166405      -29.5528322861      -32.2491296465  W2        1345            0.0000000000
      4034      1345  TIP3      H1            -37.0573866405      -29.9490322861      -32.9213796465  W2        1345            0.0000000000
      4035      1345  TIP3      H2            -36.4026566405      -28.6423122861      -32.5267996465  W2        1345            0.0000000000
      4036      1346  TIP3      OH2           -36.5398166405      -23.7526622861      -19.4119796465  W2        1346            0.0000000000
      4037      1346  TIP3      H1            -37.3909666405      -23.5142822861      -19.7793396465  W2        1346            0.0000000000
      4038      1346  TIP3      H2            -35.9494766405      -23.7693422861      -20.1652696465  W2        1346            0.0000000000
      4039      1347  TIP3      OH2           -38.2078466405      -20.7667922861      -31.7839196465  W2        1347            0.0000000000
      4040      1347  TIP3      H1            -38.5807366405      -21.5924122861      -31.4748596465  W2        1347            0.0000000000
      4041      1347  TIP3      H2            -37.9304966405      -20.9498522861      -32.6815796465  W2        1347            0.0000000000
      4042      1348  TIP3      OH2           -41.0474566405      -25.9588422861      -24.7627296465  W2        1348            0.0000000000
      4043      1348  TIP3      H1            -41.9757666405      -26.1906522861      -24.7897996465  W2        1348            0.0000000000
      4044      1348  TIP3      H2            -40.5963466405      -26.7358622861      -25.0928496465  W2        1348            0.0000000000
      4045      1349  TIP3      OH2           -48.5041466405      -21.6306822861      -28.6298596465  W2        1349            0.0000000000
      4046      1349  TIP3      H1            -47.9769266405      -20.8572422861      -28.8299796465  W2        1349            0.0000000000
      4047      1349  TIP3      H2            -49.3842966405      -21.4057622861      -28.9314596465  W2        1349            0.0000000000
      4048      1350  TIP3      OH2           -52.7493766405      -26.7682722861      -34.0426196465  W2        1350            0.0000000000
      4049      1350  TIP3      H1            -52.1333866405      -26.1415522861      -33.6631396465  W2        1350            0.0000000000
      4050      1350  TIP3      H2            -53.6111166405      -26.4522922861      -33.7709696465  W2        1350            0.0000000000
      4051      1351  TIP3      OH2           -47.0769166405      -23.9676922861      -29.0534296465  W2        1351            0.0000000000
      4052      1351  TIP3      H1            -47.3179166405      -23.0422522861      -29.0118996465  W2        1351            0.0000000000
      4053      1351  TIP3      H2            -47.8175566405      -24.4265622861      -28.6570396465  W2        1351            0.0000000000
      4054      1352  TIP3      OH2           -46.5622566405      -19.8183322861      -22.7383196465  W2        1352            0.0000000000
      4055      1352  TIP3      H1            -46.1997866405      -18.9637722861      -22.9718796465  W2        1352            0.0000000000
      4056      1352  TIP3      H2            -46.0307366405      -20.1101722861      -21.9976896465  W2        1352            0.0000000000
      4057      1353  TIP3      OH2           -48.3938366405      -18.9459322861      -29.5082096465  W2        1353            0.0000000000
      4058      1353  TIP3      H1            -49.3437866405      -18.8401922861      -29.4568796465  W2        1353            0.0000000000
      4059      1353  TIP3      H2            -48.0420266405      -18.1251922861      -29.1634596465  W2        1353            0.0000000000
      4060      1354  TIP3      OH2           -43.0181766405      -23.7192622861      -23.0377596465  W2        1354            0.0000000000
      4061      1354  TIP3      H1            -43.4440466405      -23.9470922861      -22.2113596465  W2        1354            0.0000000000
      4062      1354  TIP3      H2            -42.4375966405      -24.4580822861      -23.2202296465  W2        1354            0.0000000000
      4063      1355  TIP3      OH2           -40.8152866405      -22.7902122861      -33.9638596465  W2        1355            0.0000000000
      4064      1355  TIP3      H1            -40.4619766405      -23.1702322861      -33.1595096465  W2        1355            0.0000000000
      4065      1355  TIP3      H2            -41.7639366405      -22.8837322861      -33.8769296465  W2        1355            0.0000000000
      4066      1356  TIP3      OH2           -40.3597566405      -19.1673122861      -20.5682796465  W2        1356            0.0000000000
      4067      1356  TIP3      H1            -40.9614366405      -19.7230222861      -21.0636496465  W2        1356            0.0000000000
      4068      1356  TIP3      H2            -40.0783866405      -18.5003322861      -21.1945396465  W2        1356            0.0000000000
      4069      1357  TIP3      OH2           -36.3118466405      -18.3109622861      -33.7628396465  W2        1357            0.0000000000
      4070      1357  TIP3      H1            -35.5680566405      -17.7249122861      -33.9026796465  W2        1357            0.0000000000
      4071      1357  TIP3      H2            -37.0060366405      -17.7423822861      -33.4295996465  W2        1357            0.0000000000
      4072      1358  TIP3      OH2           -52.2371666405      -31.9345422861      -21.1610196465  W2        1358            0.0000000000
      4073      1358  TIP3      H1            -53.1299366405      -31.5960022861      -21.2286196465  W2        1358            0.0000000000
      4074      1358  TIP3      H2            -52.3358866405      -32.7899322861      -20.7429396465  W2        1358            0.0000000000
      4075      1359  TIP3      OH2           -39.9493566405      -24.1180122861      -31.7370696465  W2        1359            0.0000000000
      4076      1359  TIP3      H1            -40.2265966405      -24.8460822861      -31.1809596465  W2        1359            0.0000000000
      4077      1359  TIP3      H2            -39.0220566405      -23.9988122861      -31.5318096465  W2        1359            0.0000000000
      4078      1360  TIP3      OH2           -52.5859666405      -20.1301022861      -22.7260796465  W2        1360            0.0000000000
      4079      1360  TIP3      H1            -52.3689366405      -21.0618622861      -22.7571096465  W2        1360            0.0000000000
      4080      1360  TIP3      H2            -52.3396166405      -19.8556022861      -21.8427996465  W2        1360            0.0000000000
      4081      1361  TIP3      OH2           -46.7245066405      -21.6786022861      -35.5168596465  W2        1361            0.0000000000
      4082      1361  TIP3      H1            -46.4855266405      -22.4267922861      -36.0639696465  W2        1361            0.0000000000
      4083      1361  TIP3      H2            -46.9933766405      -22.0664322861      -34.6840796465  W2        1361            0.0000000000
      4084      1362  TIP3      OH2           -47.7874466405      -22.1082222861      -33.0605996465  W2        1362            0.0000000000
      4085      1362  TIP3      H1            -47.6406466405      -22.6282422861      -32.2705096465  W2        1362            0.0000000000
      4086      1362  TIP3      H2            -47.7902766405      -21.2014622861      -32.7540096465  W2        1362            0.0000000000
      4087      1363  TIP3      OH2           -51.3343366405      -24.8558922861      -32.5500596465  W2        1363            0.0000000000
      4088      1363  TIP3      H1            -52.0204066405      -24.5036422861      -31.9830896465  W2        1363            0.0000000000
      4089      1363  TIP3      H2            -50.8115466405      -24.0929322861      -32.7966296465  W2        1363            0.0000000000
      4090      1364  TIP3      OH2           -43.5028266405      -32.1935122861      -22.2711596465  W2        1364            0.0000000000
      4091      1364  TIP3      H1            -42.8040366405      -32.1196422861      -21.6211896465  W2        1364            0.0000000000
      4092      1364  TIP3      H2            -43.8836866405      -33.0580122861      -22.1168696465  W2        1364            0.0000000000
      4093      1365  TIP3      OH2           -42.7183366405      -32.5413422861      -31.1739296465  W2        1365            0.0000000000
      4094      1365  TIP3      H1            -42.4985066405      -32.0698022861      -31.9773896465  W2        1365            0.0000000000
      4095      1365  TIP3      H2            -42.1599366405      -32.1470822861      -30.5038696465  W2        1365            0.0000000000
      4096      1366  TIP3      OH2           -45.0497266405      -20.4108622861      -32.3111796465  W2        1366            0.0000000000
      4097      1366  TIP3      H1            -45.8661166405      -19.9138922861      -32.2587496465  W2        1366            0.0000000000
      4098      1366  TIP3      H2            -44.5200966405      -19.9355122861      -32.9512996465  W2        1366            0.0000000000
      4099      1367  TIP3      OH2           -45.5183466405      -30.8134622861      -30.3390896465  W2        1367            0.0000000000
      4100      1367  TIP3      H1            -44.7060866405      -30.3091422861      -30.2929196465  W2        1367            0.0000000000
      4101      1367  TIP3      H2            -45.7630466405      -30.9584922861      -29.4251296465  W2        1367            0.0000000000
      4102      1368  TIP3      OH2           -44.9827066405      -29.8271922861      -21.1544296465  W2        1368            0.0000000000
      4103      1368  TIP3      H1            -44.8636766405      -29.2536522861      -20.3973896465  W2        1368            0.0000000000
      4104      1368  TIP3      H2            -44.3272466405      -30.5152522861      -21.0396496465  W2        1368            0.0000000000
      4105      1369  TIP3      OH2           -44.6346766405      -33.7321622861      -29.4009796465  W2        1369            0.0000000000
      4106      1369  TIP3      H1            -44.9813266405      -33.1151022861      -28.7565496465  W2        1369            0.0000000000
      4107      1369  TIP3      H2            -43.9759866405      -33.2315922861      -29.8824296465  W2        1369            0.0000000000
      4108      1370  TIP3      OH2           -47.7114166405      -19.3671422861      -32.3294896465  W2        1370            0.0000000000
      4109      1370  TIP3      H1            -47.5505466405      -18.5673922861      -32.8302296465  W2        1370            0.0000000000
      4110      1370  TIP3      H2            -47.9086366405      -19.0605422861      -31.4444296465  W2        1370            0.0000000000
      4111      1371  TIP3      OH2           -48.9769766405      -32.6692222861      -32.7137296465  W2        1371            0.0000000000
      4112      1371  TIP3      H1            -49.0604966405      -31.7809122861      -32.3670896465  W2        1371            0.0000000000
      4113      1371  TIP3      H2            -48.0869466405      -32.9345522861      -32.4820496465  W2        1371            0.0000000000
      4114      1372  TIP3      OH2           -38.7781266405      -31.9201622861      -20.3194596465  W2        1372            0.0000000000
      4115      1372  TIP3      H1            -39.6945466405      -31.6579922861      -20.4070896465  W2        1372            0.0000000000
      4116      1372  TIP3      H2            -38.4426266405      -31.9232622861      -21.2159296465  W2        1372            0.0000000000
      4117      1373  TIP3      OH2           -40.1760266405      -28.1700622861      -26.2237296465  W2        1373            0.0000000000
      4118      1373  TIP3      H1            -40.9735866405      -28.5850422861      -26.5522296465  W2        1373            0.0000000000
      4119      1373  TIP3      H2            -39.7309166405      -28.8606922861      -25.7326796465  W2        1373            0.0000000000
      4120      1374  TIP3      OH2           -50.7184466405      -22.2420022861      -33.6532796465  W2        1374            0.0000000000
      4121      1374  TIP3      H1            -50.1262966405      -21.5425222861      -33.3770396465  W2        1374            0.0000000000
      4122      1374  TIP3      H2            -50.2591466405      -22.6750522861      -34.3728196465  W2        1374            0.0000000000
      4123      1375  TIP3      OH2           -52.4025266405      -29.5777022861      -34.5373396465  W2        1375            0.0000000000
      4124      1375  TIP3      H1            -52.4472666405      -28.6383922861      -34.3586396465  W2        1375            0.0000000000
      4125      1375  TIP3      H2            -53.2902066405      -29.8132122861      -34.8071296465  W2        1375            0.0000000000
      4126      1376  TIP3      OH2           -39.0895666405      -18.9138122861      -24.6013796465  W2        1376            0.0000000000
      4127      1376  TIP3      H1            -39.2451366405      -18.2353722861      -25.2584496465  W2        1376            0.0000000000
      4128      1376  TIP3      H2            -38.1569266405      -18.8418822861      -24.3983196465  W2        1376            0.0000000000
      4129      1377  TIP3      OH2           -51.5943266405      -34.7960422861      -25.8642396465  W2        1377            0.0000000000
      4130      1377  TIP3      H1            -51.8233466405      -34.7367922861      -26.7917396465  W2        1377            0.0000000000
      4131      1377  TIP3      H2            -52.0369866405      -35.5874922861      -25.5578296465  W2        1377            0.0000000000
      4132      1378  TIP3      OH2           -52.6639966405      -20.8553322861      -29.7036596465  W2        1378            0.0000000000
      4133      1378  TIP3      H1            -53.4961366405      -20.3830622861      -29.6765196465  W2        1378            0.0000000000
      4134      1378  TIP3      H2            -52.1181666405      -20.3455722861      -30.3023496465  W2        1378            0.0000000000
      4135      1379  TIP3      OH2           -53.3756266405      -18.2429622861      -18.3738596465  W2        1379            0.0000000000
      4136      1379  TIP3      H1            -52.8354066405      -18.4595622861      -17.6139396465  W2        1379            0.0000000000
      4137      1379  TIP3      H2            -53.8568266405      -19.0483622861      -18.5636096465  W2        1379            0.0000000000
      4138      1380  TIP3      OH2           -48.7782866405      -19.3235222861      -16.7534396465  W2        1380            0.0000000000
      4139      1380  TIP3      H1            -48.0105666405      -19.7824422861      -16.4125196465  W2        1380            0.0000000000
      4140      1380  TIP3      H2            -48.7996666405      -19.5495422861      -17.6833196465  W2        1380            0.0000000000
      4141      1381  TIP3      OH2           -44.6863266405      -19.8154622861      -35.3782596465  W2        1381            0.0000000000
      4142      1381  TIP3      H1            -45.3302266405      -20.4466022861      -35.0568896465  W2        1381            0.0000000000
      4143      1381  TIP3      H2            -43.9244966405      -20.3466622861      -35.6099096465  W2        1381            0.0000000000
      4144      1382  TIP3      OH2           -42.2014166405      -20.9434122861      -18.0242896465  W2        1382            0.0000000000
      4145      1382  TIP3      H1            -42.5524666405      -21.8001122861      -17.7812496465  W2        1382            0.0000000000
      4146      1382  TIP3      H2            -41.4750966405      -20.8007422861      -17.4173896465  W2        1382            0.0000000000
      4147      1383  TIP3      OH2           -40.0820366405      -19.9984722861      -35.1444596465  W2        1383            0.0000000000
      4148      1383  TIP3      H1            -39.7989966405      -20.7929522861      -34.6917696465  W2        1383            0.0000000000
      4149      1383  TIP3      H2            -39.3422466405      -19.7653722861      -35.7053496465  W2        1383            0.0000000000
      4150      1384  TIP3      OH2           -53.4686766405      -24.4325522861      -17.4194296465  W2        1384            0.0000000000
      4151      1384  TIP3      H1            -53.3246266405      -25.3344822861      -17.7057596465  W2        1384            0.0000000000
      4152      1384  TIP3      H2            -54.2409366405      -24.1463422861      -17.9071996465  W2        1384            0.0000000000
      4153      1385  TIP3      OH2           -49.1273066405      -24.0889822861      -35.2869696465  W2        1385            0.0000000000
      4154      1385  TIP3      H1            -49.0628966405      -24.8830222861      -34.7563296465  W2        1385            0.0000000000
      4155      1385  TIP3      H2            -48.4743866405      -24.2077022861      -35.9767696465  W2        1385            0.0000000000
      4156      1386  TIP3      OH2           -46.8130666405      -24.4627422861      -17.9867896465  W2        1386            0.0000000000
      4157      1386  TIP3      H1            -47.1416866405      -24.1919322861      -18.8440496465  W2        1386            0.0000000000
      4158      1386  TIP3      H2            -46.6612466405      -25.4037622861      -18.0742896465  W2        1386            0.0000000000
      4159      1387  TIP3      OH2           -43.7749666405      -23.0418122861      -35.5511696465  W2        1387            0.0000000000
      4160      1387  TIP3      H1            -44.0435566405      -22.8616022861      -34.6502796465  W2        1387            0.0000000000
      4161      1387  TIP3      H2            -43.9814066405      -23.9671922861      -35.6825896465  W2        1387            0.0000000000
      4162      1388  TIP3      OH2           -41.0785466405      -24.5470122861      -20.6035596465  W2        1388            0.0000000000
      4163      1388  TIP3      H1            -40.3330666405      -23.9586422861      -20.7231596465  W2        1388            0.0000000000
      4164      1388  TIP3      H2            -41.8358666405      -23.9650422861      -20.5402496465  W2        1388            0.0000000000
      4165      1389  TIP3      OH2           -52.6360266405      -27.2322222861      -17.9994996465  W2        1389            0.0000000000
      4166      1389  TIP3      H1            -52.2279066405      -28.0895622861      -18.1204396465  W2        1389            0.0000000000
      4167      1389  TIP3      H2            -52.8962666405      -27.2180922861      -17.0784696465  W2        1389            0.0000000000
      4168      1390  TIP3      OH2           -47.9779266405      -26.1163622861      -32.9811696465  W2        1390            0.0000000000
      4169      1390  TIP3      H1            -48.4377266405      -26.6005322861      -32.2953196465  W2        1390            0.0000000000
      4170      1390  TIP3      H2            -47.7230566405      -26.7848222861      -33.6171196465  W2        1390            0.0000000000
      4171      1391  TIP3      OH2           -48.6889966405      -28.2236522861      -20.6252096465  W2        1391            0.0000000000
      4172      1391  TIP3      H1            -49.3073866405      -27.5489922861      -20.3447396465  W2        1391            0.0000000000
      4173      1391  TIP3      H2            -48.3448766405      -27.9022622861      -21.4585896465  W2        1391            0.0000000000
      4174      1392  TIP3      OH2           -46.9068866405      -27.8731822861      -34.7188496465  W2        1392            0.0000000000
      4175      1392  TIP3      H1            -47.0873866405      -28.0280622861      -35.6460196465  W2        1392            0.0000000000
      4176      1392  TIP3      H2            -45.9568366405      -27.7653122861      -34.6740596465  W2        1392            0.0000000000
      4177      1393  TIP3      OH2           -43.6691766405      -25.7521222861      -17.3477296465  W2        1393            0.0000000000
      4178      1393  TIP3      H1            -42.7160566405      -25.6682122861      -17.3751296465  W2        1393            0.0000000000
      4179      1393  TIP3      H2            -43.8297166405      -26.4639422861      -16.7282396465  W2        1393            0.0000000000
      4180      1394  TIP3      OH2           -37.5170566405      -25.5187622861      -35.2730396465  W2        1394            0.0000000000
      4181      1394  TIP3      H1            -37.7905766405      -25.9432122861      -36.0862096465  W2        1394            0.0000000000
      4182      1394  TIP3      H2            -37.4776466405      -24.5873122861      -35.4899996465  W2        1394            0.0000000000
      4183      1395  TIP3      OH2           -48.3496266405      -30.8685722861      -19.5428996465  W2        1395            0.0000000000
      4184      1395  TIP3      H1            -48.1995366405      -31.5974422861      -20.1449296465  W2        1395            0.0000000000
      4185      1395  TIP3      H2            -48.3473866405      -30.0914022861      -20.1016796465  W2        1395            0.0000000000
      4186      1396  TIP3      OH2           -47.9370566405      -32.4989922861      -22.0501596465  W2        1396            0.0000000000
      4187      1396  TIP3      H1            -47.4013066405      -32.0473222861      -22.7022296465  W2        1396            0.0000000000
      4188      1396  TIP3      H2            -48.7890966405      -32.6070122861      -22.4727496465  W2        1396            0.0000000000
      4189      1397  TIP3      OH2           -46.3552166405      -27.0593722861      -21.8106396465  W2        1397            0.0000000000
      4190      1397  TIP3      H1            -45.6047366405      -27.2156222861      -22.3838596465  W2        1397            0.0000000000
      4191      1397  TIP3      H2            -46.6943866405      -26.2077122861      -22.0860896465  W2        1397            0.0000000000
      4192      1398  TIP3      OH2           -41.9395966405      -29.2441922861      -16.7821096465  W2        1398            0.0000000000
      4193      1398  TIP3      H1            -41.7474666405      -30.1752522861      -16.8936596465  W2        1398            0.0000000000
      4194      1398  TIP3      H2            -41.0819666405      -28.8192422861      -16.7925696465  W2        1398            0.0000000000
      4195      1399  TIP3      OH2           -40.6228766405      -26.4556722861      -18.7048396465  W2        1399            0.0000000000
      4196      1399  TIP3      H1            -40.9043766405      -25.7462122861      -19.2824596465  W2        1399            0.0000000000
      4197      1399  TIP3      H2            -39.6804466405      -26.5283722861      -18.8557196465  W2        1399            0.0000000000
      4198      1400  TIP3      OH2           -49.8709966405      -29.6702222861      -17.6313396465  W2        1400            0.0000000000
      4199      1400  TIP3      H1            -50.6380966405      -30.2027422861      -17.8415796465  W2        1400            0.0000000000
      4200      1400  TIP3      H2            -49.1920966405      -29.9801822861      -18.2307096465  W2        1400            0.0000000000
      4201      1401  TIP3      OH2           -47.1315066405      -35.0424222861      -21.6187996465  W2        1401            0.0000000000
      4202      1401  TIP3      H1            -47.2295466405      -34.0961022861      -21.7241796465  W2        1401            0.0000000000
      4203      1401  TIP3      H2            -47.8738866405      -35.4150422861      -22.0944496465  W2        1401            0.0000000000
      4204      1402  TIP3      OH2           -45.8674566405      -30.7208822861      -18.0549596465  W2        1402            0.0000000000
      4205      1402  TIP3      H1            -46.1029166405      -30.9402122861      -17.1534696465  W2        1402            0.0000000000
      4206      1402  TIP3      H2            -46.6507666405      -30.9277622861      -18.5647096465  W2        1402            0.0000000000
      4207      1403  TIP3      OH2           -43.1517966405      -31.5935322861      -18.9796096465  W2        1403            0.0000000000
      4208      1403  TIP3      H1            -44.0992566405      -31.5615622861      -18.8472796465  W2        1403            0.0000000000
      4209      1403  TIP3      H2            -42.8391266405      -32.2188222861      -18.3257896465  W2        1403            0.0000000000
      4210      1404  TIP3      OH2           -41.5176466405      -32.9594222861      -16.9744196465  W2        1404            0.0000000000
      4211      1404  TIP3      H1            -41.6144666405      -33.9116922861      -16.9802296465  W2        1404            0.0000000000
      4212      1404  TIP3      H2            -41.8393366405      -32.6907422861      -16.1138696465  W2        1404            0.0000000000
      4213      1405  TIP3      OH2           -51.6907166405      -31.7498422861      -17.9268696465  W2        1405            0.0000000000
      4214      1405  TIP3      H1            -51.4789766405      -32.4562322861      -18.5371196465  W2        1405            0.0000000000
      4215      1405  TIP3      H2            -51.8019666405      -32.1872422861      -17.0827496465  W2        1405            0.0000000000
      4216      1406  TIP3      OH2           -46.9096966405      -35.7486822861      -18.9475196465  W2        1406            0.0000000000
      4217      1406  TIP3      H1            -46.1978566405      -36.3884622861      -18.9616096465  W2        1406            0.0000000000
      4218      1406  TIP3      H2            -47.0106566405      -35.4818522861      -19.8612096465  W2        1406            0.0000000000
      4219      1407  TIP3      OH2           -46.5559466405      -34.0658422861      -16.8938896465  W2        1407            0.0000000000
      4220      1407  TIP3      H1            -46.6877266405      -34.5414622861      -17.7140396465  W2        1407            0.0000000000
      4221      1407  TIP3      H2            -47.1552066405      -33.3214822861      -16.9491796465  W2        1407            0.0000000000
      4222      1408  TIP3      OH2           -47.0097166405      -17.1828122861      -33.7174896465  W2        1408            0.0000000000
      4223      1408  TIP3      H1            -46.0766466405      -17.0249422861      -33.5736496465  W2        1408            0.0000000000
      4224      1408  TIP3      H2            -47.2738366405      -16.5075122861      -34.3423396465  W2        1408            0.0000000000
      4225      1409  TIP3      OH2           -53.4412266405      -22.5464322861      -34.2346796465  W2        1409            0.0000000000
      4226      1409  TIP3      H1            -52.5273066405      -22.4675422861      -33.9612896465  W2        1409            0.0000000000
      4227      1409  TIP3      H2            -53.4339166405      -23.2334722861      -34.9011196465  W2        1409            0.0000000000
      4228      1410  TIP3      OH2           -54.7921666405      -17.1535822861      -29.1572896465  W2        1410            0.0000000000
      4229      1410  TIP3      H1            -55.4394566405      -17.6154122861      -29.6901696465  W2        1410            0.0000000000
      4230      1410  TIP3      H2            -54.4377066405      -17.8252522861      -28.5746696465  W2        1410            0.0000000000
      4231      1411  TIP3      OH2           -53.9222466405      -19.0728822861      -27.3526696465  W2        1411            0.0000000000
      4232      1411  TIP3      H1            -54.2565666405      -19.9531522861      -27.1806496465  W2        1411            0.0000000000
      4233      1411  TIP3      H2            -53.7000066405      -18.7273822861      -26.4881096465  W2        1411            0.0000000000
      4234      1412  TIP3      OH2           -36.3737666405      -18.2632422861      -24.3721896465  W2        1412            0.0000000000
      4235      1412  TIP3      H1            -36.3950966405      -18.0784022861      -23.4332496465  W2        1412            0.0000000000
      4236      1412  TIP3      H2            -35.6831466405      -17.6948422861      -24.7130496465  W2        1412            0.0000000000
      4237      1413  TIP3      OH2           -36.8104766405      -18.6961322861      -21.4502796465  W2        1413            0.0000000000
      4238      1413  TIP3      H1            -37.2976066405      -19.4317222861      -21.8215396465  W2        1413            0.0000000000
      4239      1413  TIP3      H2            -36.2612066405      -19.0897422861      -20.7723396465  W2        1413            0.0000000000
      4240      1414  TIP3      OH2           -38.3597466405      -22.9063222861      -16.8122496465  W2        1414            0.0000000000
      4241      1414  TIP3      H1            -39.2256366405      -23.0113522861      -16.4180196465  W2        1414            0.0000000000
      4242      1414  TIP3      H2            -37.9831566405      -22.1479922861      -16.3657796465  W2        1414            0.0000000000
      4243      1415  TIP3      OH2           -37.0587766405      -24.6499522861      -31.2979996465  W2        1415            0.0000000000
      4244      1415  TIP3      H1            -36.2086366405      -24.2288622861      -31.1708396465  W2        1415            0.0000000000
      4245      1415  TIP3      H2            -37.0532666405      -25.3899422861      -30.6908596465  W2        1415            0.0000000000
      4246      1416  TIP3      OH2           -36.6642166405      -26.5962122861      -29.4744296465  W2        1416            0.0000000000
      4247      1416  TIP3      H1            -37.3907566405      -27.0759522861      -29.0766696465  W2        1416            0.0000000000
      4248      1416  TIP3      H2            -36.0828866405      -26.3907422861      -28.7422696465  W2        1416            0.0000000000
      4249      1417  TIP3      OH2           -36.9050966405      -23.8114622861      -24.5266696465  W2        1417            0.0000000000
      4250      1417  TIP3      H1            -36.0716766405      -24.1894622861      -24.8073096465  W2        1417            0.0000000000
      4251      1417  TIP3      H2            -36.7930666405      -22.8683422861      -24.6457596465  W2        1417            0.0000000000
      4252      1418  TIP3      OH2           -38.4188666405      -20.9337122861      -22.2198296465  W2        1418            0.0000000000
      4253      1418  TIP3      H1            -39.0663366405      -20.6085622861      -21.5943096465  W2        1418            0.0000000000
      4254      1418  TIP3      H2            -38.9364666405      -21.3739422861      -22.8939996465  W2        1418            0.0000000000
      4255      1419  TIP3      OH2           -36.3959066405      -26.6953622861      -33.0832996465  W2        1419            0.0000000000
      4256      1419  TIP3      H1            -36.9177966405      -26.3389522861      -33.8022096465  W2        1419            0.0000000000
      4257      1419  TIP3      H2            -36.4289866405      -26.0205822861      -32.4052096465  W2        1419            0.0000000000
      4258      1420  TIP3      OH2           -38.0470066405      -29.4558022861      -34.5325896465  W2        1420            0.0000000000
      4259      1420  TIP3      H1            -37.9505666405      -28.7891022861      -35.2126196465  W2        1420            0.0000000000
      4260      1420  TIP3      H2            -38.1870466405      -30.2711722861      -35.0140396465  W2        1420            0.0000000000
      4261      1421  TIP3      OH2           -38.8775366405      -28.0755622861      -28.9115596465  W2        1421            0.0000000000
      4262      1421  TIP3      H1            -39.0276566405      -29.0207022861      -28.9317796465  W2        1421            0.0000000000
      4263      1421  TIP3      H2            -39.2310866405      -27.7944222861      -28.0676496465  W2        1421            0.0000000000
      4264      1422  TIP3      OH2           -53.8422966405      -25.9973422861      -24.9011796465  W2        1422            0.0000000000
      4265      1422  TIP3      H1            -53.6580066405      -26.0791722861      -25.8368896465  W2        1422            0.0000000000
      4266      1422  TIP3      H2            -52.9930066405      -26.1216422861      -24.4775396465  W2        1422            0.0000000000
      4267      1423  TIP3      OH2           -38.0212466405      -26.1052322861      -19.2727296465  W2        1423            0.0000000000
      4268      1423  TIP3      H1            -37.4385166405      -26.8400022861      -19.0810096465  W2        1423            0.0000000000
      4269      1423  TIP3      H2            -37.4573166405      -25.3332022861      -19.2261496465  W2        1423            0.0000000000
      4270      1424  TIP3      OH2           -36.5245366405      -28.2026522861      -18.5881896465  W2        1424            0.0000000000
      4271      1424  TIP3      H1            -37.3878666405      -28.5814422861      -18.7537196465  W2        1424            0.0000000000
      4272      1424  TIP3      H2            -35.9201666405      -28.9411722861      -18.6626096465  W2        1424            0.0000000000
      4273      1425  TIP3      OH2           -38.7996266405      -32.0478222861      -35.4150396465  W2        1425            0.0000000000
      4274      1425  TIP3      H1            -38.1890466405      -32.4191422861      -34.7782196465  W2        1425            0.0000000000
      4275      1425  TIP3      H2            -39.6364766405      -32.4691322861      -35.2190396465  W2        1425            0.0000000000
      4276      1426  TIP3      OH2           -39.1670566405      -30.4929822861      -30.4490496465  W2        1426            0.0000000000
      4277      1426  TIP3      H1            -38.8873466405      -31.3999422861      -30.3248796465  W2        1426            0.0000000000
      4278      1426  TIP3      H2            -38.4078866405      -30.0588322861      -30.8381296465  W2        1426            0.0000000000
      4279      1427  TIP3      OH2           -38.5552266405      -29.9112422861      -25.0131596465  W2        1427            0.0000000000
      4280      1427  TIP3      H1            -37.6224266405      -29.6992522861      -25.0475596465  W2        1427            0.0000000000
      4281      1427  TIP3      H2            -38.7904766405      -29.8100322861      -24.0908596465  W2        1427            0.0000000000
      4282      1428  TIP3      OH2           -38.5260366405      -29.1747122861      -22.2372196465  W2        1428            0.0000000000
      4283      1428  TIP3      H1            -39.3689066405      -28.9066722861      -21.8712396465  W2        1428            0.0000000000
      4284      1428  TIP3      H2            -38.0836066405      -28.3525222861      -22.4481096465  W2        1428            0.0000000000
      4285      1429  TIP3      OH2           -54.2448166405      -30.7268422861      -18.7602996465  W2        1429            0.0000000000
      4286      1429  TIP3      H1            -53.3253266405      -30.8490122861      -18.5239896465  W2        1429            0.0000000000
      4287      1429  TIP3      H2            -54.6943666405      -31.4768722861      -18.3709496465  W2        1429            0.0000000000
      4288      1430  TIP3      OH2           -36.2428766405      -35.1946922861      -16.8837196465  W2        1430            0.0000000000
      4289      1430  TIP3      H1            -35.8931766405      -35.8483422861      -17.4892496465  W2        1430            0.0000000000
      4290      1430  TIP3      H2            -36.0959266405      -34.3572822861      -17.3234596465  W2        1430            0.0000000000
      4291      1431  TIP3      OH2           -38.5535766405      -33.2300522861      -30.4008496465  W2        1431            0.0000000000
      4292      1431  TIP3      H1            -38.3710766405      -33.6789022861      -29.5753496465  W2        1431            0.0000000000
      4293      1431  TIP3      H2            -39.1532866405      -33.8146122861      -30.8643896465  W2        1431            0.0000000000
      4294      1432  TIP3      OH2           -53.0235666405      -32.4146822861      -25.8690096465  W2        1432            0.0000000000
      4295      1432  TIP3      H1            -52.5784066405      -33.2064322861      -25.5670396465  W2        1432            0.0000000000
      4296      1432  TIP3      H2            -52.5572666405      -31.6981622861      -25.4384496465  W2        1432            0.0000000000
      4297      1433  TIP3      OH2           -54.7195366405      -29.4153822861      -24.7999896465  W2        1433            0.0000000000
      4298      1433  TIP3      H1            -54.2275566405      -29.6363322861      -25.5907896465  W2        1433            0.0000000000
      4299      1433  TIP3      H2            -54.3574466405      -28.5750422861      -24.5190396465  W2        1433            0.0000000000
      4300      1434  TIP3      OH2           -36.7231566405      -33.0852322861      -18.5345896465  W2        1434            0.0000000000
      4301      1434  TIP3      H1            -37.6405866405      -32.8145222861      -18.5702396465  W2        1434            0.0000000000
      4302      1434  TIP3      H2            -36.6002166405      -33.6203922861      -19.3186196465  W2        1434            0.0000000000
      4303      1435  TIP3      OH2           -36.6869566405      -33.1622422861      -33.8728196465  W2        1435            0.0000000000
      4304      1435  TIP3      H1            -36.2746966405      -33.8836722861      -34.3480196465  W2        1435            0.0000000000
      4305      1435  TIP3      H2            -36.0053066405      -32.4927822861      -33.8143896465  W2        1435            0.0000000000
      4306      1436  TIP3      OH2           -54.4058866405      -33.1574722861      -30.7457496465  W2        1436            0.0000000000
      4307      1436  TIP3      H1            -55.3310466405      -32.9488122861      -30.8751996465  W2        1436            0.0000000000
      4308      1436  TIP3      H2            -53.9518966405      -32.6733922861      -31.4355196465  W2        1436            0.0000000000
      4309      1437  TIP3      OH2           -39.6351666405      -18.1733022861      -28.8000096465  W2        1437            0.0000000000
      4310      1437  TIP3      H1            -38.9828766405      -18.5210922861      -29.4080996465  W2        1437            0.0000000000
      4311      1437  TIP3      H2            -39.1247866405      -17.6849822861      -28.1540396465  W2        1437            0.0000000000
      4312      1438  TIP3      OH2           -54.4423466405      -34.4195722861      -22.4014996465  W2        1438            0.0000000000
      4313      1438  TIP3      H1            -55.1072966405      -34.6655422861      -21.7584096465  W2        1438            0.0000000000
      4314      1438  TIP3      H2            -54.8852166405      -33.7975322861      -22.9786996465  W2        1438            0.0000000000
      4315      1439  TIP3      OH2           -52.2504166405      -21.2441622861      -18.2569196465  W2        1439            0.0000000000
      4316      1439  TIP3      H1            -53.0711666405      -21.0695122861      -18.7174496465  W2        1439            0.0000000000
      4317      1439  TIP3      H2            -52.5026366405      -21.3176922861      -17.3364796465  W2        1439            0.0000000000
      4318      1440  TIP3      OH2           -49.2961266405      -20.2700422861      -21.9985196465  W2        1440            0.0000000000
      4319      1440  TIP3      H1            -49.7210166405      -19.4601922861      -22.2810596465  W2        1440            0.0000000000
      4320      1440  TIP3      H2            -48.3918466405      -20.1846322861      -22.3005396465  W2        1440            0.0000000000
      4321      1441  TIP3      OH2           -44.9849866405      -18.8710422861      -19.0391496465  W2        1441            0.0000000000
      4322      1441  TIP3      H1            -44.8002366405      -19.2044322861      -18.1611196465  W2        1441            0.0000000000
      4323      1441  TIP3      H2            -44.1385366405      -18.5611822861      -19.3612296465  W2        1441            0.0000000000
      4324      1442  TIP3      OH2           -42.6399466405      -17.5851522861      -19.7950096465  W2        1442            0.0000000000
      4325      1442  TIP3      H1            -41.9630566405      -18.2179222861      -20.0350896465  W2        1442            0.0000000000
      4326      1442  TIP3      H2            -42.3180666405      -17.1841022861      -18.9876796465  W2        1442            0.0000000000
      4327      1443  TIP3      OH2           -37.7225666405      -34.9956022861      -20.7155096465  W2        1443            0.0000000000
      4328      1443  TIP3      H1            -38.5352166405      -34.6705722861      -21.1030396465  W2        1443            0.0000000000
      4329      1443  TIP3      H2            -37.4897166405      -35.7557522861      -21.2485996465  W2        1443            0.0000000000
      4330      1444  TIP3      OH2           -51.8944566405      -17.0136522861      -21.9509896465  W2        1444            0.0000000000
      4331      1444  TIP3      H1            -52.6148166405      -16.5735522861      -22.4022196465  W2        1444            0.0000000000
      4332      1444  TIP3      H2            -52.2600566405      -17.2641822861      -21.1025896465  W2        1444            0.0000000000
      4333      1445  TIP3      OH2           -49.4271966405      -17.4132622861      -22.9212696465  W2        1445            0.0000000000
      4334      1445  TIP3      H1            -50.2919766405      -17.3414122861      -22.5172596465  W2        1445            0.0000000000
      4335      1445  TIP3      H2            -49.4822966405      -16.8665322861      -23.7050196465  W2        1445            0.0000000000
      4336      1446  TIP3      OH2           -44.7166366405      -17.5253722861      -23.7456696465  W2        1446            0.0000000000
      4337      1446  TIP3      H1            -45.1732366405      -16.9964022861      -24.3998296465  W2        1446            0.0000000000
      4338      1446  TIP3      H2            -44.5538366405      -16.9222322861      -23.0204396465  W2        1446            0.0000000000
      4339      1447  TIP3      OH2           -42.3890066405      -18.6474122861      -22.8006396465  W2        1447            0.0000000000
      4340      1447  TIP3      H1            -43.2936366405      -18.4823922861      -23.0664296465  W2        1447            0.0000000000
      4341      1447  TIP3      H2            -41.9601466405      -17.7941922861      -22.8662996465  W2        1447            0.0000000000
      4342      1448  TIP3      OH2           -39.7848166405      -17.0775022861      -22.5058596465  W2        1448            0.0000000000
      4343      1448  TIP3      H1            -39.9666166405      -16.1616122861      -22.7163696465  W2        1448            0.0000000000
      4344      1448  TIP3      H2            -39.6080366405      -17.4877922861      -23.3523996465  W2        1448            0.0000000000
      4345      1449  TIP3      OH2           -52.4796466405      -18.3904022861      -25.0408096465  W2        1449            0.0000000000
      4346      1449  TIP3      H1            -52.4980466405      -18.8158922861      -24.1835796465  W2        1449            0.0000000000
      4347      1449  TIP3      H2            -51.6748566405      -18.7089022861      -25.4495896465  W2        1449            0.0000000000
      4348      1450  TIP3      OH2           -50.3383366405      -19.6805322861      -26.3858196465  W2        1450            0.0000000000
      4349      1450  TIP3      H1            -50.5572666405      -20.5967922861      -26.2162196465  W2        1450            0.0000000000
      4350      1450  TIP3      H2            -49.5141166405      -19.5404922861      -25.9196796465  W2        1450            0.0000000000
      4351      1451  TIP3      OH2           -47.8010866405      -19.2106022861      -25.5370196465  W2        1451            0.0000000000
      4352      1451  TIP3      H1            -47.5885166405      -20.0987022861      -25.8239296465  W2        1451            0.0000000000
      4353      1451  TIP3      H2            -47.7365766405      -19.2448322861      -24.5826196465  W2        1451            0.0000000000
      4354      1452  TIP3      OH2           -44.2927166405      -33.5465422861      -26.3926896465  W2        1452            0.0000000000
      4355      1452  TIP3      H1            -44.9670366405      -34.1759822861      -26.1371096465  W2        1452            0.0000000000
      4356      1452  TIP3      H2            -43.7287966405      -34.0306522861      -26.9958996465  W2        1452            0.0000000000
      4357      1453  TIP3      OH2           -39.1499966405      -35.4391422861      -26.2799796465  W2        1453            0.0000000000
      4358      1453  TIP3      H1            -38.5462366405      -34.8916022861      -26.7818796465  W2        1453            0.0000000000
      4359      1453  TIP3      H2            -40.0197966405      -35.1201022861      -26.5205696465  W2        1453            0.0000000000
      4360      1454  TIP3      OH2           -37.4229566405      -34.3002722861      -27.9468896465  W2        1454            0.0000000000
      4361      1454  TIP3      H1            -36.8112066405      -34.8147022861      -28.4735296465  W2        1454            0.0000000000
      4362      1454  TIP3      H2            -37.0406166405      -33.4230622861      -27.9234496465  W2        1454            0.0000000000
      4363      1455  TIP3      OH2           -51.9659666405      -34.9125122861      -28.5706996465  W2        1455            0.0000000000
      4364      1455  TIP3      H1            -52.7429866405      -35.1470222861      -29.0781096465  W2        1455            0.0000000000
      4365      1455  TIP3      H2            -51.4356066405      -35.7093022861      -28.5618996465  W2        1455            0.0000000000
      4366      1456  TIP3      OH2           -53.1296266405      -35.1147022861      -32.7670896465  W2        1456            0.0000000000
      4367      1456  TIP3      H1            -52.6905566405      -34.5036522861      -33.3587396465  W2        1456            0.0000000000
      4368      1456  TIP3      H2            -53.7633866405      -34.5762922861      -32.2930896465  W2        1456            0.0000000000
      4369      1457  TIP3      OH2           -47.3867066405      -34.9858022861      -28.7573896465  W2        1457            0.0000000000
      4370      1457  TIP3      H1            -46.5123666405      -34.5973722861      -28.7869596465  W2        1457            0.0000000000
      4371      1457  TIP3      H2            -47.5226266405      -35.2010222861      -27.8346696465  W2        1457            0.0000000000
      4372      1458  TIP3      OH2           -41.8298666405      -34.9558222861      -27.1082196465  W2        1458            0.0000000000
      4373      1458  TIP3      H1            -41.7537066405      -34.8606622861      -28.0576196465  W2        1458            0.0000000000
      4374      1458  TIP3      H2            -42.1049466405      -35.8635322861      -26.9793096465  W2        1458            0.0000000000
      4375      1459  TIP3      OH2           -40.4766066405      -34.9300422861      -31.4157196465  W2        1459            0.0000000000
      4376      1459  TIP3      H1            -41.1794966405      -34.3151222861      -31.6255796465  W2        1459            0.0000000000
      4377      1459  TIP3      H2            -40.9214666405      -35.7673722861      -31.2846296465  W2        1459            0.0000000000
      4378      1460  TIP3      OH2           -53.2286766405      -19.1664822861      -31.8695796465  W2        1460            0.0000000000
      4379      1460  TIP3      H1            -53.9136866405      -19.2045922861      -32.5370696465  W2        1460            0.0000000000
      4380      1460  TIP3      H2            -53.2249566405      -18.2537222861      -31.5813696465  W2        1460            0.0000000000
      4381      1461  TIP3      OH2           -51.2687166405      -33.1985522861      -34.3246796465  W2        1461            0.0000000000
      4382      1461  TIP3      H1            -50.7773766405      -33.8283122861      -34.8521296465  W2        1461            0.0000000000
      4383      1461  TIP3      H2            -50.6450866405      -32.9026122861      -33.6615596465  W2        1461            0.0000000000
      4384      1462  TIP3      OH2           -46.2427066405      -32.9054022861      -31.8676296465  W2        1462            0.0000000000
      4385      1462  TIP3      H1            -46.0645766405      -33.5520822861      -31.1847696465  W2        1462            0.0000000000
      4386      1462  TIP3      H2            -46.2960866405      -32.0716322861      -31.4005196465  W2        1462            0.0000000000
      4387      1463  TIP3      OH2           -44.3643266405      -17.9569922861      -33.4719596465  W2        1463            0.0000000000
      4388      1463  TIP3      H1            -43.4983066405      -17.5902522861      -33.6501396465  W2        1463            0.0000000000
      4389      1463  TIP3      H2            -44.6110466405      -18.3961922861      -34.2858796465  W2        1463            0.0000000000
      4390      1464  TIP3      OH2           -37.6553666405      -18.3939622861      -30.7928496465  W2        1464            0.0000000000
      4391      1464  TIP3      H1            -37.8496566405      -19.1417522861      -31.3578896465  W2        1464            0.0000000000
      4392      1464  TIP3      H2            -37.6943566405      -17.6359522861      -31.3760596465  W2        1464            0.0000000000
      4393      1465  TIP3      OH2           -52.0081666405      -34.3983222861      -19.0530796465  W2        1465            0.0000000000
      4394      1465  TIP3      H1            -52.3743466405      -35.1640622861      -18.6106096465  W2        1465            0.0000000000
      4395      1465  TIP3      H2            -51.0953166405      -34.3693022861      -18.7665696465  W2        1465            0.0000000000
      4396      1466  TIP3      OH2           -50.0350866405      -35.0478822861      -17.5173696465  W2        1466            0.0000000000
      4397      1466  TIP3      H1            -49.1367266405      -35.3218622861      -17.7020296465  W2        1466            0.0000000000
      4398      1466  TIP3      H2            -50.4217766405      -35.7902822861      -17.0531096465  W2        1466            0.0000000000
      4399      1467  TIP3      OH2           -51.4105566405      -18.2464022861      -34.8443696465  W2        1467            0.0000000000
      4400      1467  TIP3      H1            -51.6780966405      -17.9601122861      -33.9710596465  W2        1467            0.0000000000
      4401      1467  TIP3      H2            -50.6392966405      -18.7924822861      -34.6921196465  W2        1467            0.0000000000
      4402      1468  TIP3      OH2           -41.6138566405      -35.7153522861      -17.3350896465  W2        1468            0.0000000000
      4403      1468  TIP3      H1            -41.5371366405      -36.1412822861      -16.4813196465  W2        1468            0.0000000000
      4404      1468  TIP3      H2            -40.7201966405      -35.7018822861      -17.6777396465  W2        1468            0.0000000000
      4405      1469  TIP3      OH2           -38.4377466405      -19.6427222861      -18.6426696465  W2        1469            0.0000000000
      4406      1469  TIP3      H1            -39.2195566405      -19.8289222861      -19.1626096465  W2        1469            0.0000000000
      4407      1469  TIP3      H2            -38.5097566405      -18.7132922861      -18.4254196465  W2        1469            0.0000000000
      4408      1470  TIP3      OH2           -24.0317066405      -25.7562822861      -28.6119496465  W2        1470            0.0000000000
      4409      1470  TIP3      H1            -23.9425966405      -24.8124622861      -28.7442396465  W2        1470            0.0000000000
      4410      1470  TIP3      H2            -24.6699466405      -26.0316422861      -29.2700096465  W2        1470            0.0000000000
      4411      1471  TIP3      OH2           -25.0985766405      -26.5012122861      -25.1931296465  W2        1471            0.0000000000
      4412      1471  TIP3      H1            -25.1368266405      -27.1475822861      -24.4881696465  W2        1471            0.0000000000
      4413      1471  TIP3      H2            -25.4209266405      -26.9677722861      -25.9642596465  W2        1471            0.0000000000
      4414      1472  TIP3      OH2           -32.7300766405      -26.8870022861      -23.6001396465  W2        1472            0.0000000000
      4415      1472  TIP3      H1            -32.6888666405      -27.5126722861      -22.8768996465  W2        1472            0.0000000000
      4416      1472  TIP3      H2            -32.0273066405      -26.2631422861      -23.4180996465  W2        1472            0.0000000000
      4417      1473  TIP3      OH2           -21.3925566405      -23.5621722861      -26.8916196465  W2        1473            0.0000000000
      4418      1473  TIP3      H1            -21.8332866405      -24.2825722861      -26.4410596465  W2        1473            0.0000000000
      4419      1473  TIP3      H2            -21.4055866405      -22.8414522861      -26.2618496465  W2        1473            0.0000000000
      4420      1474  TIP3      OH2           -31.8067666405      -22.4371122861      -25.0652296465  W2        1474            0.0000000000
      4421      1474  TIP3      H1            -32.1762466405      -23.2390622861      -25.4347996465  W2        1474            0.0000000000
      4422      1474  TIP3      H2            -30.8656566405      -22.6056222861      -25.0188896465  W2        1474            0.0000000000
      4423      1475  TIP3      OH2           -35.1967166405      -28.7768522861      -29.6723496465  W2        1475            0.0000000000
      4424      1475  TIP3      H1            -35.6443766405      -27.9309822861      -29.6906996465  W2        1475            0.0000000000
      4425      1475  TIP3      H2            -35.7575966405      -29.3564322861      -30.1878396465  W2        1475            0.0000000000
      4426      1476  TIP3      OH2           -34.4861066405      -26.6148922861      -27.5465496465  W2        1476            0.0000000000
      4427      1476  TIP3      H1            -34.2727566405      -27.3847322861      -27.0192496465  W2        1476            0.0000000000
      4428      1476  TIP3      H2            -33.7483466405      -26.5252222861      -28.1497896465  W2        1476            0.0000000000
      4429      1477  TIP3      OH2           -24.2810066405      -18.4580022861      -26.6795796465  W2        1477            0.0000000000
      4430      1477  TIP3      H1            -23.6613666405      -19.1345322861      -26.9526596465  W2        1477            0.0000000000
      4431      1477  TIP3      H2            -24.4892666405      -18.6759222861      -25.7710896465  W2        1477            0.0000000000
      4432      1478  TIP3      OH2           -26.7091366405      -24.0690722861      -24.7870296465  W2        1478            0.0000000000
      4433      1478  TIP3      H1            -26.4053466405      -24.7549322861      -25.3816196465  W2        1478            0.0000000000
      4434      1478  TIP3      H2            -25.9877366405      -23.9502022861      -24.1692296465  W2        1478            0.0000000000
      4435      1479  TIP3      OH2           -18.0461566405      -32.4675422861      -23.9264096465  W2        1479            0.0000000000
      4436      1479  TIP3      H1            -17.9969366405      -31.8574222861      -23.1904996465  W2        1479            0.0000000000
      4437      1479  TIP3      H2            -17.6206466405      -32.0064522861      -24.6492996465  W2        1479            0.0000000000
      4438      1480  TIP3      OH2           -23.5684366405      -29.6748322861      -24.4595496465  W2        1480            0.0000000000
      4439      1480  TIP3      H1            -23.4258466405      -30.6211322861      -24.4393896465  W2        1480            0.0000000000
      4440      1480  TIP3      H2            -23.6745366405      -29.4678522861      -25.3880596465  W2        1480            0.0000000000
      4441      1481  TIP3      OH2           -30.4136066405      -31.5731922861      -27.1870696465  W2        1481            0.0000000000
      4442      1481  TIP3      H1            -30.3704966405      -30.7133422861      -27.6054396465  W2        1481            0.0000000000
      4443      1481  TIP3      H2            -30.8711966405      -32.1257222861      -27.8207496465  W2        1481            0.0000000000
      4444      1482  TIP3      OH2           -22.6913366405      -31.4426322861      -28.7862396465  W2        1482            0.0000000000
      4445      1482  TIP3      H1            -22.0449066405      -31.7713122861      -28.1614796465  W2        1482            0.0000000000
      4446      1482  TIP3      H2            -22.1813966405      -30.9247322861      -29.4090996465  W2        1482            0.0000000000
      4447      1483  TIP3      OH2           -33.7934566405      -29.1766122861      -26.4249296465  W2        1483            0.0000000000
      4448      1483  TIP3      H1            -33.1397966405      -29.7264422861      -25.9929196465  W2        1483            0.0000000000
      4449      1483  TIP3      H2            -33.7695266405      -29.4507122861      -27.3417296465  W2        1483            0.0000000000
      4450      1484  TIP3      OH2           -28.6370066405      -27.6264822861      -27.2097796465  W2        1484            0.0000000000
      4451      1484  TIP3      H1            -28.0209066405      -28.1529422861      -26.7003796465  W2        1484            0.0000000000
      4452      1484  TIP3      H2            -29.2231266405      -28.2666122861      -27.6134196465  W2        1484            0.0000000000
      4453      1485  TIP3      OH2           -17.6546966405      -30.9896222861      -21.6904296465  W2        1485            0.0000000000
      4454      1485  TIP3      H1            -18.3432366405      -30.3315522861      -21.7857696465  W2        1485            0.0000000000
      4455      1485  TIP3      H2            -17.6392366405      -31.1868322861      -20.7538896465  W2        1485            0.0000000000
      4456      1486  TIP3      OH2           -31.6034166405      -32.6553522861      -23.1129896465  W2        1486            0.0000000000
      4457      1486  TIP3      H1            -31.8222466405      -32.1252922861      -23.8793896465  W2        1486            0.0000000000
      4458      1486  TIP3      H2            -32.2713266405      -32.4288022861      -22.4658496465  W2        1486            0.0000000000
      4459      1487  TIP3      OH2           -24.2344366405      -23.1552422861      -29.5690796465  W2        1487            0.0000000000
      4460      1487  TIP3      H1            -24.5299266405      -23.4780122861      -30.4203896465  W2        1487            0.0000000000
      4461      1487  TIP3      H2            -24.5586566405      -22.2555722861      -29.5278196465  W2        1487            0.0000000000
      4462      1488  TIP3      OH2           -29.0342766405      -24.9797822861      -22.8256196465  W2        1488            0.0000000000
      4463      1488  TIP3      H1            -29.7743666405      -24.3816322861      -22.7220996465  W2        1488            0.0000000000
      4464      1488  TIP3      H2            -28.3203266405      -24.4258222861      -23.1412596465  W2        1488            0.0000000000
      4465      1489  TIP3      OH2           -20.9274966405      -32.1517022861      -26.8056496465  W2        1489            0.0000000000
      4466      1489  TIP3      H1            -21.1426966405      -32.9173622861      -26.2730496465  W2        1489            0.0000000000
      4467      1489  TIP3      H2            -20.2717566405      -31.6792422861      -26.2927996465  W2        1489            0.0000000000
      4468      1490  TIP3      OH2           -32.0096866405      -30.7631722861      -25.1607696465  W2        1490            0.0000000000
      4469      1490  TIP3      H1            -31.3960566405      -30.1304122861      -24.7875296465  W2        1490            0.0000000000
      4470      1490  TIP3      H2            -31.4976166405      -31.2356722861      -25.8170796465  W2        1490            0.0000000000
      4471      1491  TIP3      OH2           -30.6268466405      -23.0154822861      -22.0384696465  W2        1491            0.0000000000
      4472      1491  TIP3      H1            -30.6320866405      -22.1361322861      -22.4165396465  W2        1491            0.0000000000
      4473      1491  TIP3      H2            -31.4804366405      -23.0990722861      -21.6134796465  W2        1491            0.0000000000
      4474      1492  TIP3      OH2           -34.5057566405      -23.3446922861      -31.2565396465  W2        1492            0.0000000000
      4475      1492  TIP3      H1            -34.7776666405      -23.1155922861      -32.1452496465  W2        1492            0.0000000000
      4476      1492  TIP3      H2            -34.4601866405      -22.5068122861      -30.7960096465  W2        1492            0.0000000000
      4477      1493  TIP3      OH2           -20.8807866405      -21.7231022861      -24.5436896465  W2        1493            0.0000000000
      4478      1493  TIP3      H1            -21.8224166405      -21.6647122861      -24.3819996465  W2        1493            0.0000000000
      4479      1493  TIP3      H2            -20.6041766405      -20.8170522861      -24.6807196465  W2        1493            0.0000000000
      4480      1494  TIP3      OH2           -20.5800866405      -33.4365722861      -23.1262996465  W2        1494            0.0000000000
      4481      1494  TIP3      H1            -21.3161666405      -32.8258622861      -23.1641696465  W2        1494            0.0000000000
      4482      1494  TIP3      H2            -19.8966866405      -33.0216722861      -23.6526596465  W2        1494            0.0000000000
      4483      1495  TIP3      OH2           -27.5769466405      -35.3498422861      -25.6604996465  W2        1495            0.0000000000
      4484      1495  TIP3      H1            -27.6945266405      -36.2982422861      -25.7146696465  W2        1495            0.0000000000
      4485      1495  TIP3      H2            -28.4319366405      -35.0172322861      -25.3873896465  W2        1495            0.0000000000
      4486      1496  TIP3      OH2           -22.6286666405      -19.9417522861      -27.9185296465  W2        1496            0.0000000000
      4487      1496  TIP3      H1            -22.2034366405      -20.6489622861      -28.4035696465  W2        1496            0.0000000000
      4488      1496  TIP3      H2            -22.3116666405      -19.1404822861      -28.3353096465  W2        1496            0.0000000000
      4489      1497  TIP3      OH2           -21.4690166405      -22.0409022861      -29.4098696465  W2        1497            0.0000000000
      4490      1497  TIP3      H1            -21.7265366405      -22.7308922861      -30.0212796465  W2        1497            0.0000000000
      4491      1497  TIP3      H2            -21.3979366405      -22.4837822861      -28.5642796465  W2        1497            0.0000000000
      4492      1498  TIP3      OH2           -19.7829966405      -23.4742322861      -20.9325196465  W2        1498            0.0000000000
      4493      1498  TIP3      H1            -19.6433666405      -24.0659822861      -21.6718196465  W2        1498            0.0000000000
      4494      1498  TIP3      H2            -19.6157166405      -22.6016422861      -21.2886396465  W2        1498            0.0000000000
      4495      1499  TIP3      OH2           -25.3104566405      -26.5122822861      -31.1599196465  W2        1499            0.0000000000
      4496      1499  TIP3      H1            -26.0219066405      -25.9773122861      -31.5118696465  W2        1499            0.0000000000
      4497      1499  TIP3      H2            -24.6194966405      -26.4570722861      -31.8200296465  W2        1499            0.0000000000
      4498      1500  TIP3      OH2           -25.2565366405      -28.0548522861      -34.1214196465  W2        1500            0.0000000000
      4499      1500  TIP3      H1            -24.5555466405      -28.0321622861      -33.4700196465  W2        1500            0.0000000000
      4500      1500  TIP3      H2            -24.9542466405      -28.6828822861      -34.7774896465  W2        1500            0.0000000000
      4501      1501  TIP3      OH2           -17.9410666405      -27.1344322861      -22.8664796465  W2        1501            0.0000000000
      4502      1501  TIP3      H1            -18.5936566405      -26.4398722861      -22.7773896465  W2        1501            0.0000000000
      4503      1501  TIP3      H2            -17.4760366405      -26.9243422861      -23.6763196465  W2        1501            0.0000000000
      4504      1502  TIP3      OH2           -21.9046866405      -26.3029522861      -30.2083296465  W2        1502            0.0000000000
      4505      1502  TIP3      H1            -22.6365866405      -26.0745822861      -29.6352696465  W2        1502            0.0000000000
      4506      1502  TIP3      H2            -21.4574666405      -27.0166822861      -29.7535796465  W2        1502            0.0000000000
      4507      1503  TIP3      OH2           -22.0073366405      -28.1286922861      -21.1406296465  W2        1503            0.0000000000
      4508      1503  TIP3      H1            -21.9274266405      -27.3652522861      -20.5687796465  W2        1503            0.0000000000
      4509      1503  TIP3      H2            -22.6085666405      -27.8494522861      -21.8311196465  W2        1503            0.0000000000
      4510      1504  TIP3      OH2           -30.2593166405      -25.6723322861      -28.3258296465  W2        1504            0.0000000000
      4511      1504  TIP3      H1            -30.5897966405      -26.0429922861      -29.1441296465  W2        1504            0.0000000000
      4512      1504  TIP3      H2            -29.6709066405      -26.3429322861      -27.9789996465  W2        1504            0.0000000000
      4513      1505  TIP3      OH2           -28.8925666405      -22.2442722861      -25.6446096465  W2        1505            0.0000000000
      4514      1505  TIP3      H1            -28.9874366405      -22.8229622861      -26.4011496465  W2        1505            0.0000000000
      4515      1505  TIP3      H2            -28.1632066405      -22.6157022861      -25.1483296465  W2        1505            0.0000000000
      4516      1506  TIP3      OH2           -29.8927666405      -26.9037722861      -24.6923296465  W2        1506            0.0000000000
      4517      1506  TIP3      H1            -29.3275166405      -26.7823522861      -25.4552096465  W2        1506            0.0000000000
      4518      1506  TIP3      H2            -29.5738766405      -26.2662722861      -24.0534796465  W2        1506            0.0000000000
      4519      1507  TIP3      OH2           -23.5835466405      -21.4005822861      -23.9582796465  W2        1507            0.0000000000
      4520      1507  TIP3      H1            -23.8238866405      -20.7382722861      -23.3103596465  W2        1507            0.0000000000
      4521      1507  TIP3      H2            -23.7817266405      -22.2350622861      -23.5333196465  W2        1507            0.0000000000
      4522      1508  TIP3      OH2           -29.0126966405      -22.5045022861      -19.9751396465  W2        1508            0.0000000000
      4523      1508  TIP3      H1            -29.3239466405      -21.7221822861      -19.5198196465  W2        1508            0.0000000000
      4524      1508  TIP3      H2            -29.6626766405      -22.6575922861      -20.6609396465  W2        1508            0.0000000000
      4525      1509  TIP3      OH2           -23.0337366405      -27.1406622861      -32.5232096465  W2        1509            0.0000000000
      4526      1509  TIP3      H1            -22.4541866405      -26.9906322861      -31.7763196465  W2        1509            0.0000000000
      4527      1509  TIP3      H2            -22.6197366405      -26.6699222861      -33.2465696465  W2        1509            0.0000000000
      4528      1510  TIP3      OH2           -32.0927066405      -26.3063922861      -20.7465696465  W2        1510            0.0000000000
      4529      1510  TIP3      H1            -32.0223866405      -25.6557122861      -20.0480696465  W2        1510            0.0000000000
      4530      1510  TIP3      H2            -32.9834866405      -26.2036422861      -21.0814796465  W2        1510            0.0000000000
      4531      1511  TIP3      OH2           -25.3072466405      -20.4038122861      -29.0878996465  W2        1511            0.0000000000
      4532      1511  TIP3      H1            -24.8334866405      -20.1081822861      -28.3104796465  W2        1511            0.0000000000
      4533      1511  TIP3      H2            -25.8703166405      -19.6656522861      -29.3209396465  W2        1511            0.0000000000
      4534      1512  TIP3      OH2           -30.7731066405      -20.4330022861      -19.2117596465  W2        1512            0.0000000000
      4535      1512  TIP3      H1            -30.7655766405      -20.5690322861      -20.1592096465  W2        1512            0.0000000000
      4536      1512  TIP3      H2            -31.6890666405      -20.5501922861      -18.9597596465  W2        1512            0.0000000000
      4537      1513  TIP3      OH2           -19.3348966405      -35.3906222861      -32.7102396465  W2        1513            0.0000000000
      4538      1513  TIP3      H1            -20.2348266405      -35.2517222861      -32.4151796465  W2        1513            0.0000000000
      4539      1513  TIP3      H2            -19.0830566405      -34.5591622861      -33.1120696465  W2        1513            0.0000000000
      4540      1514  TIP3      OH2           -31.2690466405      -26.6029022861      -30.7365496465  W2        1514            0.0000000000
      4541      1514  TIP3      H1            -31.5609166405      -25.8347322861      -31.2274196465  W2        1514            0.0000000000
      4542      1514  TIP3      H2            -31.9435266405      -27.2622822861      -30.8994096465  W2        1514            0.0000000000
      4543      1515  TIP3      OH2           -18.1457566405      -21.0243822861      -34.3338496465  W2        1515            0.0000000000
      4544      1515  TIP3      H1            -18.0724066405      -20.0853622861      -34.1633196465  W2        1515            0.0000000000
      4545      1515  TIP3      H2            -17.2402466405      -21.3295222861      -34.3901196465  W2        1515            0.0000000000
      4546      1516  TIP3      OH2           -35.1760366405      -24.2399822861      -21.9215696465  W2        1516            0.0000000000
      4547      1516  TIP3      H1            -35.6771966405      -24.2680422861      -22.7365996465  W2        1516            0.0000000000
      4548      1516  TIP3      H2            -35.1706666405      -25.1456622861      -21.6118396465  W2        1516            0.0000000000
      4549      1517  TIP3      OH2           -35.4257666405      -21.4596022861      -25.0375496465  W2        1517            0.0000000000
      4550      1517  TIP3      H1            -34.4797066405      -21.6039022861      -25.0565996465  W2        1517            0.0000000000
      4551      1517  TIP3      H2            -35.5381366405      -20.6753222861      -24.5004296465  W2        1517            0.0000000000
      4552      1518  TIP3      OH2           -17.2279166405      -20.7936322861      -19.3551796465  W2        1518            0.0000000000
      4553      1518  TIP3      H1            -17.2772366405      -21.7488222861      -19.3924196465  W2        1518            0.0000000000
      4554      1518  TIP3      H2            -18.0546866405      -20.5261022861      -18.9537996465  W2        1518            0.0000000000
      4555      1519  TIP3      OH2           -26.2495166405      -21.2197122861      -20.4790396465  W2        1519            0.0000000000
      4556      1519  TIP3      H1            -26.1620566405      -20.3932522861      -20.0041296465  W2        1519            0.0000000000
      4557      1519  TIP3      H2            -27.1130066405      -21.5493322861      -20.2301096465  W2        1519            0.0000000000
      4558      1520  TIP3      OH2           -25.8349366405      -17.4473422861      -30.6729796465  W2        1520            0.0000000000
      4559      1520  TIP3      H1            -25.9103366405      -17.5686222861      -31.6194596465  W2        1520            0.0000000000
      4560      1520  TIP3      H2            -25.8020666405      -16.4980722861      -30.5545196465  W2        1520            0.0000000000
      4561      1521  TIP3      OH2           -32.1815566405      -18.6586422861      -28.8920796465  W2        1521            0.0000000000
      4562      1521  TIP3      H1            -32.0295166405      -19.0066022861      -28.0134296465  W2        1521            0.0000000000
      4563      1521  TIP3      H2            -33.0325166405      -19.0149122861      -29.1473596465  W2        1521            0.0000000000
      4564      1522  TIP3      OH2           -22.7333366405      -18.2933222861      -33.6707396465  W2        1522            0.0000000000
      4565      1522  TIP3      H1            -22.3584966405      -19.0377122861      -34.1414796465  W2        1522            0.0000000000
      4566      1522  TIP3      H2            -22.7289666405      -18.5632622861      -32.7524096465  W2        1522            0.0000000000
      4567      1523  TIP3      OH2           -23.0645266405      -18.3676122861      -30.9215196465  W2        1523            0.0000000000
      4568      1523  TIP3      H1            -23.9995466405      -18.2674222861      -30.7428196465  W2        1523            0.0000000000
      4569      1523  TIP3      H2            -22.7843366405      -19.0770122861      -30.3431996465  W2        1523            0.0000000000
      4570      1524  TIP3      OH2           -20.0759366405      -29.3003822861      -18.8749596465  W2        1524            0.0000000000
      4571      1524  TIP3      H1            -20.4832566405      -28.8198222861      -19.5956296465  W2        1524            0.0000000000
      4572      1524  TIP3      H2            -20.0353666405      -30.2057822861      -19.1828796465  W2        1524            0.0000000000
      4573      1525  TIP3      OH2           -32.9269866405      -22.9164422861      -20.8782896465  W2        1525            0.0000000000
      4574      1525  TIP3      H1            -32.7108566405      -23.2778822861      -20.0187096465  W2        1525            0.0000000000
      4575      1525  TIP3      H2            -33.7825166405      -23.2910622861      -21.0879396465  W2        1525            0.0000000000
      4576      1526  TIP3      OH2           -30.3081866405      -34.4463922861      -24.8828696465  W2        1526            0.0000000000
      4577      1526  TIP3      H1            -31.1698166405      -34.5335722861      -25.2905796465  W2        1526            0.0000000000
      4578      1526  TIP3      H2            -30.3306166405      -33.5903822861      -24.4551096465  W2        1526            0.0000000000
      4579      1527  TIP3      OH2           -25.6454066405      -34.7243522861      -21.5081696465  W2        1527            0.0000000000
      4580      1527  TIP3      H1            -25.2250966405      -35.1396422861      -20.7551096465  W2        1527            0.0000000000
      4581      1527  TIP3      H2            -26.5784466405      -34.9030222861      -21.3909696465  W2        1527            0.0000000000
      4582      1528  TIP3      OH2           -22.3189166405      -30.9688322861      -20.6547196465  W2        1528            0.0000000000
      4583      1528  TIP3      H1            -22.8329666405      -31.0946122861      -19.8571196465  W2        1528            0.0000000000
      4584      1528  TIP3      H2            -22.4744466405      -30.0565222861      -20.8990996465  W2        1528            0.0000000000
      4585      1529  TIP3      OH2           -21.5564266405      -26.1078322861      -34.8934196465  W2        1529            0.0000000000
      4586      1529  TIP3      H1            -21.5143466405      -26.3304422861      -35.8234196465  W2        1529            0.0000000000
      4587      1529  TIP3      H2            -20.7072166405      -25.7091222861      -34.7034296465  W2        1529            0.0000000000
      4588      1530  TIP3      OH2           -25.9836766405      -32.2320122861      -34.2230896465  W2        1530            0.0000000000
      4589      1530  TIP3      H1            -26.2371966405      -32.2128522861      -33.3002796465  W2        1530            0.0000000000
      4590      1530  TIP3      H2            -26.2404666405      -33.1034722861      -34.5244696465  W2        1530            0.0000000000
      4591      1531  TIP3      OH2           -30.2171766405      -29.4809422861      -23.7878496465  W2        1531            0.0000000000
      4592      1531  TIP3      H1            -30.8589666405      -29.5212122861      -23.0788396465  W2        1531            0.0000000000
      4593      1531  TIP3      H2            -30.1799766405      -28.5544722861      -24.0255496465  W2        1531            0.0000000000
      4594      1532  TIP3      OH2           -30.2202666405      -29.2599322861      -28.8758496465  W2        1532            0.0000000000
      4595      1532  TIP3      H1            -31.1129766405      -29.6003222861      -28.9344696465  W2        1532            0.0000000000
      4596      1532  TIP3      H2            -29.7696066405      -29.6368422861      -29.6315296465  W2        1532            0.0000000000
      4597      1533  TIP3      OH2           -24.6847166405      -28.8439022861      -30.0587696465  W2        1533            0.0000000000
      4598      1533  TIP3      H1            -25.0936866405      -28.0290422861      -30.3502896465  W2        1533            0.0000000000
      4599      1533  TIP3      H2            -23.9640966405      -28.9838922861      -30.6730596465  W2        1533            0.0000000000
      4600      1534  TIP3      OH2           -25.5825566405      -28.6682622861      -18.5706996465  W2        1534            0.0000000000
      4601      1534  TIP3      H1            -26.1451766405      -29.3731022861      -18.2499196465  W2        1534            0.0000000000
      4602      1534  TIP3      H2            -24.7562166405      -28.7890722861      -18.1029396465  W2        1534            0.0000000000
      4603      1535  TIP3      OH2           -23.6799466405      -29.3978622861      -27.2447996465  W2        1535            0.0000000000
      4604      1535  TIP3      H1            -23.8754966405      -28.7921822861      -27.9597396465  W2        1535            0.0000000000
      4605      1535  TIP3      H2            -23.4986866405      -30.2313422861      -27.6791696465  W2        1535            0.0000000000
      4606      1536  TIP3      OH2           -32.4671266405      -29.1605922861      -21.9206496465  W2        1536            0.0000000000
      4607      1536  TIP3      H1            -32.5051866405      -28.7604322861      -21.0519396465  W2        1536            0.0000000000
      4608      1536  TIP3      H2            -32.9580166405      -29.9773522861      -21.8303596465  W2        1536            0.0000000000
      4609      1537  TIP3      OH2           -29.1013866405      -31.7863622861      -35.1220496465  W2        1537            0.0000000000
      4610      1537  TIP3      H1            -29.5323166405      -32.2313522861      -34.3923096465  W2        1537            0.0000000000
      4611      1537  TIP3      H2            -29.8195166405      -31.4147322861      -35.6342996465  W2        1537            0.0000000000
      4612      1538  TIP3      OH2           -35.8590466405      -32.0444122861      -28.0701796465  W2        1538            0.0000000000
      4613      1538  TIP3      H1            -35.2282766405      -32.0732022861      -27.3507896465  W2        1538            0.0000000000
      4614      1538  TIP3      H2            -35.4096166405      -32.4695422861      -28.8005896465  W2        1538            0.0000000000
      4615      1539  TIP3      OH2           -34.5848366405      -31.2982122861      -32.6461396465  W2        1539            0.0000000000
      4616      1539  TIP3      H1            -34.1106666405      -30.7072222861      -33.2310496465  W2        1539            0.0000000000
      4617      1539  TIP3      H2            -35.3021966405      -30.7679222861      -32.2991296465  W2        1539            0.0000000000
      4618      1540  TIP3      OH2           -24.4160266405      -27.7597322861      -22.5735596465  W2        1540            0.0000000000
      4619      1540  TIP3      H1            -24.0925466405      -28.3907622861      -23.2165096465  W2        1540            0.0000000000
      4620      1540  TIP3      H2            -24.8560966405      -28.2945122861      -21.9128196465  W2        1540            0.0000000000
      4621      1541  TIP3      OH2           -27.6387366405      -31.8321822861      -27.7894396465  W2        1541            0.0000000000
      4622      1541  TIP3      H1            -28.5496266405      -31.7755022861      -27.5008396465  W2        1541            0.0000000000
      4623      1541  TIP3      H2            -27.1334466405      -31.8926322861      -26.9787196465  W2        1541            0.0000000000
      4624      1542  TIP3      OH2           -32.8103966405      -30.2035522861      -28.9626796465  W2        1542            0.0000000000
      4625      1542  TIP3      H1            -33.6995966405      -30.1040022861      -29.3027196465  W2        1542            0.0000000000
      4626      1542  TIP3      H2            -32.5139066405      -31.0452522861      -29.3088896465  W2        1542            0.0000000000
      4627      1543  TIP3      OH2           -29.1572166405      -30.2032922861      -31.3062196465  W2        1543            0.0000000000
      4628      1543  TIP3      H1            -28.2256666405      -30.0742922861      -31.1279096465  W2        1543            0.0000000000
      4629      1543  TIP3      H2            -29.3721866405      -29.5338622861      -31.9557496465  W2        1543            0.0000000000
      4630      1544  TIP3      OH2           -23.2335466405      -32.5975522861      -24.5252596465  W2        1544            0.0000000000
      4631      1544  TIP3      H1            -23.9103866405      -32.4662422861      -23.8612896465  W2        1544            0.0000000000
      4632      1544  TIP3      H2            -23.7190566405      -32.7526022861      -25.3354896465  W2        1544            0.0000000000
      4633      1545  TIP3      OH2           -30.4831966405      -29.0090722861      -33.7396096465  W2        1545            0.0000000000
      4634      1545  TIP3      H1            -31.0256866405      -29.3886922861      -34.4308496465  W2        1545            0.0000000000
      4635      1545  TIP3      H2            -29.6497066405      -28.8146022861      -34.1681996465  W2        1545            0.0000000000
      4636      1546  TIP3      OH2           -19.9460366405      -16.9260122861      -18.2484996465  W2        1546            0.0000000000
      4637      1546  TIP3      H1            -19.7461666405      -16.5018222861      -19.0829696465  W2        1546            0.0000000000
      4638      1546  TIP3      H2            -19.2906666405      -16.5821922861      -17.6414596465  W2        1546            0.0000000000
      4639      1547  TIP3      OH2           -32.3480566405      -24.4518822861      -18.6404496465  W2        1547            0.0000000000
      4640      1547  TIP3      H1            -31.6158166405      -24.1972922861      -18.0789996465  W2        1547            0.0000000000
      4641      1547  TIP3      H2            -33.1281866405      -24.2473422861      -18.1249096465  W2        1547            0.0000000000
      4642      1548  TIP3      OH2           -26.3187666405      -29.0448822861      -25.9024796465  W2        1548            0.0000000000
      4643      1548  TIP3      H1            -25.7544266405      -29.5912222861      -26.4495196465  W2        1548            0.0000000000
      4644      1548  TIP3      H2            -26.4664266405      -29.5666922861      -25.1137196465  W2        1548            0.0000000000
      4645      1549  TIP3      OH2           -31.3167966405      -32.9082722861      -29.4839996465  W2        1549            0.0000000000
      4646      1549  TIP3      H1            -31.6338466405      -33.8107422861      -29.5194596465  W2        1549            0.0000000000
      4647      1549  TIP3      H2            -30.5353866405      -32.9065322861      -30.0368396465  W2        1549            0.0000000000
      4648      1550  TIP3      OH2           -27.6921766405      -30.6562722861      -23.4884396465  W2        1550            0.0000000000
      4649      1550  TIP3      H1            -28.5276466405      -30.2023222861      -23.3781996465  W2        1550            0.0000000000
      4650      1550  TIP3      H2            -27.1681166405      -30.3804222861      -22.7364496465  W2        1550            0.0000000000
      4651      1551  TIP3      OH2           -27.1479166405      -24.4435022861      -31.8037996465  W2        1551            0.0000000000
      4652      1551  TIP3      H1            -27.8928166405      -24.9509722861      -32.1260096465  W2        1551            0.0000000000
      4653      1551  TIP3      H2            -27.2821966405      -24.3947022861      -30.8573196465  W2        1551            0.0000000000
      4654      1552  TIP3      OH2           -19.9980266405      -25.3106822861      -23.0170396465  W2        1552            0.0000000000
      4655      1552  TIP3      H1            -19.3561466405      -24.8540522861      -23.5608196465  W2        1552            0.0000000000
      4656      1552  TIP3      H2            -20.8283366405      -25.1974422861      -23.4796296465  W2        1552            0.0000000000
      4657      1553  TIP3      OH2           -23.2502366405      -31.6295122861      -33.6045396465  W2        1553            0.0000000000
      4658      1553  TIP3      H1            -24.1888166405      -31.5179522861      -33.7556596465  W2        1553            0.0000000000
      4659      1553  TIP3      H2            -22.9530266405      -30.7728222861      -33.2979696465  W2        1553            0.0000000000
      4660      1554  TIP3      OH2           -25.6287066405      -24.2591722861      -20.5668896465  W2        1554            0.0000000000
      4661      1554  TIP3      H1            -25.9740966405      -24.6409322861      -19.7599296465  W2        1554            0.0000000000
      4662      1554  TIP3      H2            -25.8286966405      -23.3258122861      -20.4955996465  W2        1554            0.0000000000
      4663      1555  TIP3      OH2           -22.5318866405      -29.7622422861      -31.9437996465  W2        1555            0.0000000000
      4664      1555  TIP3      H1            -21.6399866405      -29.8997422861      -31.6246796465  W2        1555            0.0000000000
      4665      1555  TIP3      H2            -22.4755266405      -28.9716322861      -32.4804496465  W2        1555            0.0000000000
      4666      1556  TIP3      OH2           -32.0230866405      -25.1485022861      -26.0340096465  W2        1556            0.0000000000
      4667      1556  TIP3      H1            -31.2783666405      -25.1509322861      -26.6353596465  W2        1556            0.0000000000
      4668      1556  TIP3      H2            -31.9454266405      -25.9721222861      -25.5524996465  W2        1556            0.0000000000
      4669      1557  TIP3      OH2           -25.0225066405      -22.9850722861      -32.7783396465  W2        1557            0.0000000000
      4670      1557  TIP3      H1            -25.3176666405      -22.1582822861      -32.3968596465  W2        1557            0.0000000000
      4671      1557  TIP3      H2            -25.7255066405      -23.6043822861      -32.5821996465  W2        1557            0.0000000000
      4672      1558  TIP3      OH2           -35.0151166405      -26.6878122861      -20.7191596465  W2        1558            0.0000000000
      4673      1558  TIP3      H1            -34.7922566405      -27.1058522861      -19.8874096465  W2        1558            0.0000000000
      4674      1558  TIP3      H2            -35.6171066405      -27.3003122861      -21.1418796465  W2        1558            0.0000000000
      4675      1559  TIP3      OH2           -27.9986266405      -27.1708222861      -18.5061896465  W2        1559            0.0000000000
      4676      1559  TIP3      H1            -28.2945466405      -27.3365222861      -19.4012796465  W2        1559            0.0000000000
      4677      1559  TIP3      H2            -27.0671066405      -27.3907922861      -18.5167996465  W2        1559            0.0000000000
      4678      1560  TIP3      OH2           -23.3783466405      -21.7976222861      -20.6163896465  W2        1560            0.0000000000
      4679      1560  TIP3      H1            -24.2789166405      -21.6143622861      -20.8839996465  W2        1560            0.0000000000
      4680      1560  TIP3      H2            -23.3442366405      -21.5386922861      -19.6955096465  W2        1560            0.0000000000
      4681      1561  TIP3      OH2           -17.6470166405      -29.5528322861      -32.2491296465  W2        1561            0.0000000000
      4682      1561  TIP3      H1            -18.2013866405      -29.9490322861      -32.9213796465  W2        1561            0.0000000000
      4683      1561  TIP3      H2            -17.5466566405      -28.6423122861      -32.5267996465  W2        1561            0.0000000000
      4684      1562  TIP3      OH2           -17.6838166405      -23.7526622861      -19.4119796465  W2        1562            0.0000000000
      4685      1562  TIP3      H1            -18.5349666405      -23.5142822861      -19.7793396465  W2        1562            0.0000000000
      4686      1562  TIP3      H2            -17.0934766405      -23.7693422861      -20.1652696465  W2        1562            0.0000000000
      4687      1563  TIP3      OH2           -19.3518466405      -20.7667922861      -31.7839196465  W2        1563            0.0000000000
      4688      1563  TIP3      H1            -19.7247366405      -21.5924122861      -31.4748596465  W2        1563            0.0000000000
      4689      1563  TIP3      H2            -19.0744966405      -20.9498522861      -32.6815796465  W2        1563            0.0000000000
      4690      1564  TIP3      OH2           -22.1914566405      -25.9588422861      -24.7627296465  W2        1564            0.0000000000
      4691      1564  TIP3      H1            -23.1197666405      -26.1906522861      -24.7897996465  W2        1564            0.0000000000
      4692      1564  TIP3      H2            -21.7403466405      -26.7358622861      -25.0928496465  W2        1564            0.0000000000
      4693      1565  TIP3      OH2           -29.6481466405      -21.6306822861      -28.6298596465  W2        1565            0.0000000000
      4694      1565  TIP3      H1            -29.1209266405      -20.8572422861      -28.8299796465  W2        1565            0.0000000000
      4695      1565  TIP3      H2            -30.5282966405      -21.4057622861      -28.9314596465  W2        1565            0.0000000000
      4696      1566  TIP3      OH2           -33.8933766405      -26.7682722861      -34.0426196465  W2        1566            0.0000000000
      4697      1566  TIP3      H1            -33.2773866405      -26.1415522861      -33.6631396465  W2        1566            0.0000000000
      4698      1566  TIP3      H2            -34.7551166405      -26.4522922861      -33.7709696465  W2        1566            0.0000000000
      4699      1567  TIP3      OH2           -28.2209166405      -23.9676922861      -29.0534296465  W2        1567            0.0000000000
      4700      1567  TIP3      H1            -28.4619166405      -23.0422522861      -29.0118996465  W2        1567            0.0000000000
      4701      1567  TIP3      H2            -28.9615566405      -24.4265622861      -28.6570396465  W2        1567            0.0000000000
      4702      1568  TIP3      OH2           -27.7062566405      -19.8183322861      -22.7383196465  W2        1568            0.0000000000
      4703      1568  TIP3      H1            -27.3437866405      -18.9637722861      -22.9718796465  W2        1568            0.0000000000
      4704      1568  TIP3      H2            -27.1747366405      -20.1101722861      -21.9976896465  W2        1568            0.0000000000
      4705      1569  TIP3      OH2           -29.5378366405      -18.9459322861      -29.5082096465  W2        1569            0.0000000000
      4706      1569  TIP3      H1            -30.4877866405      -18.8401922861      -29.4568796465  W2        1569            0.0000000000
      4707      1569  TIP3      H2            -29.1860266405      -18.1251922861      -29.1634596465  W2        1569            0.0000000000
      4708      1570  TIP3      OH2           -24.1621766405      -23.7192622861      -23.0377596465  W2        1570            0.0000000000
      4709      1570  TIP3      H1            -24.5880466405      -23.9470922861      -22.2113596465  W2        1570            0.0000000000
      4710      1570  TIP3      H2            -23.5815966405      -24.4580822861      -23.2202296465  W2        1570            0.0000000000
      4711      1571  TIP3      OH2           -21.9592866405      -22.7902122861      -33.9638596465  W2        1571            0.0000000000
      4712      1571  TIP3      H1            -21.6059766405      -23.1702322861      -33.1595096465  W2        1571            0.0000000000
      4713      1571  TIP3      H2            -22.9079366405      -22.8837322861      -33.8769296465  W2        1571            0.0000000000
      4714      1572  TIP3      OH2           -21.5037566405      -19.1673122861      -20.5682796465  W2        1572            0.0000000000
      4715      1572  TIP3      H1            -22.1054366405      -19.7230222861      -21.0636496465  W2        1572            0.0000000000
      4716      1572  TIP3      H2            -21.2223866405      -18.5003322861      -21.1945396465  W2        1572            0.0000000000
      4717      1573  TIP3      OH2           -17.4558466405      -18.3109622861      -33.7628396465  W2        1573            0.0000000000
      4718      1573  TIP3      H1            -16.7120566405      -17.7249122861      -33.9026796465  W2        1573            0.0000000000
      4719      1573  TIP3      H2            -18.1500366405      -17.7423822861      -33.4295996465  W2        1573            0.0000000000
      4720      1574  TIP3      OH2           -33.3811666405      -31.9345422861      -21.1610196465  W2        1574            0.0000000000
      4721      1574  TIP3      H1            -34.2739366405      -31.5960022861      -21.2286196465  W2        1574            0.0000000000
      4722      1574  TIP3      H2            -33.4798866405      -32.7899322861      -20.7429396465  W2        1574            0.0000000000
      4723      1575  TIP3      OH2           -21.0933566405      -24.1180122861      -31.7370696465  W2        1575            0.0000000000
      4724      1575  TIP3      H1            -21.3705966405      -24.8460822861      -31.1809596465  W2        1575            0.0000000000
      4725      1575  TIP3      H2            -20.1660566405      -23.9988122861      -31.5318096465  W2        1575            0.0000000000
      4726      1576  TIP3      OH2           -33.7299666405      -20.1301022861      -22.7260796465  W2        1576            0.0000000000
      4727      1576  TIP3      H1            -33.5129366405      -21.0618622861      -22.7571096465  W2        1576            0.0000000000
      4728      1576  TIP3      H2            -33.4836166405      -19.8556022861      -21.8427996465  W2        1576            0.0000000000
      4729      1577  TIP3      OH2           -27.8685066405      -21.6786022861      -35.5168596465  W2        1577            0.0000000000
      4730      1577  TIP3      H1            -27.6295266405      -22.4267922861      -36.0639696465  W2        1577            0.0000000000
      4731      1577  TIP3      H2            -28.1373766405      -22.0664322861      -34.6840796465  W2        1577            0.0000000000
      4732      1578  TIP3      OH2           -28.9314466405      -22.1082222861      -33.0605996465  W2        1578            0.0000000000
      4733      1578  TIP3      H1            -28.7846466405      -22.6282422861      -32.2705096465  W2        1578            0.0000000000
      4734      1578  TIP3      H2            -28.9342766405      -21.2014622861      -32.7540096465  W2        1578            0.0000000000
      4735      1579  TIP3      OH2           -32.4783366405      -24.8558922861      -32.5500596465  W2        1579            0.0000000000
      4736      1579  TIP3      H1            -33.1644066405      -24.5036422861      -31.9830896465  W2        1579            0.0000000000
      4737      1579  TIP3      H2            -31.9555466405      -24.0929322861      -32.7966296465  W2        1579            0.0000000000
      4738      1580  TIP3      OH2           -24.6468266405      -32.1935122861      -22.2711596465  W2        1580            0.0000000000
      4739      1580  TIP3      H1            -23.9480366405      -32.1196422861      -21.6211896465  W2        1580            0.0000000000
      4740      1580  TIP3      H2            -25.0276866405      -33.0580122861      -22.1168696465  W2        1580            0.0000000000
      4741      1581  TIP3      OH2           -23.8623366405      -32.5413422861      -31.1739296465  W2        1581            0.0000000000
      4742      1581  TIP3      H1            -23.6425066405      -32.0698022861      -31.9773896465  W2        1581            0.0000000000
      4743      1581  TIP3      H2            -23.3039366405      -32.1470822861      -30.5038696465  W2        1581            0.0000000000
      4744      1582  TIP3      OH2           -26.1937266405      -20.4108622861      -32.3111796465  W2        1582            0.0000000000
      4745      1582  TIP3      H1            -27.0101166405      -19.9138922861      -32.2587496465  W2        1582            0.0000000000
      4746      1582  TIP3      H2            -25.6640966405      -19.9355122861      -32.9512996465  W2        1582            0.0000000000
      4747      1583  TIP3      OH2           -26.6623466405      -30.8134622861      -30.3390896465  W2        1583            0.0000000000
      4748      1583  TIP3      H1            -25.8500866405      -30.3091422861      -30.2929196465  W2        1583            0.0000000000
      4749      1583  TIP3      H2            -26.9070466405      -30.9584922861      -29.4251296465  W2        1583            0.0000000000
      4750      1584  TIP3      OH2           -26.1267066405      -29.8271922861      -21.1544296465  W2        1584            0.0000000000
      4751      1584  TIP3      H1            -26.0076766405      -29.2536522861      -20.3973896465  W2        1584            0.0000000000
      4752      1584  TIP3      H2            -25.4712466405      -30.5152522861      -21.0396496465  W2        1584            0.0000000000
      4753      1585  TIP3      OH2           -25.7786766405      -33.7321622861      -29.4009796465  W2        1585            0.0000000000
      4754      1585  TIP3      H1            -26.1253266405      -33.1151022861      -28.7565496465  W2        1585            0.0000000000
      4755      1585  TIP3      H2            -25.1199866405      -33.2315922861      -29.8824296465  W2        1585            0.0000000000
      4756      1586  TIP3      OH2           -28.8554166405      -19.3671422861      -32.3294896465  W2        1586            0.0000000000
      4757      1586  TIP3      H1            -28.6945466405      -18.5673922861      -32.8302296465  W2        1586            0.0000000000
      4758      1586  TIP3      H2            -29.0526366405      -19.0605422861      -31.4444296465  W2        1586            0.0000000000
      4759      1587  TIP3      OH2           -30.1209766405      -32.6692222861      -32.7137296465  W2        1587            0.0000000000
      4760      1587  TIP3      H1            -30.2044966405      -31.7809122861      -32.3670896465  W2        1587            0.0000000000
      4761      1587  TIP3      H2            -29.2309466405      -32.9345522861      -32.4820496465  W2        1587            0.0000000000
      4762      1588  TIP3      OH2           -19.9221266405      -31.9201622861      -20.3194596465  W2        1588            0.0000000000
      4763      1588  TIP3      H1            -20.8385466405      -31.6579922861      -20.4070896465  W2        1588            0.0000000000
      4764      1588  TIP3      H2            -19.5866266405      -31.9232622861      -21.2159296465  W2        1588            0.0000000000
      4765      1589  TIP3      OH2           -21.3200266405      -28.1700622861      -26.2237296465  W2        1589            0.0000000000
      4766      1589  TIP3      H1            -22.1175866405      -28.5850422861      -26.5522296465  W2        1589            0.0000000000
      4767      1589  TIP3      H2            -20.8749166405      -28.8606922861      -25.7326796465  W2        1589            0.0000000000
      4768      1590  TIP3      OH2           -31.8624466405      -22.2420022861      -33.6532796465  W2        1590            0.0000000000
      4769      1590  TIP3      H1            -31.2702966405      -21.5425222861      -33.3770396465  W2        1590            0.0000000000
      4770      1590  TIP3      H2            -31.4031466405      -22.6750522861      -34.3728196465  W2        1590            0.0000000000
      4771      1591  TIP3      OH2           -33.5465266405      -29.5777022861      -34.5373396465  W2        1591            0.0000000000
      4772      1591  TIP3      H1            -33.5912666405      -28.6383922861      -34.3586396465  W2        1591            0.0000000000
      4773      1591  TIP3      H2            -34.4342066405      -29.8132122861      -34.8071296465  W2        1591            0.0000000000
      4774      1592  TIP3      OH2           -20.2335666405      -18.9138122861      -24.6013796465  W2        1592            0.0000000000
      4775      1592  TIP3      H1            -20.3891366405      -18.2353722861      -25.2584496465  W2        1592            0.0000000000
      4776      1592  TIP3      H2            -19.3009266405      -18.8418822861      -24.3983196465  W2        1592            0.0000000000
      4777      1593  TIP3      OH2           -32.7383266405      -34.7960422861      -25.8642396465  W2        1593            0.0000000000
      4778      1593  TIP3      H1            -32.9673466405      -34.7367922861      -26.7917396465  W2        1593            0.0000000000
      4779      1593  TIP3      H2            -33.1809866405      -35.5874922861      -25.5578296465  W2        1593            0.0000000000
      4780      1594  TIP3      OH2           -33.8079966405      -20.8553322861      -29.7036596465  W2        1594            0.0000000000
      4781      1594  TIP3      H1            -34.6401366405      -20.3830622861      -29.6765196465  W2        1594            0.0000000000
      4782      1594  TIP3      H2            -33.2621666405      -20.3455722861      -30.3023496465  W2        1594            0.0000000000
      4783      1595  TIP3      OH2           -34.5196266405      -18.2429622861      -18.3738596465  W2        1595            0.0000000000
      4784      1595  TIP3      H1            -33.9794066405      -18.4595622861      -17.6139396465  W2        1595            0.0000000000
      4785      1595  TIP3      H2            -35.0008266405      -19.0483622861      -18.5636096465  W2        1595            0.0000000000
      4786      1596  TIP3      OH2           -29.9222866405      -19.3235222861      -16.7534396465  W2        1596            0.0000000000
      4787      1596  TIP3      H1            -29.1545666405      -19.7824422861      -16.4125196465  W2        1596            0.0000000000
      4788      1596  TIP3      H2            -29.9436666405      -19.5495422861      -17.6833196465  W2        1596            0.0000000000
      4789      1597  TIP3      OH2           -25.8303266405      -19.8154622861      -35.3782596465  W2        1597            0.0000000000
      4790      1597  TIP3      H1            -26.4742266405      -20.4466022861      -35.0568896465  W2        1597            0.0000000000
      4791      1597  TIP3      H2            -25.0684966405      -20.3466622861      -35.6099096465  W2        1597            0.0000000000
      4792      1598  TIP3      OH2           -23.3454166405      -20.9434122861      -18.0242896465  W2        1598            0.0000000000
      4793      1598  TIP3      H1            -23.6964666405      -21.8001122861      -17.7812496465  W2        1598            0.0000000000
      4794      1598  TIP3      H2            -22.6190966405      -20.8007422861      -17.4173896465  W2        1598            0.0000000000
      4795      1599  TIP3      OH2           -21.2260366405      -19.9984722861      -35.1444596465  W2        1599            0.0000000000
      4796      1599  TIP3      H1            -20.9429966405      -20.7929522861      -34.6917696465  W2        1599            0.0000000000
      4797      1599  TIP3      H2            -20.4862466405      -19.7653722861      -35.7053496465  W2        1599            0.0000000000
      4798      1600  TIP3      OH2           -34.6126766405      -24.4325522861      -17.4194296465  W2        1600            0.0000000000
      4799      1600  TIP3      H1            -34.4686266405      -25.3344822861      -17.7057596465  W2        1600            0.0000000000
      4800      1600  TIP3      H2            -35.3849366405      -24.1463422861      -17.9071996465  W2        1600            0.0000000000
      4801      1601  TIP3      OH2           -30.2713066405      -24.0889822861      -35.2869696465  W2        1601            0.0000000000
      4802      1601  TIP3      H1            -30.2068966405      -24.8830222861      -34.7563296465  W2        1601            0.0000000000
      4803      1601  TIP3      H2            -29.6183866405      -24.2077022861      -35.9767696465  W2        1601            0.0000000000
      4804      1602  TIP3      OH2           -27.9570666405      -24.4627422861      -17.9867896465  W2        1602            0.0000000000
      4805      1602  TIP3      H1            -28.2856866405      -24.1919322861      -18.8440496465  W2        1602            0.0000000000
      4806      1602  TIP3      H2            -27.8052466405      -25.4037622861      -18.0742896465  W2        1602            0.0000000000
      4807      1603  TIP3      OH2           -24.9189666405      -23.0418122861      -35.5511696465  W2        1603            0.0000000000
      4808      1603  TIP3      H1            -25.1875566405      -22.8616022861      -34.6502796465  W2        1603            0.0000000000
      4809      1603  TIP3      H2            -25.1254066405      -23.9671922861      -35.6825896465  W2        1603            0.0000000000
      4810      1604  TIP3      OH2           -22.2225466405      -24.5470122861      -20.6035596465  W2        1604            0.0000000000
      4811      1604  TIP3      H1            -21.4770666405      -23.9586422861      -20.7231596465  W2        1604            0.0000000000
      4812      1604  TIP3      H2            -22.9798666405      -23.9650422861      -20.5402496465  W2        1604            0.0000000000
      4813      1605  TIP3      OH2           -33.7800266405      -27.2322222861      -17.9994996465  W2        1605            0.0000000000
      4814      1605  TIP3      H1            -33.3719066405      -28.0895622861      -18.1204396465  W2        1605            0.0000000000
      4815      1605  TIP3      H2            -34.0402666405      -27.2180922861      -17.0784696465  W2        1605            0.0000000000
      4816      1606  TIP3      OH2           -29.1219266405      -26.1163622861      -32.9811696465  W2        1606            0.0000000000
      4817      1606  TIP3      H1            -29.5817266405      -26.6005322861      -32.2953196465  W2        1606            0.0000000000
      4818      1606  TIP3      H2            -28.8670566405      -26.7848222861      -33.6171196465  W2        1606            0.0000000000
      4819      1607  TIP3      OH2           -29.8329966405      -28.2236522861      -20.6252096465  W2        1607            0.0000000000
      4820      1607  TIP3      H1            -30.4513866405      -27.5489922861      -20.3447396465  W2        1607            0.0000000000
      4821      1607  TIP3      H2            -29.4888766405      -27.9022622861      -21.4585896465  W2        1607            0.0000000000
      4822      1608  TIP3      OH2           -28.0508866405      -27.8731822861      -34.7188496465  W2        1608            0.0000000000
      4823      1608  TIP3      H1            -28.2313866405      -28.0280622861      -35.6460196465  W2        1608            0.0000000000
      4824      1608  TIP3      H2            -27.1008366405      -27.7653122861      -34.6740596465  W2        1608            0.0000000000
      4825      1609  TIP3      OH2           -24.8131766405      -25.7521222861      -17.3477296465  W2        1609            0.0000000000
      4826      1609  TIP3      H1            -23.8600566405      -25.6682122861      -17.3751296465  W2        1609            0.0000000000
      4827      1609  TIP3      H2            -24.9737166405      -26.4639422861      -16.7282396465  W2        1609            0.0000000000
      4828      1610  TIP3      OH2           -18.6610566405      -25.5187622861      -35.2730396465  W2        1610            0.0000000000
      4829      1610  TIP3      H1            -18.9345766405      -25.9432122861      -36.0862096465  W2        1610            0.0000000000
      4830      1610  TIP3      H2            -18.6216466405      -24.5873122861      -35.4899996465  W2        1610            0.0000000000
      4831      1611  TIP3      OH2           -29.4936266405      -30.8685722861      -19.5428996465  W2        1611            0.0000000000
      4832      1611  TIP3      H1            -29.3435366405      -31.5974422861      -20.1449296465  W2        1611            0.0000000000
      4833      1611  TIP3      H2            -29.4913866405      -30.0914022861      -20.1016796465  W2        1611            0.0000000000
      4834      1612  TIP3      OH2           -29.0810566405      -32.4989922861      -22.0501596465  W2        1612            0.0000000000
      4835      1612  TIP3      H1            -28.5453066405      -32.0473222861      -22.7022296465  W2        1612            0.0000000000
      4836      1612  TIP3      H2            -29.9330966405      -32.6070122861      -22.4727496465  W2        1612            0.0000000000
      4837      1613  TIP3      OH2           -27.4992166405      -27.0593722861      -21.8106396465  W2        1613            0.0000000000
      4838      1613  TIP3      H1            -26.7487366405      -27.2156222861      -22.3838596465  W2        1613            0.0000000000
      4839      1613  TIP3      H2            -27.8383866405      -26.2077122861      -22.0860896465  W2        1613            0.0000000000
      4840      1614  TIP3      OH2           -23.0835966405      -29.2441922861      -16.7821096465  W2        1614            0.0000000000
      4841      1614  TIP3      H1            -22.8914666405      -30.1752522861      -16.8936596465  W2        1614            0.0000000000
      4842      1614  TIP3      H2            -22.2259666405      -28.8192422861      -16.7925696465  W2        1614            0.0000000000
      4843      1615  TIP3      OH2           -21.7668766405      -26.4556722861      -18.7048396465  W2        1615            0.0000000000
      4844      1615  TIP3      H1            -22.0483766405      -25.7462122861      -19.2824596465  W2        1615            0.0000000000
      4845      1615  TIP3      H2            -20.8244466405      -26.5283722861      -18.8557196465  W2        1615            0.0000000000
      4846      1616  TIP3      OH2           -31.0149966405      -29.6702222861      -17.6313396465  W2        1616            0.0000000000
      4847      1616  TIP3      H1            -31.7820966405      -30.2027422861      -17.8415796465  W2        1616            0.0000000000
      4848      1616  TIP3      H2            -30.3360966405      -29.9801822861      -18.2307096465  W2        1616            0.0000000000
      4849      1617  TIP3      OH2           -28.2755066405      -35.0424222861      -21.6187996465  W2        1617            0.0000000000
      4850      1617  TIP3      H1            -28.3735466405      -34.0961022861      -21.7241796465  W2        1617            0.0000000000
      4851      1617  TIP3      H2            -29.0178866405      -35.4150422861      -22.0944496465  W2        1617            0.0000000000
      4852      1618  TIP3      OH2           -27.0114566405      -30.7208822861      -18.0549596465  W2        1618            0.0000000000
      4853      1618  TIP3      H1            -27.2469166405      -30.9402122861      -17.1534696465  W2        1618            0.0000000000
      4854      1618  TIP3      H2            -27.7947666405      -30.9277622861      -18.5647096465  W2        1618            0.0000000000
      4855      1619  TIP3      OH2           -24.2957966405      -31.5935322861      -18.9796096465  W2        1619            0.0000000000
      4856      1619  TIP3      H1            -25.2432566405      -31.5615622861      -18.8472796465  W2        1619            0.0000000000
      4857      1619  TIP3      H2            -23.9831266405      -32.2188222861      -18.3257896465  W2        1619            0.0000000000
      4858      1620  TIP3      OH2           -22.6616466405      -32.9594222861      -16.9744196465  W2        1620            0.0000000000
      4859      1620  TIP3      H1            -22.7584666405      -33.9116922861      -16.9802296465  W2        1620            0.0000000000
      4860      1620  TIP3      H2            -22.9833366405      -32.6907422861      -16.1138696465  W2        1620            0.0000000000
      4861      1621  TIP3      OH2           -32.8347166405      -31.7498422861      -17.9268696465  W2        1621            0.0000000000
      4862      1621  TIP3      H1            -32.6229766405      -32.4562322861      -18.5371196465  W2        1621            0.0000000000
      4863      1621  TIP3      H2            -32.9459666405      -32.1872422861      -17.0827496465  W2        1621            0.0000000000
      4864      1622  TIP3      OH2           -28.0536966405      -35.7486822861      -18.9475196465  W2        1622            0.0000000000
      4865      1622  TIP3      H1            -27.3418566405      -36.3884622861      -18.9616096465  W2        1622            0.0000000000
      4866      1622  TIP3      H2            -28.1546566405      -35.4818522861      -19.8612096465  W2        1622            0.0000000000
      4867      1623  TIP3      OH2           -27.6999466405      -34.0658422861      -16.8938896465  W2        1623            0.0000000000
      4868      1623  TIP3      H1            -27.8317266405      -34.5414622861      -17.7140396465  W2        1623            0.0000000000
      4869      1623  TIP3      H2            -28.2992066405      -33.3214822861      -16.9491796465  W2        1623            0.0000000000
      4870      1624  TIP3      OH2           -28.1537166405      -17.1828122861      -33.7174896465  W2        1624            0.0000000000
      4871      1624  TIP3      H1            -27.2206466405      -17.0249422861      -33.5736496465  W2        1624            0.0000000000
      4872      1624  TIP3      H2            -28.4178366405      -16.5075122861      -34.3423396465  W2        1624            0.0000000000
      4873      1625  TIP3      OH2           -34.5852266405      -22.5464322861      -34.2346796465  W2        1625            0.0000000000
      4874      1625  TIP3      H1            -33.6713066405      -22.4675422861      -33.9612896465  W2        1625            0.0000000000
      4875      1625  TIP3      H2            -34.5779166405      -23.2334722861      -34.9011196465  W2        1625            0.0000000000
      4876      1626  TIP3      OH2           -35.9361666405      -17.1535822861      -29.1572896465  W2        1626            0.0000000000
      4877      1626  TIP3      H1            -36.5834566405      -17.6154122861      -29.6901696465  W2        1626            0.0000000000
      4878      1626  TIP3      H2            -35.5817066405      -17.8252522861      -28.5746696465  W2        1626            0.0000000000
      4879      1627  TIP3      OH2           -35.0662466405      -19.0728822861      -27.3526696465  W2        1627            0.0000000000
      4880      1627  TIP3      H1            -35.4005666405      -19.9531522861      -27.1806496465  W2        1627            0.0000000000
      4881      1627  TIP3      H2            -34.8440066405      -18.7273822861      -26.4881096465  W2        1627            0.0000000000
      4882      1628  TIP3      OH2           -17.5177666405      -18.2632422861      -24.3721896465  W2        1628            0.0000000000
      4883      1628  TIP3      H1            -17.5390966405      -18.0784022861      -23.4332496465  W2        1628            0.0000000000
      4884      1628  TIP3      H2            -16.8271466405      -17.6948422861      -24.7130496465  W2        1628            0.0000000000
      4885      1629  TIP3      OH2           -17.9544766405      -18.6961322861      -21.4502796465  W2        1629            0.0000000000
      4886      1629  TIP3      H1            -18.4416066405      -19.4317222861      -21.8215396465  W2        1629            0.0000000000
      4887      1629  TIP3      H2            -17.4052066405      -19.0897422861      -20.7723396465  W2        1629            0.0000000000
      4888      1630  TIP3      OH2           -19.5037466405      -22.9063222861      -16.8122496465  W2        1630            0.0000000000
      4889      1630  TIP3      H1            -20.3696366405      -23.0113522861      -16.4180196465  W2        1630            0.0000000000
      4890      1630  TIP3      H2            -19.1271566405      -22.1479922861      -16.3657796465  W2        1630            0.0000000000
      4891      1631  TIP3      OH2           -18.2027766405      -24.6499522861      -31.2979996465  W2        1631            0.0000000000
      4892      1631  TIP3      H1            -17.3526366405      -24.2288622861      -31.1708396465  W2        1631            0.0000000000
      4893      1631  TIP3      H2            -18.1972666405      -25.3899422861      -30.6908596465  W2        1631            0.0000000000
      4894      1632  TIP3      OH2           -17.8082166405      -26.5962122861      -29.4744296465  W2        1632            0.0000000000
      4895      1632  TIP3      H1            -18.5347566405      -27.0759522861      -29.0766696465  W2        1632            0.0000000000
      4896      1632  TIP3      H2            -17.2268866405      -26.3907422861      -28.7422696465  W2        1632            0.0000000000
      4897      1633  TIP3      OH2           -18.0490966405      -23.8114622861      -24.5266696465  W2        1633            0.0000000000
      4898      1633  TIP3      H1            -17.2156766405      -24.1894622861      -24.8073096465  W2        1633            0.0000000000
      4899      1633  TIP3      H2            -17.9370666405      -22.8683422861      -24.6457596465  W2        1633            0.0000000000
      4900      1634  TIP3      OH2           -19.5628666405      -20.9337122861      -22.2198296465  W2        1634            0.0000000000
      4901      1634  TIP3      H1            -20.2103366405      -20.6085622861      -21.5943096465  W2        1634            0.0000000000
      4902      1634  TIP3      H2            -20.0804666405      -21.3739422861      -22.8939996465  W2        1634            0.0000000000
      4903      1635  TIP3      OH2           -17.5399066405      -26.6953622861      -33.0832996465  W2        1635            0.0000000000
      4904      1635  TIP3      H1            -18.0617966405      -26.3389522861      -33.8022096465  W2        1635            0.0000000000
      4905      1635  TIP3      H2            -17.5729866405      -26.0205822861      -32.4052096465  W2        1635            0.0000000000
      4906      1636  TIP3      OH2           -19.1910066405      -29.4558022861      -34.5325896465  W2        1636            0.0000000000
      4907      1636  TIP3      H1            -19.0945666405      -28.7891022861      -35.2126196465  W2        1636            0.0000000000
      4908      1636  TIP3      H2            -19.3310466405      -30.2711722861      -35.0140396465  W2        1636            0.0000000000
      4909      1637  TIP3      OH2           -20.0215366405      -28.0755622861      -28.9115596465  W2        1637            0.0000000000
      4910      1637  TIP3      H1            -20.1716566405      -29.0207022861      -28.9317796465  W2        1637            0.0000000000
      4911      1637  TIP3      H2            -20.3750866405      -27.7944222861      -28.0676496465  W2        1637            0.0000000000
      4912      1638  TIP3      OH2           -34.9862966405      -25.9973422861      -24.9011796465  W2        1638            0.0000000000
      4913      1638  TIP3      H1            -34.8020066405      -26.0791722861      -25.8368896465  W2        1638            0.0000000000
      4914      1638  TIP3      H2            -34.1370066405      -26.1216422861      -24.4775396465  W2        1638            0.0000000000
      4915      1639  TIP3      OH2           -19.1652466405      -26.1052322861      -19.2727296465  W2        1639            0.0000000000
      4916      1639  TIP3      H1            -18.5825166405      -26.8400022861      -19.0810096465  W2        1639            0.0000000000
      4917      1639  TIP3      H2            -18.6013166405      -25.3332022861      -19.2261496465  W2        1639            0.0000000000
      4918      1640  TIP3      OH2           -17.6685366405      -28.2026522861      -18.5881896465  W2        1640            0.0000000000
      4919      1640  TIP3      H1            -18.5318666405      -28.5814422861      -18.7537196465  W2        1640            0.0000000000
      4920      1640  TIP3      H2            -17.0641666405      -28.9411722861      -18.6626096465  W2        1640            0.0000000000
      4921      1641  TIP3      OH2           -19.9436266405      -32.0478222861      -35.4150396465  W2        1641            0.0000000000
      4922      1641  TIP3      H1            -19.3330466405      -32.4191422861      -34.7782196465  W2        1641            0.0000000000
      4923      1641  TIP3      H2            -20.7804766405      -32.4691322861      -35.2190396465  W2        1641            0.0000000000
      4924      1642  TIP3      OH2           -20.3110566405      -30.4929822861      -30.4490496465  W2        1642            0.0000000000
      4925      1642  TIP3      H1            -20.0313466405      -31.3999422861      -30.3248796465  W2        1642            0.0000000000
      4926      1642  TIP3      H2            -19.5518866405      -30.0588322861      -30.8381296465  W2        1642            0.0000000000
      4927      1643  TIP3      OH2           -19.6992266405      -29.9112422861      -25.0131596465  W2        1643            0.0000000000
      4928      1643  TIP3      H1            -18.7664266405      -29.6992522861      -25.0475596465  W2        1643            0.0000000000
      4929      1643  TIP3      H2            -19.9344766405      -29.8100322861      -24.0908596465  W2        1643            0.0000000000
      4930      1644  TIP3      OH2           -19.6700366405      -29.1747122861      -22.2372196465  W2        1644            0.0000000000
      4931      1644  TIP3      H1            -20.5129066405      -28.9066722861      -21.8712396465  W2        1644            0.0000000000
      4932      1644  TIP3      H2            -19.2276066405      -28.3525222861      -22.4481096465  W2        1644            0.0000000000
      4933      1645  TIP3      OH2           -35.3888166405      -30.7268422861      -18.7602996465  W2        1645            0.0000000000
      4934      1645  TIP3      H1            -34.4693266405      -30.8490122861      -18.5239896465  W2        1645            0.0000000000
      4935      1645  TIP3      H2            -35.8383666405      -31.4768722861      -18.3709496465  W2        1645            0.0000000000
      4936      1646  TIP3      OH2           -17.3868766405      -35.1946922861      -16.8837196465  W2        1646            0.0000000000
      4937      1646  TIP3      H1            -17.0371766405      -35.8483422861      -17.4892496465  W2        1646            0.0000000000
      4938      1646  TIP3      H2            -17.2399266405      -34.3572822861      -17.3234596465  W2        1646            0.0000000000
      4939      1647  TIP3      OH2           -19.6975766405      -33.2300522861      -30.4008496465  W2        1647            0.0000000000
      4940      1647  TIP3      H1            -19.5150766405      -33.6789022861      -29.5753496465  W2        1647            0.0000000000
      4941      1647  TIP3      H2            -20.2972866405      -33.8146122861      -30.8643896465  W2        1647            0.0000000000
      4942      1648  TIP3      OH2           -34.1675666405      -32.4146822861      -25.8690096465  W2        1648            0.0000000000
      4943      1648  TIP3      H1            -33.7224066405      -33.2064322861      -25.5670396465  W2        1648            0.0000000000
      4944      1648  TIP3      H2            -33.7012666405      -31.6981622861      -25.4384496465  W2        1648            0.0000000000
      4945      1649  TIP3      OH2           -35.8635366405      -29.4153822861      -24.7999896465  W2        1649            0.0000000000
      4946      1649  TIP3      H1            -35.3715566405      -29.6363322861      -25.5907896465  W2        1649            0.0000000000
      4947      1649  TIP3      H2            -35.5014466405      -28.5750422861      -24.5190396465  W2        1649            0.0000000000
      4948      1650  TIP3      OH2           -17.8671566405      -33.0852322861      -18.5345896465  W2        1650            0.0000000000
      4949      1650  TIP3      H1            -18.7845866405      -32.8145222861      -18.5702396465  W2        1650            0.0000000000
      4950      1650  TIP3      H2            -17.7442166405      -33.6203922861      -19.3186196465  W2        1650            0.0000000000
      4951      1651  TIP3      OH2           -17.8309566405      -33.1622422861      -33.8728196465  W2        1651            0.0000000000
      4952      1651  TIP3      H1            -17.4186966405      -33.8836722861      -34.3480196465  W2        1651            0.0000000000
      4953      1651  TIP3      H2            -17.1493066405      -32.4927822861      -33.8143896465  W2        1651            0.0000000000
      4954      1652  TIP3      OH2           -35.5498866405      -33.1574722861      -30.7457496465  W2        1652            0.0000000000
      4955      1652  TIP3      H1            -36.4750466405      -32.9488122861      -30.8751996465  W2        1652            0.0000000000
      4956      1652  TIP3      H2            -35.0958966405      -32.6733922861      -31.4355196465  W2        1652            0.0000000000
      4957      1653  TIP3      OH2           -20.7791666405      -18.1733022861      -28.8000096465  W2        1653            0.0000000000
      4958      1653  TIP3      H1            -20.1268766405      -18.5210922861      -29.4080996465  W2        1653            0.0000000000
      4959      1653  TIP3      H2            -20.2687866405      -17.6849822861      -28.1540396465  W2        1653            0.0000000000
      4960      1654  TIP3      OH2           -35.5863466405      -34.4195722861      -22.4014996465  W2        1654            0.0000000000
      4961      1654  TIP3      H1            -36.2512966405      -34.6655422861      -21.7584096465  W2        1654            0.0000000000
      4962      1654  TIP3      H2            -36.0292166405      -33.7975322861      -22.9786996465  W2        1654            0.0000000000
      4963      1655  TIP3      OH2           -33.3944166405      -21.2441622861      -18.2569196465  W2        1655            0.0000000000
      4964      1655  TIP3      H1            -34.2151666405      -21.0695122861      -18.7174496465  W2        1655            0.0000000000
      4965      1655  TIP3      H2            -33.6466366405      -21.3176922861      -17.3364796465  W2        1655            0.0000000000
      4966      1656  TIP3      OH2           -30.4401266405      -20.2700422861      -21.9985196465  W2        1656            0.0000000000
      4967      1656  TIP3      H1            -30.8650166405      -19.4601922861      -22.2810596465  W2        1656            0.0000000000
      4968      1656  TIP3      H2            -29.5358466405      -20.1846322861      -22.3005396465  W2        1656            0.0000000000
      4969      1657  TIP3      OH2           -26.1289866405      -18.8710422861      -19.0391496465  W2        1657            0.0000000000
      4970      1657  TIP3      H1            -25.9442366405      -19.2044322861      -18.1611196465  W2        1657            0.0000000000
      4971      1657  TIP3      H2            -25.2825366405      -18.5611822861      -19.3612296465  W2        1657            0.0000000000
      4972      1658  TIP3      OH2           -23.7839466405      -17.5851522861      -19.7950096465  W2        1658            0.0000000000
      4973      1658  TIP3      H1            -23.1070566405      -18.2179222861      -20.0350896465  W2        1658            0.0000000000
      4974      1658  TIP3      H2            -23.4620666405      -17.1841022861      -18.9876796465  W2        1658            0.0000000000
      4975      1659  TIP3      OH2           -18.8665666405      -34.9956022861      -20.7155096465  W2        1659            0.0000000000
      4976      1659  TIP3      H1            -19.6792166405      -34.6705722861      -21.1030396465  W2        1659            0.0000000000
      4977      1659  TIP3      H2            -18.6337166405      -35.7557522861      -21.2485996465  W2        1659            0.0000000000
      4978      1660  TIP3      OH2           -33.0384566405      -17.0136522861      -21.9509896465  W2        1660            0.0000000000
      4979      1660  TIP3      H1            -33.7588166405      -16.5735522861      -22.4022196465  W2        1660            0.0000000000
      4980      1660  TIP3      H2            -33.4040566405      -17.2641822861      -21.1025896465  W2        1660            0.0000000000
      4981      1661  TIP3      OH2           -30.5711966405      -17.4132622861      -22.9212696465  W2        1661            0.0000000000
      4982      1661  TIP3      H1            -31.4359766405      -17.3414122861      -22.5172596465  W2        1661            0.0000000000
      4983      1661  TIP3      H2            -30.6262966405      -16.8665322861      -23.7050196465  W2        1661            0.0000000000
      4984      1662  TIP3      OH2           -25.8606366405      -17.5253722861      -23.7456696465  W2        1662            0.0000000000
      4985      1662  TIP3      H1            -26.3172366405      -16.9964022861      -24.3998296465  W2        1662            0.0000000000
      4986      1662  TIP3      H2            -25.6978366405      -16.9222322861      -23.0204396465  W2        1662            0.0000000000
      4987      1663  TIP3      OH2           -23.5330066405      -18.6474122861      -22.8006396465  W2        1663            0.0000000000
      4988      1663  TIP3      H1            -24.4376366405      -18.4823922861      -23.0664296465  W2        1663            0.0000000000
      4989      1663  TIP3      H2            -23.1041466405      -17.7941922861      -22.8662996465  W2        1663            0.0000000000
      4990      1664  TIP3      OH2           -20.9288166405      -17.0775022861      -22.5058596465  W2        1664            0.0000000000
      4991      1664  TIP3      H1            -21.1106166405      -16.1616122861      -22.7163696465  W2        1664            0.0000000000
      4992      1664  TIP3      H2            -20.7520366405      -17.4877922861      -23.3523996465  W2        1664            0.0000000000
      4993      1665  TIP3      OH2           -33.6236466405      -18.3904022861      -25.0408096465  W2        1665            0.0000000000
      4994      1665  TIP3      H1            -33.6420466405      -18.8158922861      -24.1835796465  W2        1665            0.0000000000
      4995      1665  TIP3      H2            -32.8188566405      -18.7089022861      -25.4495896465  W2        1665            0.0000000000
      4996      1666  TIP3      OH2           -31.4823366405      -19.6805322861      -26.3858196465  W2        1666            0.0000000000
      4997      1666  TIP3      H1            -31.7012666405      -20.5967922861      -26.2162196465  W2        1666            0.0000000000
      4998      1666  TIP3      H2            -30.6581166405      -19.5404922861      -25.9196796465  W2        1666            0.0000000000
      4999      1667  TIP3      OH2           -28.9450866405      -19.2106022861      -25.5370196465  W2        1667            0.0000000000
      5000      1667  TIP3      H1            -28.7325166405      -20.0987022861      -25.8239296465  W2        1667            0.0000000000
      5001      1667  TIP3      H2            -28.8805766405      -19.2448322861      -24.5826196465  W2        1667            0.0000000000
      5002      1668  TIP3      OH2           -25.4367166405      -33.5465422861      -26.3926896465  W2        1668            0.0000000000
      5003      1668  TIP3      H1            -26.1110366405      -34.1759822861      -26.1371096465  W2        1668            0.0000000000
      5004      1668  TIP3      H2            -24.8727966405      -34.0306522861      -26.9958996465  W2        1668            0.0000000000
      5005      1669  TIP3      OH2           -20.2939966405      -35.4391422861      -26.2799796465  W2        1669            0.0000000000
      5006      1669  TIP3      H1            -19.6902366405      -34.8916022861      -26.7818796465  W2        1669            0.0000000000
      5007      1669  TIP3      H2            -21.1637966405      -35.1201022861      -26.5205696465  W2        1669            0.0000000000
      5008      1670  TIP3      OH2           -18.5669566405      -34.3002722861      -27.9468896465  W2        1670            0.0000000000
      5009      1670  TIP3      H1            -17.9552066405      -34.8147022861      -28.4735296465  W2        1670            0.0000000000
      5010      1670  TIP3      H2            -18.1846166405      -33.4230622861      -27.9234496465  W2        1670            0.0000000000
      5011      1671  TIP3      OH2           -33.1099666405      -34.9125122861      -28.5706996465  W2        1671            0.0000000000
      5012      1671  TIP3      H1            -33.8869866405      -35.1470222861      -29.0781096465  W2        1671            0.0000000000
      5013      1671  TIP3      H2            -32.5796066405      -35.7093022861      -28.5618996465  W2        1671            0.0000000000
      5014      1672  TIP3      OH2           -34.2736266405      -35.1147022861      -32.7670896465  W2        1672            0.0000000000
      5015      1672  TIP3      H1            -33.8345566405      -34.5036522861      -33.3587396465  W2        1672            0.0000000000
      5016      1672  TIP3      H2            -34.9073866405      -34.5762922861      -32.2930896465  W2        1672            0.0000000000
      5017      1673  TIP3      OH2           -28.5307066405      -34.9858022861      -28.7573896465  W2        1673            0.0000000000
      5018      1673  TIP3      H1            -27.6563666405      -34.5973722861      -28.7869596465  W2        1673            0.0000000000
      5019      1673  TIP3      H2            -28.6666266405      -35.2010222861      -27.8346696465  W2        1673            0.0000000000
      5020      1674  TIP3      OH2           -22.9738666405      -34.9558222861      -27.1082196465  W2        1674            0.0000000000
      5021      1674  TIP3      H1            -22.8977066405      -34.8606622861      -28.0576196465  W2        1674            0.0000000000
      5022      1674  TIP3      H2            -23.2489466405      -35.8635322861      -26.9793096465  W2        1674            0.0000000000
      5023      1675  TIP3      OH2           -21.6206066405      -34.9300422861      -31.4157196465  W2        1675            0.0000000000
      5024      1675  TIP3      H1            -22.3234966405      -34.3151222861      -31.6255796465  W2        1675            0.0000000000
      5025      1675  TIP3      H2            -22.0654666405      -35.7673722861      -31.2846296465  W2        1675            0.0000000000
      5026      1676  TIP3      OH2           -34.3726766405      -19.1664822861      -31.8695796465  W2        1676            0.0000000000
      5027      1676  TIP3      H1            -35.0576866405      -19.2045922861      -32.5370696465  W2        1676            0.0000000000
      5028      1676  TIP3      H2            -34.3689566405      -18.2537222861      -31.5813696465  W2        1676            0.0000000000
      5029      1677  TIP3      OH2           -32.4127166405      -33.1985522861      -34.3246796465  W2        1677            0.0000000000
      5030      1677  TIP3      H1            -31.9213766405      -33.8283122861      -34.8521296465  W2        1677            0.0000000000
      5031      1677  TIP3      H2            -31.7890866405      -32.9026122861      -33.6615596465  W2        1677            0.0000000000
      5032      1678  TIP3      OH2           -27.3867066405      -32.9054022861      -31.8676296465  W2        1678            0.0000000000
      5033      1678  TIP3      H1            -27.2085766405      -33.5520822861      -31.1847696465  W2        1678            0.0000000000
      5034      1678  TIP3      H2            -27.4400866405      -32.0716322861      -31.4005196465  W2        1678            0.0000000000
      5035      1679  TIP3      OH2           -25.5083266405      -17.9569922861      -33.4719596465  W2        1679            0.0000000000
      5036      1679  TIP3      H1            -24.6423066405      -17.5902522861      -33.6501396465  W2        1679            0.0000000000
      5037      1679  TIP3      H2            -25.7550466405      -18.3961922861      -34.2858796465  W2        1679            0.0000000000
      5038      1680  TIP3      OH2           -18.7993666405      -18.3939622861      -30.7928496465  W2        1680            0.0000000000
      5039      1680  TIP3      H1            -18.9936566405      -19.1417522861      -31.3578896465  W2        1680            0.0000000000
      5040      1680  TIP3      H2            -18.8383566405      -17.6359522861      -31.3760596465  W2        1680            0.0000000000
      5041      1681  TIP3      OH2           -33.1521666405      -34.3983222861      -19.0530796465  W2        1681            0.0000000000
      5042      1681  TIP3      H1            -33.5183466405      -35.1640622861      -18.6106096465  W2        1681            0.0000000000
      5043      1681  TIP3      H2            -32.2393166405      -34.3693022861      -18.7665696465  W2        1681            0.0000000000
      5044      1682  TIP3      OH2           -31.1790866405      -35.0478822861      -17.5173696465  W2        1682            0.0000000000
      5045      1682  TIP3      H1            -30.2807266405      -35.3218622861      -17.7020296465  W2        1682            0.0000000000
      5046      1682  TIP3      H2            -31.5657766405      -35.7902822861      -17.0531096465  W2        1682            0.0000000000
      5047      1683  TIP3      OH2           -32.5545566405      -18.2464022861      -34.8443696465  W2        1683            0.0000000000
      5048      1683  TIP3      H1            -32.8220966405      -17.9601122861      -33.9710596465  W2        1683            0.0000000000
      5049      1683  TIP3      H2            -31.7832966405      -18.7924822861      -34.6921196465  W2        1683            0.0000000000
      5050      1684  TIP3      OH2           -22.7578566405      -35.7153522861      -17.3350896465  W2        1684            0.0000000000
      5051      1684  TIP3      H1            -22.6811366405      -36.1412822861      -16.4813196465  W2        1684            0.0000000000
      5052      1684  TIP3      H2            -21.8641966405      -35.7018822861      -17.6777396465  W2        1684            0.0000000000
      5053      1685  TIP3      OH2           -19.5817466405      -19.6427222861      -18.6426696465  W2        1685            0.0000000000
      5054      1685  TIP3      H1            -20.3635566405      -19.8289222861      -19.1626096465  W2        1685            0.0000000000
      5055      1685  TIP3      H2            -19.6537566405      -18.7132922861      -18.4254196465  W2        1685            0.0000000000
      5056      1686  TIP3      OH2            -5.1757066405      -25.7562822861      -28.6119496465  W2        1686            0.0000000000
      5057      1686  TIP3      H1             -5.0865966405      -24.8124622861      -28.7442396465  W2        1686            0.0000000000
      5058      1686  TIP3      H2             -5.8139466405      -26.0316422861      -29.2700096465  W2        1686            0.0000000000
      5059      1687  TIP3      OH2            -6.2425766405      -26.5012122861      -25.1931296465  W2        1687            0.0000000000
      5060      1687  TIP3      H1             -6.2808266405      -27.1475822861      -24.4881696465  W2        1687            0.0000000000
      5061      1687  TIP3      H2             -6.5649266405      -26.9677722861      -25.9642596465  W2        1687            0.0000000000
      5062      1688  TIP3      OH2           -13.8740766405      -26.8870022861      -23.6001396465  W2        1688            0.0000000000
      5063      1688  TIP3      H1            -13.8328666405      -27.5126722861      -22.8768996465  W2        1688            0.0000000000
      5064      1688  TIP3      H2            -13.1713066405      -26.2631422861      -23.4180996465  W2        1688            0.0000000000
      5065      1689  TIP3      OH2            -2.5365566405      -23.5621722861      -26.8916196465  W2        1689            0.0000000000
      5066      1689  TIP3      H1             -2.9772866405      -24.2825722861      -26.4410596465  W2        1689            0.0000000000
      5067      1689  TIP3      H2             -2.5495866405      -22.8414522861      -26.2618496465  W2        1689            0.0000000000
      5068      1690  TIP3      OH2           -12.9507666405      -22.4371122861      -25.0652296465  W2        1690            0.0000000000
      5069      1690  TIP3      H1            -13.3202466405      -23.2390622861      -25.4347996465  W2        1690            0.0000000000
      5070      1690  TIP3      H2            -12.0096566405      -22.6056222861      -25.0188896465  W2        1690            0.0000000000
      5071      1691  TIP3      OH2           -16.3407166405      -28.7768522861      -29.6723496465  W2        1691            0.0000000000
      5072      1691  TIP3      H1            -16.7883766405      -27.9309822861      -29.6906996465  W2        1691            0.0000000000
      5073      1691  TIP3      H2            -16.9015966405      -29.3564322861      -30.1878396465  W2        1691            0.0000000000
      5074      1692  TIP3      OH2           -15.6301066405      -26.6148922861      -27.5465496465  W2        1692            0.0000000000
      5075      1692  TIP3      H1            -15.4167566405      -27.3847322861      -27.0192496465  W2        1692            0.0000000000
      5076      1692  TIP3      H2            -14.8923466405      -26.5252222861      -28.1497896465  W2        1692            0.0000000000
      5077      1693  TIP3      OH2            -5.4250066405      -18.4580022861      -26.6795796465  W2        1693            0.0000000000
      5078      1693  TIP3      H1             -4.8053666405      -19.1345322861      -26.9526596465  W2        1693            0.0000000000
      5079      1693  TIP3      H2             -5.6332666405      -18.6759222861      -25.7710896465  W2        1693            0.0000000000
      5080      1694  TIP3      OH2            -7.8531366405      -24.0690722861      -24.7870296465  W2        1694            0.0000000000
      5081      1694  TIP3      H1             -7.5493466405      -24.7549322861      -25.3816196465  W2        1694            0.0000000000
      5082      1694  TIP3      H2             -7.1317366405      -23.9502022861      -24.1692296465  W2        1694            0.0000000000
      5083      1695  TIP3      OH2             0.8098433595      -32.4675422861      -23.9264096465  W2        1695            0.0000000000
      5084      1695  TIP3      H1              0.8590633595      -31.8574222861      -23.1904996465  W2        1695            0.0000000000
      5085      1695  TIP3      H2              1.2353533595      -32.0064522861      -24.6492996465  W2        1695            0.0000000000
      5086      1696  TIP3      OH2            -4.7124366405      -29.6748322861      -24.4595496465  W2        1696            0.0000000000
      5087      1696  TIP3      H1             -4.5698466405      -30.6211322861      -24.4393896465  W2        1696            0.0000000000
      5088      1696  TIP3      H2             -4.8185366405      -29.4678522861      -25.3880596465  W2        1696            0.0000000000
      5089      1697  TIP3      OH2           -11.5576066405      -31.5731922861      -27.1870696465  W2        1697            0.0000000000
      5090      1697  TIP3      H1            -11.5144966405      -30.7133422861      -27.6054396465  W2        1697            0.0000000000
      5091      1697  TIP3      H2            -12.0151966405      -32.1257222861      -27.8207496465  W2        1697            0.0000000000
      5092      1698  TIP3      OH2            -3.8353366405      -31.4426322861      -28.7862396465  W2        1698            0.0000000000
      5093      1698  TIP3      H1             -3.1889066405      -31.7713122861      -28.1614796465  W2        1698            0.0000000000
      5094      1698  TIP3      H2             -3.3253966405      -30.9247322861      -29.4090996465  W2        1698            0.0000000000
      5095      1699  TIP3      OH2           -14.9374566405      -29.1766122861      -26.4249296465  W2        1699            0.0000000000
      5096      1699  TIP3      H1            -14.2837966405      -29.7264422861      -25.9929196465  W2        1699            0.0000000000
      5097      1699  TIP3      H2            -14.9135266405      -29.4507122861      -27.3417296465  W2        1699            0.0000000000
      5098      1700  TIP3      OH2            -9.7810066405      -27.6264822861      -27.2097796465  W2        1700            0.0000000000
      5099      1700  TIP3      H1             -9.1649066405      -28.1529422861      -26.7003796465  W2        1700            0.0000000000
      5100      1700  TIP3      H2            -10.3671266405      -28.2666122861      -27.6134196465  W2        1700            0.0000000000
      5101      1701  TIP3      OH2             1.2013033595      -30.9896222861      -21.6904296465  W2        1701            0.0000000000
      5102      1701  TIP3      H1              0.5127633595      -30.3315522861      -21.7857696465  W2        1701            0.0000000000
      5103      1701  TIP3      H2              1.2167633595      -31.1868322861      -20.7538896465  W2        1701            0.0000000000
      5104      1702  TIP3      OH2           -12.7474166405      -32.6553522861      -23.1129896465  W2        1702            0.0000000000
      5105      1702  TIP3      H1            -12.9662466405      -32.1252922861      -23.8793896465  W2        1702            0.0000000000
      5106      1702  TIP3      H2            -13.4153266405      -32.4288022861      -22.4658496465  W2        1702            0.0000000000
      5107      1703  TIP3      OH2            -5.3784366405      -23.1552422861      -29.5690796465  W2        1703            0.0000000000
      5108      1703  TIP3      H1             -5.6739266405      -23.4780122861      -30.4203896465  W2        1703            0.0000000000
      5109      1703  TIP3      H2             -5.7026566405      -22.2555722861      -29.5278196465  W2        1703            0.0000000000
      5110      1704  TIP3      OH2           -10.1782766405      -24.9797822861      -22.8256196465  W2        1704            0.0000000000
      5111      1704  TIP3      H1            -10.9183666405      -24.3816322861      -22.7220996465  W2        1704            0.0000000000
      5112      1704  TIP3      H2             -9.4643266405      -24.4258222861      -23.1412596465  W2        1704            0.0000000000
      5113      1705  TIP3      OH2            -2.0714966405      -32.1517022861      -26.8056496465  W2        1705            0.0000000000
      5114      1705  TIP3      H1             -2.2866966405      -32.9173622861      -26.2730496465  W2        1705            0.0000000000
      5115      1705  TIP3      H2             -1.4157566405      -31.6792422861      -26.2927996465  W2        1705            0.0000000000
      5116      1706  TIP3      OH2           -13.1536866405      -30.7631722861      -25.1607696465  W2        1706            0.0000000000
      5117      1706  TIP3      H1            -12.5400566405      -30.1304122861      -24.7875296465  W2        1706            0.0000000000
      5118      1706  TIP3      H2            -12.6416166405      -31.2356722861      -25.8170796465  W2        1706            0.0000000000
      5119      1707  TIP3      OH2           -11.7708466405      -23.0154822861      -22.0384696465  W2        1707            0.0000000000
      5120      1707  TIP3      H1            -11.7760866405      -22.1361322861      -22.4165396465  W2        1707            0.0000000000
      5121      1707  TIP3      H2            -12.6244366405      -23.0990722861      -21.6134796465  W2        1707            0.0000000000
      5122      1708  TIP3      OH2           -15.6497566405      -23.3446922861      -31.2565396465  W2        1708            0.0000000000
      5123      1708  TIP3      H1            -15.9216666405      -23.1155922861      -32.1452496465  W2        1708            0.0000000000
      5124      1708  TIP3      H2            -15.6041866405      -22.5068122861      -30.7960096465  W2        1708            0.0000000000
      5125      1709  TIP3      OH2            -2.0247866405      -21.7231022861      -24.5436896465  W2        1709            0.0000000000
      5126      1709  TIP3      H1             -2.9664166405      -21.6647122861      -24.3819996465  W2        1709            0.0000000000
      5127      1709  TIP3      H2             -1.7481766405      -20.8170522861      -24.6807196465  W2        1709            0.0000000000
      5128      1710  TIP3      OH2            -1.7240866405      -33.4365722861      -23.1262996465  W2        1710            0.0000000000
      5129      1710  TIP3      H1             -2.4601666405      -32.8258622861      -23.1641696465  W2        1710            0.0000000000
      5130      1710  TIP3      H2             -1.0406866405      -33.0216722861      -23.6526596465  W2        1710            0.0000000000
      5131      1711  TIP3      OH2            -8.7209466405      -35.3498422861      -25.6604996465  W2        1711            0.0000000000
      5132      1711  TIP3      H1             -8.8385266405      -36.2982422861      -25.7146696465  W2        1711            0.0000000000
      5133      1711  TIP3      H2             -9.5759366405      -35.0172322861      -25.3873896465  W2        1711            0.0000000000
      5134      1712  TIP3      OH2            -3.7726666405      -19.9417522861      -27.9185296465  W2        1712            0.0000000000
      5135      1712  TIP3      H1             -3.3474366405      -20.6489622861      -28.4035696465  W2        1712            0.0000000000
      5136      1712  TIP3      H2             -3.4556666405      -19.1404822861      -28.3353096465  W2        1712            0.0000000000
      5137      1713  TIP3      OH2            -2.6130166405      -22.0409022861      -29.4098696465  W2        1713            0.0000000000
      5138      1713  TIP3      H1             -2.8705366405      -22.7308922861      -30.0212796465  W2        1713            0.0000000000
      5139      1713  TIP3      H2             -2.5419366405      -22.4837822861      -28.5642796465  W2        1713            0.0000000000
      5140      1714  TIP3      OH2            -0.9269966405      -23.4742322861      -20.9325196465  W2        1714            0.0000000000
      5141      1714  TIP3      H1             -0.7873666405      -24.0659822861      -21.6718196465  W2        1714            0.0000000000
      5142      1714  TIP3      H2             -0.7597166405      -22.6016422861      -21.2886396465  W2        1714            0.0000000000
      5143      1715  TIP3      OH2            -6.4544566405      -26.5122822861      -31.1599196465  W2        1715            0.0000000000
      5144      1715  TIP3      H1             -7.1659066405      -25.9773122861      -31.5118696465  W2        1715            0.0000000000
      5145      1715  TIP3      H2             -5.7634966405      -26.4570722861      -31.8200296465  W2        1715            0.0000000000
      5146      1716  TIP3      OH2            -6.4005366405      -28.0548522861      -34.1214196465  W2        1716            0.0000000000
      5147      1716  TIP3      H1             -5.6995466405      -28.0321622861      -33.4700196465  W2        1716            0.0000000000
      5148      1716  TIP3      H2             -6.0982466405      -28.6828822861      -34.7774896465  W2        1716            0.0000000000
      5149      1717  TIP3      OH2             0.9149333595      -27.1344322861      -22.8664796465  W2        1717            0.0000000000
      5150      1717  TIP3      H1              0.2623433595      -26.4398722861      -22.7773896465  W2        1717            0.0000000000
      5151      1717  TIP3      H2              1.3799633595      -26.9243422861      -23.6763196465  W2        1717            0.0000000000
      5152      1718  TIP3      OH2            -3.0486866405      -26.3029522861      -30.2083296465  W2        1718            0.0000000000
      5153      1718  TIP3      H1             -3.7805866405      -26.0745822861      -29.6352696465  W2        1718            0.0000000000
      5154      1718  TIP3      H2             -2.6014666405      -27.0166822861      -29.7535796465  W2        1718            0.0000000000
      5155      1719  TIP3      OH2            -3.1513366405      -28.1286922861      -21.1406296465  W2        1719            0.0000000000
      5156      1719  TIP3      H1             -3.0714266405      -27.3652522861      -20.5687796465  W2        1719            0.0000000000
      5157      1719  TIP3      H2             -3.7525666405      -27.8494522861      -21.8311196465  W2        1719            0.0000000000
      5158      1720  TIP3      OH2           -11.4033166405      -25.6723322861      -28.3258296465  W2        1720            0.0000000000
      5159      1720  TIP3      H1            -11.7337966405      -26.0429922861      -29.1441296465  W2        1720            0.0000000000
      5160      1720  TIP3      H2            -10.8149066405      -26.3429322861      -27.9789996465  W2        1720            0.0000000000
      5161      1721  TIP3      OH2           -10.0365666405      -22.2442722861      -25.6446096465  W2        1721            0.0000000000
      5162      1721  TIP3      H1            -10.1314366405      -22.8229622861      -26.4011496465  W2        1721            0.0000000000
      5163      1721  TIP3      H2             -9.3072066405      -22.6157022861      -25.1483296465  W2        1721            0.0000000000
      5164      1722  TIP3      OH2           -11.0367666405      -26.9037722861      -24.6923296465  W2        1722            0.0000000000
      5165      1722  TIP3      H1            -10.4715166405      -26.7823522861      -25.4552096465  W2        1722            0.0000000000
      5166      1722  TIP3      H2            -10.7178766405      -26.2662722861      -24.0534796465  W2        1722            0.0000000000
      5167      1723  TIP3      OH2            -4.7275466405      -21.4005822861      -23.9582796465  W2        1723            0.0000000000
      5168      1723  TIP3      H1             -4.9678866405      -20.7382722861      -23.3103596465  W2        1723            0.0000000000
      5169      1723  TIP3      H2             -4.9257266405      -22.2350622861      -23.5333196465  W2        1723            0.0000000000
      5170      1724  TIP3      OH2           -10.1566966405      -22.5045022861      -19.9751396465  W2        1724            0.0000000000
      5171      1724  TIP3      H1            -10.4679466405      -21.7221822861      -19.5198196465  W2        1724            0.0000000000
      5172      1724  TIP3      H2            -10.8066766405      -22.6575922861      -20.6609396465  W2        1724            0.0000000000
      5173      1725  TIP3      OH2            -4.1777366405      -27.1406622861      -32.5232096465  W2        1725            0.0000000000
      5174      1725  TIP3      H1             -3.5981866405      -26.9906322861      -31.7763196465  W2        1725            0.0000000000
      5175      1725  TIP3      H2             -3.7637366405      -26.6699222861      -33.2465696465  W2        1725            0.0000000000
      5176      1726  TIP3      OH2           -13.2367066405      -26.3063922861      -20.7465696465  W2        1726            0.0000000000
      5177      1726  TIP3      H1            -13.1663866405      -25.6557122861      -20.0480696465  W2        1726            0.0000000000
      5178      1726  TIP3      H2            -14.1274866405      -26.2036422861      -21.0814796465  W2        1726            0.0000000000
      5179      1727  TIP3      OH2            -6.4512466405      -20.4038122861      -29.0878996465  W2        1727            0.0000000000
      5180      1727  TIP3      H1             -5.9774866405      -20.1081822861      -28.3104796465  W2        1727            0.0000000000
      5181      1727  TIP3      H2             -7.0143166405      -19.6656522861      -29.3209396465  W2        1727            0.0000000000
      5182      1728  TIP3      OH2           -11.9171066405      -20.4330022861      -19.2117596465  W2        1728            0.0000000000
      5183      1728  TIP3      H1            -11.9095766405      -20.5690322861      -20.1592096465  W2        1728            0.0000000000
      5184      1728  TIP3      H2            -12.8330666405      -20.5501922861      -18.9597596465  W2        1728            0.0000000000
      5185      1729  TIP3      OH2            -0.4788966405      -35.3906222861      -32.7102396465  W2        1729            0.0000000000
      5186      1729  TIP3      H1             -1.3788266405      -35.2517222861      -32.4151796465  W2        1729            0.0000000000
      5187      1729  TIP3      H2             -0.2270566405      -34.5591622861      -33.1120696465  W2        1729            0.0000000000
      5188      1730  TIP3      OH2           -12.4130466405      -26.6029022861      -30.7365496465  W2        1730            0.0000000000
      5189      1730  TIP3      H1            -12.7049166405      -25.8347322861      -31.2274196465  W2        1730            0.0000000000
      5190      1730  TIP3      H2            -13.0875266405      -27.2622822861      -30.8994096465  W2        1730            0.0000000000
      5191      1731  TIP3      OH2             0.7102433595      -21.0243822861      -34.3338496465  W2        1731            0.0000000000
      5192      1731  TIP3      H1              0.7835933595      -20.0853622861      -34.1633196465  W2        1731            0.0000000000
      5193      1731  TIP3      H2              1.6157533595      -21.3295222861      -34.3901196465  W2        1731            0.0000000000
      5194      1732  TIP3      OH2           -16.3200366405      -24.2399822861      -21.9215696465  W2        1732            0.0000000000
      5195      1732  TIP3      H1            -16.8211966405      -24.2680422861      -22.7365996465  W2        1732            0.0000000000
      5196      1732  TIP3      H2            -16.3146666405      -25.1456622861      -21.6118396465  W2        1732            0.0000000000
      5197      1733  TIP3      OH2           -16.5697666405      -21.4596022861      -25.0375496465  W2        1733            0.0000000000
      5198      1733  TIP3      H1            -15.6237066405      -21.6039022861      -25.0565996465  W2        1733            0.0000000000
      5199      1733  TIP3      H2            -16.6821366405      -20.6753222861      -24.5004296465  W2        1733            0.0000000000
      5200      1734  TIP3      OH2             1.6280833595      -20.7936322861      -19.3551796465  W2        1734            0.0000000000
      5201      1734  TIP3      H1              1.5787633595      -21.7488222861      -19.3924196465  W2        1734            0.0000000000
      5202      1734  TIP3      H2              0.8013133595      -20.5261022861      -18.9537996465  W2        1734            0.0000000000
      5203      1735  TIP3      OH2            -7.3935166405      -21.2197122861      -20.4790396465  W2        1735            0.0000000000
      5204      1735  TIP3      H1             -7.3060566405      -20.3932522861      -20.0041296465  W2        1735            0.0000000000
      5205      1735  TIP3      H2             -8.2570066405      -21.5493322861      -20.2301096465  W2        1735            0.0000000000
      5206      1736  TIP3      OH2            -6.9789366405      -17.4473422861      -30.6729796465  W2        1736            0.0000000000
      5207      1736  TIP3      H1             -7.0543366405      -17.5686222861      -31.6194596465  W2        1736            0.0000000000
      5208      1736  TIP3      H2             -6.9460666405      -16.4980722861      -30.5545196465  W2        1736            0.0000000000
      5209      1737  TIP3      OH2           -13.3255566405      -18.6586422861      -28.8920796465  W2        1737            0.0000000000
      5210      1737  TIP3      H1            -13.1735166405      -19.0066022861      -28.0134296465  W2        1737            0.0000000000
      5211      1737  TIP3      H2            -14.1765166405      -19.0149122861      -29.1473596465  W2        1737            0.0000000000
      5212      1738  TIP3      OH2            -3.8773366405      -18.2933222861      -33.6707396465  W2        1738            0.0000000000
      5213      1738  TIP3      H1             -3.5024966405      -19.0377122861      -34.1414796465  W2        1738            0.0000000000
      5214      1738  TIP3      H2             -3.8729666405      -18.5632622861      -32.7524096465  W2        1738            0.0000000000
      5215      1739  TIP3      OH2            -4.2085266405      -18.3676122861      -30.9215196465  W2        1739            0.0000000000
      5216      1739  TIP3      H1             -5.1435466405      -18.2674222861      -30.7428196465  W2        1739            0.0000000000
      5217      1739  TIP3      H2             -3.9283366405      -19.0770122861      -30.3431996465  W2        1739            0.0000000000
      5218      1740  TIP3      OH2            -1.2199366405      -29.3003822861      -18.8749596465  W2        1740            0.0000000000
      5219      1740  TIP3      H1             -1.6272566405      -28.8198222861      -19.5956296465  W2        1740            0.0000000000
      5220      1740  TIP3      H2             -1.1793666405      -30.2057822861      -19.1828796465  W2        1740            0.0000000000
      5221      1741  TIP3      OH2           -14.0709866405      -22.9164422861      -20.8782896465  W2        1741            0.0000000000
      5222      1741  TIP3      H1            -13.8548566405      -23.2778822861      -20.0187096465  W2        1741            0.0000000000
      5223      1741  TIP3      H2            -14.9265166405      -23.2910622861      -21.0879396465  W2        1741            0.0000000000
      5224      1742  TIP3      OH2           -11.4521866405      -34.4463922861      -24.8828696465  W2        1742            0.0000000000
      5225      1742  TIP3      H1            -12.3138166405      -34.5335722861      -25.2905796465  W2        1742            0.0000000000
      5226      1742  TIP3      H2            -11.4746166405      -33.5903822861      -24.4551096465  W2        1742            0.0000000000
      5227      1743  TIP3      OH2            -6.7894066405      -34.7243522861      -21.5081696465  W2        1743            0.0000000000
      5228      1743  TIP3      H1             -6.3690966405      -35.1396422861      -20.7551096465  W2        1743            0.0000000000
      5229      1743  TIP3      H2             -7.7224466405      -34.9030222861      -21.3909696465  W2        1743            0.0000000000
      5230      1744  TIP3      OH2            -3.4629166405      -30.9688322861      -20.6547196465  W2        1744            0.0000000000
      5231      1744  TIP3      H1             -3.9769666405      -31.0946122861      -19.8571196465  W2        1744            0.0000000000
      5232      1744  TIP3      H2             -3.6184466405      -30.0565222861      -20.8990996465  W2        1744            0.0000000000
      5233      1745  TIP3      OH2            -2.7004266405      -26.1078322861      -34.8934196465  W2        1745            0.0000000000
      5234      1745  TIP3      H1             -2.6583466405      -26.3304422861      -35.8234196465  W2        1745            0.0000000000
      5235      1745  TIP3      H2             -1.8512166405      -25.7091222861      -34.7034296465  W2        1745            0.0000000000
      5236      1746  TIP3      OH2            -7.1276766405      -32.2320122861      -34.2230896465  W2        1746            0.0000000000
      5237      1746  TIP3      H1             -7.3811966405      -32.2128522861      -33.3002796465  W2        1746            0.0000000000
      5238      1746  TIP3      H2             -7.3844666405      -33.1034722861      -34.5244696465  W2        1746            0.0000000000
      5239      1747  TIP3      OH2           -11.3611766405      -29.4809422861      -23.7878496465  W2        1747            0.0000000000
      5240      1747  TIP3      H1            -12.0029666405      -29.5212122861      -23.0788396465  W2        1747            0.0000000000
      5241      1747  TIP3      H2            -11.3239766405      -28.5544722861      -24.0255496465  W2        1747            0.0000000000
      5242      1748  TIP3      OH2           -11.3642666405      -29.2599322861      -28.8758496465  W2        1748            0.0000000000
      5243      1748  TIP3      H1            -12.2569766405      -29.6003222861      -28.9344696465  W2        1748            0.0000000000
      5244      1748  TIP3      H2            -10.9136066405      -29.6368422861      -29.6315296465  W2        1748            0.0000000000
      5245      1749  TIP3      OH2            -5.8287166405      -28.8439022861      -30.0587696465  W2        1749            0.0000000000
      5246      1749  TIP3      H1             -6.2376866405      -28.0290422861      -30.3502896465  W2        1749            0.0000000000
      5247      1749  TIP3      H2             -5.1080966405      -28.9838922861      -30.6730596465  W2        1749            0.0000000000
      5248      1750  TIP3      OH2            -6.7265566405      -28.6682622861      -18.5706996465  W2        1750            0.0000000000
      5249      1750  TIP3      H1             -7.2891766405      -29.3731022861      -18.2499196465  W2        1750            0.0000000000
      5250      1750  TIP3      H2             -5.9002166405      -28.7890722861      -18.1029396465  W2        1750            0.0000000000
      5251      1751  TIP3      OH2            -4.8239466405      -29.3978622861      -27.2447996465  W2        1751            0.0000000000
      5252      1751  TIP3      H1             -5.0194966405      -28.7921822861      -27.9597396465  W2        1751            0.0000000000
      5253      1751  TIP3      H2             -4.6426866405      -30.2313422861      -27.6791696465  W2        1751            0.0000000000
      5254      1752  TIP3      OH2           -13.6111266405      -29.1605922861      -21.9206496465  W2        1752            0.0000000000
      5255      1752  TIP3      H1            -13.6491866405      -28.7604322861      -21.0519396465  W2        1752            0.0000000000
      5256      1752  TIP3      H2            -14.1020166405      -29.9773522861      -21.8303596465  W2        1752            0.0000000000
      5257      1753  TIP3      OH2           -10.2453866405      -31.7863622861      -35.1220496465  W2        1753            0.0000000000
      5258      1753  TIP3      H1            -10.6763166405      -32.2313522861      -34.3923096465  W2        1753            0.0000000000
      5259      1753  TIP3      H2            -10.9635166405      -31.4147322861      -35.6342996465  W2        1753            0.0000000000
      5260      1754  TIP3      OH2           -17.0030466405      -32.0444122861      -28.0701796465  W2        1754            0.0000000000
      5261      1754  TIP3      H1            -16.3722766405      -32.0732022861      -27.3507896465  W2        1754            0.0000000000
      5262      1754  TIP3      H2            -16.5536166405      -32.4695422861      -28.8005896465  W2        1754            0.0000000000
      5263      1755  TIP3      OH2           -15.7288366405      -31.2982122861      -32.6461396465  W2        1755            0.0000000000
      5264      1755  TIP3      H1            -15.2546666405      -30.7072222861      -33.2310496465  W2        1755            0.0000000000
      5265      1755  TIP3      H2            -16.4461966405      -30.7679222861      -32.2991296465  W2        1755            0.0000000000
      5266      1756  TIP3      OH2            -5.5600266405      -27.7597322861      -22.5735596465  W2        1756            0.0000000000
      5267      1756  TIP3      H1             -5.2365466405      -28.3907622861      -23.2165096465  W2        1756            0.0000000000
      5268      1756  TIP3      H2             -6.0000966405      -28.2945122861      -21.9128196465  W2        1756            0.0000000000
      5269      1757  TIP3      OH2            -8.7827366405      -31.8321822861      -27.7894396465  W2        1757            0.0000000000
      5270      1757  TIP3      H1             -9.6936266405      -31.7755022861      -27.5008396465  W2        1757            0.0000000000
      5271      1757  TIP3      H2             -8.2774466405      -31.8926322861      -26.9787196465  W2        1757            0.0000000000
      5272      1758  TIP3      OH2           -13.9543966405      -30.2035522861      -28.9626796465  W2        1758            0.0000000000
      5273      1758  TIP3      H1            -14.8435966405      -30.1040022861      -29.3027196465  W2        1758            0.0000000000
      5274      1758  TIP3      H2            -13.6579066405      -31.0452522861      -29.3088896465  W2        1758            0.0000000000
      5275      1759  TIP3      OH2           -10.3012166405      -30.2032922861      -31.3062196465  W2        1759            0.0000000000
      5276      1759  TIP3      H1             -9.3696666405      -30.0742922861      -31.1279096465  W2        1759            0.0000000000
      5277      1759  TIP3      H2            -10.5161866405      -29.5338622861      -31.9557496465  W2        1759            0.0000000000
      5278      1760  TIP3      OH2            -4.3775466405      -32.5975522861      -24.5252596465  W2        1760            0.0000000000
      5279      1760  TIP3      H1             -5.0543866405      -32.4662422861      -23.8612896465  W2        1760            0.0000000000
      5280      1760  TIP3      H2             -4.8630566405      -32.7526022861      -25.3354896465  W2        1760            0.0000000000
      5281      1761  TIP3      OH2           -11.6271966405      -29.0090722861      -33.7396096465  W2        1761            0.0000000000
      5282      1761  TIP3      H1            -12.1696866405      -29.3886922861      -34.4308496465  W2        1761            0.0000000000
      5283      1761  TIP3      H2            -10.7937066405      -28.8146022861      -34.1681996465  W2        1761            0.0000000000
      5284      1762  TIP3      OH2            -1.0900366405      -16.9260122861      -18.2484996465  W2        1762            0.0000000000
      5285      1762  TIP3      H1             -0.8901666405      -16.5018222861      -19.0829696465  W2        1762            0.0000000000
      5286      1762  TIP3      H2             -0.4346666405      -16.5821922861      -17.6414596465  W2        1762            0.0000000000
      5287      1763  TIP3      OH2           -13.4920566405      -24.4518822861      -18.6404496465  W2        1763            0.0000000000
      5288      1763  TIP3      H1            -12.7598166405      -24.1972922861      -18.0789996465  W2        1763            0.0000000000
      5289      1763  TIP3      H2            -14.2721866405      -24.2473422861      -18.1249096465  W2        1763            0.0000000000
      5290      1764  TIP3      OH2            -7.4627666405      -29.0448822861      -25.9024796465  W2        1764            0.0000000000
      5291      1764  TIP3      H1             -6.8984266405      -29.5912222861      -26.4495196465  W2        1764            0.0000000000
      5292      1764  TIP3      H2             -7.6104266405      -29.5666922861      -25.1137196465  W2        1764            0.0000000000
      5293      1765  TIP3      OH2           -12.4607966405      -32.9082722861      -29.4839996465  W2        1765            0.0000000000
      5294      1765  TIP3      H1            -12.7778466405      -33.8107422861      -29.5194596465  W2        1765            0.0000000000
      5295      1765  TIP3      H2            -11.6793866405      -32.9065322861      -30.0368396465  W2        1765            0.0000000000
      5296      1766  TIP3      OH2            -8.8361766405      -30.6562722861      -23.4884396465  W2        1766            0.0000000000
      5297      1766  TIP3      H1             -9.6716466405      -30.2023222861      -23.3781996465  W2        1766            0.0000000000
      5298      1766  TIP3      H2             -8.3121166405      -30.3804222861      -22.7364496465  W2        1766            0.0000000000
      5299      1767  TIP3      OH2            -8.2919166405      -24.4435022861      -31.8037996465  W2        1767            0.0000000000
      5300      1767  TIP3      H1             -9.0368166405      -24.9509722861      -32.1260096465  W2        1767            0.0000000000
      5301      1767  TIP3      H2             -8.4261966405      -24.3947022861      -30.8573196465  W2        1767            0.0000000000
      5302      1768  TIP3      OH2            -1.1420266405      -25.3106822861      -23.0170396465  W2        1768            0.0000000000
      5303      1768  TIP3      H1             -0.5001466405      -24.8540522861      -23.5608196465  W2        1768            0.0000000000
      5304      1768  TIP3      H2             -1.9723366405      -25.1974422861      -23.4796296465  W2        1768            0.0000000000
      5305      1769  TIP3      OH2            -4.3942366405      -31.6295122861      -33.6045396465  W2        1769            0.0000000000
      5306      1769  TIP3      H1             -5.3328166405      -31.5179522861      -33.7556596465  W2        1769            0.0000000000
      5307      1769  TIP3      H2             -4.0970266405      -30.7728222861      -33.2979696465  W2        1769            0.0000000000
      5308      1770  TIP3      OH2            -6.7727066405      -24.2591722861      -20.5668896465  W2        1770            0.0000000000
      5309      1770  TIP3      H1             -7.1180966405      -24.6409322861      -19.7599296465  W2        1770            0.0000000000
      5310      1770  TIP3      H2             -6.9726966405      -23.3258122861      -20.4955996465  W2        1770            0.0000000000
      5311      1771  TIP3      OH2            -3.6758866405      -29.7622422861      -31.9437996465  W2        1771            0.0000000000
      5312      1771  TIP3      H1             -2.7839866405      -29.8997422861      -31.6246796465  W2        1771            0.0000000000
      5313      1771  TIP3      H2             -3.6195266405      -28.9716322861      -32.4804496465  W2        1771            0.0000000000
      5314      1772  TIP3      OH2           -13.1670866405      -25.1485022861      -26.0340096465  W2        1772            0.0000000000
      5315      1772  TIP3      H1            -12.4223666405      -25.1509322861      -26.6353596465  W2        1772            0.0000000000
      5316      1772  TIP3      H2            -13.0894266405      -25.9721222861      -25.5524996465  W2        1772            0.0000000000
      5317      1773  TIP3      OH2            -6.1665066405      -22.9850722861      -32.7783396465  W2        1773            0.0000000000
      5318      1773  TIP3      H1             -6.4616666405      -22.1582822861      -32.3968596465  W2        1773            0.0000000000
      5319      1773  TIP3      H2             -6.8695066405      -23.6043822861      -32.5821996465  W2        1773            0.0000000000
      5320      1774  TIP3      OH2           -16.1591166405      -26.6878122861      -20.7191596465  W2        1774            0.0000000000
      5321      1774  TIP3      H1            -15.9362566405      -27.1058522861      -19.8874096465  W2        1774            0.0000000000
      5322      1774  TIP3      H2            -16.7611066405      -27.3003122861      -21.1418796465  W2        1774            0.0000000000
      5323      1775  TIP3      OH2            -9.1426266405      -27.1708222861      -18.5061896465  W2        1775            0.0000000000
      5324      1775  TIP3      H1             -9.4385466405      -27.3365222861      -19.4012796465  W2        1775            0.0000000000
      5325      1775  TIP3      H2             -8.2111066405      -27.3907922861      -18.5167996465  W2        1775            0.0000000000
      5326      1776  TIP3      OH2            -4.5223466405      -21.7976222861      -20.6163896465  W2        1776            0.0000000000
      5327      1776  TIP3      H1             -5.4229166405      -21.6143622861      -20.8839996465  W2        1776            0.0000000000
      5328      1776  TIP3      H2             -4.4882366405      -21.5386922861      -19.6955096465  W2        1776            0.0000000000
      5329      1777  TIP3      OH2             1.2089833595      -29.5528322861      -32.2491296465  W2        1777            0.0000000000
      5330      1777  TIP3      H1              0.6546133595      -29.9490322861      -32.9213796465  W2        1777            0.0000000000
      5331      1777  TIP3      H2              1.3093433595      -28.6423122861      -32.5267996465  W2        1777            0.0000000000
      5332      1778  TIP3      OH2             1.1721833595      -23.7526622861      -19.4119796465  W2        1778            0.0000000000
      5333      1778  TIP3      H1              0.3210333595      -23.5142822861      -19.7793396465  W2        1778            0.0000000000
      5334      1778  TIP3      H2              1.7625233595      -23.7693422861      -20.1652696465  W2        1778            0.0000000000
      5335      1779  TIP3      OH2            -0.4958466405      -20.7667922861      -31.7839196465  W2        1779            0.0000000000
      5336      1779  TIP3      H1             -0.8687366405      -21.5924122861      -31.4748596465  W2        1779            0.0000000000
      5337      1779  TIP3      H2             -0.2184966405      -20.9498522861      -32.6815796465  W2        1779            0.0000000000
      5338      1780  TIP3      OH2            -3.3354566405      -25.9588422861      -24.7627296465  W2        1780            0.0000000000
      5339      1780  TIP3      H1             -4.2637666405      -26.1906522861      -24.7897996465  W2        1780            0.0000000000
      5340      1780  TIP3      H2             -2.8843466405      -26.7358622861      -25.0928496465  W2        1780            0.0000000000
      5341      1781  TIP3      OH2           -10.7921466405      -21.6306822861      -28.6298596465  W2        1781            0.0000000000
      5342      1781  TIP3      H1            -10.2649266405      -20.8572422861      -28.8299796465  W2        1781            0.0000000000
      5343      1781  TIP3      H2            -11.6722966405      -21.4057622861      -28.9314596465  W2        1781            0.0000000000
      5344      1782  TIP3      OH2           -15.0373766405      -26.7682722861      -34.0426196465  W2        1782            0.0000000000
      5345      1782  TIP3      H1            -14.4213866405      -26.1415522861      -33.6631396465  W2        1782            0.0000000000
      5346      1782  TIP3      H2            -15.8991166405      -26.4522922861      -33.7709696465  W2        1782            0.0000000000
      5347      1783  TIP3      OH2            -9.3649166405      -23.9676922861      -29.0534296465  W2        1783            0.0000000000
      5348      1783  TIP3      H1             -9.6059166405      -23.0422522861      -29.0118996465  W2        1783            0.0000000000
      5349      1783  TIP3      H2            -10.1055566405      -24.4265622861      -28.6570396465  W2        1783            0.0000000000
      5350      1784  TIP3      OH2            -8.8502566405      -19.8183322861      -22.7383196465  W2        1784            0.0000000000
      5351      1784  TIP3      H1             -8.4877866405      -18.9637722861      -22.9718796465  W2        1784            0.0000000000
      5352      1784  TIP3      H2             -8.3187366405      -20.1101722861      -21.9976896465  W2        1784            0.0000000000
      5353      1785  TIP3      OH2           -10.6818366405      -18.9459322861      -29.5082096465  W2        1785            0.0000000000
      5354      1785  TIP3      H1            -11.6317866405      -18.8401922861      -29.4568796465  W2        1785            0.0000000000
      5355      1785  TIP3      H2            -10.3300266405      -18.1251922861      -29.1634596465  W2        1785            0.0000000000
      5356      1786  TIP3      OH2            -5.3061766405      -23.7192622861      -23.0377596465  W2        1786            0.0000000000
      5357      1786  TIP3      H1             -5.7320466405      -23.9470922861      -22.2113596465  W2        1786            0.0000000000
      5358      1786  TIP3      H2             -4.7255966405      -24.4580822861      -23.2202296465  W2        1786            0.0000000000
      5359      1787  TIP3      OH2            -3.1032866405      -22.7902122861      -33.9638596465  W2        1787            0.0000000000
      5360      1787  TIP3      H1             -2.7499766405      -23.1702322861      -33.1595096465  W2        1787            0.0000000000
      5361      1787  TIP3      H2             -4.0519366405      -22.8837322861      -33.8769296465  W2        1787            0.0000000000
      5362      1788  TIP3      OH2            -2.6477566405      -19.1673122861      -20.5682796465  W2        1788            0.0000000000
      5363      1788  TIP3      H1             -3.2494366405      -19.7230222861      -21.0636496465  W2        1788            0.0000000000
      5364      1788  TIP3      H2             -2.3663866405      -18.5003322861      -21.1945396465  W2        1788            0.0000000000
      5365      1789  TIP3      OH2             1.4001533595      -18.3109622861      -33.7628396465  W2        1789            0.0000000000
      5366      1789  TIP3      H1              2.1439433595      -17.7249122861      -33.9026796465  W2        1789            0.0000000000
      5367      1789  TIP3      H2              0.7059633595      -17.7423822861      -33.4295996465  W2        1789            0.0000000000
      5368      1790  TIP3      OH2           -14.5251666405      -31.9345422861      -21.1610196465  W2        1790            0.0000000000
      5369      1790  TIP3      H1            -15.4179366405      -31.5960022861      -21.2286196465  W2        1790            0.0000000000
      5370      1790  TIP3      H2            -14.6238866405      -32.7899322861      -20.7429396465  W2        1790            0.0000000000
      5371      1791  TIP3      OH2            -2.2373566405      -24.1180122861      -31.7370696465  W2        1791            0.0000000000
      5372      1791  TIP3      H1             -2.5145966405      -24.8460822861      -31.1809596465  W2        1791            0.0000000000
      5373      1791  TIP3      H2             -1.3100566405      -23.9988122861      -31.5318096465  W2        1791            0.0000000000
      5374      1792  TIP3      OH2           -14.8739666405      -20.1301022861      -22.7260796465  W2        1792            0.0000000000
      5375      1792  TIP3      H1            -14.6569366405      -21.0618622861      -22.7571096465  W2        1792            0.0000000000
      5376      1792  TIP3      H2            -14.6276166405      -19.8556022861      -21.8427996465  W2        1792            0.0000000000
      5377      1793  TIP3      OH2            -9.0125066405      -21.6786022861      -35.5168596465  W2        1793            0.0000000000
      5378      1793  TIP3      H1             -8.7735266405      -22.4267922861      -36.0639696465  W2        1793            0.0000000000
      5379      1793  TIP3      H2             -9.2813766405      -22.0664322861      -34.6840796465  W2        1793            0.0000000000
      5380      1794  TIP3      OH2           -10.0754466405      -22.1082222861      -33.0605996465  W2        1794            0.0000000000
      5381      1794  TIP3      H1             -9.9286466405      -22.6282422861      -32.2705096465  W2        1794            0.0000000000
      5382      1794  TIP3      H2            -10.0782766405      -21.2014622861      -32.7540096465  W2        1794            0.0000000000
      5383      1795  TIP3      OH2           -13.6223366405      -24.8558922861      -32.5500596465  W2        1795            0.0000000000
      5384      1795  TIP3      H1            -14.3084066405      -24.5036422861      -31.9830896465  W2        1795            0.0000000000
      5385      1795  TIP3      H2            -13.0995466405      -24.0929322861      -32.7966296465  W2        1795            0.0000000000
      5386      1796  TIP3      OH2            -5.7908266405      -32.1935122861      -22.2711596465  W2        1796            0.0000000000
      5387      1796  TIP3      H1             -5.0920366405      -32.1196422861      -21.6211896465  W2        1796            0.0000000000
      5388      1796  TIP3      H2             -6.1716866405      -33.0580122861      -22.1168696465  W2        1796            0.0000000000
      5389      1797  TIP3      OH2            -5.0063366405      -32.5413422861      -31.1739296465  W2        1797            0.0000000000
      5390      1797  TIP3      H1             -4.7865066405      -32.0698022861      -31.9773896465  W2        1797            0.0000000000
      5391      1797  TIP3      H2             -4.4479366405      -32.1470822861      -30.5038696465  W2        1797            0.0000000000
      5392      1798  TIP3      OH2            -7.3377266405      -20.4108622861      -32.3111796465  W2        1798            0.0000000000
      5393      1798  TIP3      H1             -8.1541166405      -19.9138922861      -32.2587496465  W2        1798            0.0000000000
      5394      1798  TIP3      H2             -6.8080966405      -19.9355122861      -32.9512996465  W2        1798            0.0000000000
      5395      1799  TIP3      OH2            -7.8063466405      -30.8134622861      -30.3390896465  W2        1799            0.0000000000
      5396      1799  TIP3      H1             -6.9940866405      -30.3091422861      -30.2929196465  W2        1799            0.0000000000
      5397      1799  TIP3      H2             -8.0510466405      -30.9584922861      -29.4251296465  W2        1799            0.0000000000
      5398      1800  TIP3      OH2            -7.2707066405      -29.8271922861      -21.1544296465  W2        1800            0.0000000000
      5399      1800  TIP3      H1             -7.1516766405      -29.2536522861      -20.3973896465  W2        1800            0.0000000000
      5400      1800  TIP3      H2             -6.6152466405      -30.5152522861      -21.0396496465  W2        1800            0.0000000000
      5401      1801  TIP3      OH2            -6.9226766405      -33.7321622861      -29.4009796465  W2        1801            0.0000000000
      5402      1801  TIP3      H1             -7.2693266405      -33.1151022861      -28.7565496465  W2        1801            0.0000000000
      5403      1801  TIP3      H2             -6.2639866405      -33.2315922861      -29.8824296465  W2        1801            0.0000000000
      5404      1802  TIP3      OH2            -9.9994166405      -19.3671422861      -32.3294896465  W2        1802            0.0000000000
      5405      1802  TIP3      H1             -9.8385466405      -18.5673922861      -32.8302296465  W2        1802            0.0000000000
      5406      1802  TIP3      H2            -10.1966366405      -19.0605422861      -31.4444296465  W2        1802            0.0000000000
      5407      1803  TIP3      OH2           -11.2649766405      -32.6692222861      -32.7137296465  W2        1803            0.0000000000
      5408      1803  TIP3      H1            -11.3484966405      -31.7809122861      -32.3670896465  W2        1803            0.0000000000
      5409      1803  TIP3      H2            -10.3749466405      -32.9345522861      -32.4820496465  W2        1803            0.0000000000
      5410      1804  TIP3      OH2            -1.0661266405      -31.9201622861      -20.3194596465  W2        1804            0.0000000000
      5411      1804  TIP3      H1             -1.9825466405      -31.6579922861      -20.4070896465  W2        1804            0.0000000000
      5412      1804  TIP3      H2             -0.7306266405      -31.9232622861      -21.2159296465  W2        1804            0.0000000000
      5413      1805  TIP3      OH2            -2.4640266405      -28.1700622861      -26.2237296465  W2        1805            0.0000000000
      5414      1805  TIP3      H1             -3.2615866405      -28.5850422861      -26.5522296465  W2        1805            0.0000000000
      5415      1805  TIP3      H2             -2.0189166405      -28.8606922861      -25.7326796465  W2        1805            0.0000000000
      5416      1806  TIP3      OH2           -13.0064466405      -22.2420022861      -33.6532796465  W2        1806            0.0000000000
      5417      1806  TIP3      H1            -12.4142966405      -21.5425222861      -33.3770396465  W2        1806            0.0000000000
      5418      1806  TIP3      H2            -12.5471466405      -22.6750522861      -34.3728196465  W2        1806            0.0000000000
      5419      1807  TIP3      OH2           -14.6905266405      -29.5777022861      -34.5373396465  W2        1807            0.0000000000
      5420      1807  TIP3      H1            -14.7352666405      -28.6383922861      -34.3586396465  W2        1807            0.0000000000
      5421      1807  TIP3      H2            -15.5782066405      -29.8132122861      -34.8071296465  W2        1807            0.0000000000
      5422      1808  TIP3      OH2            -1.3775666405      -18.9138122861      -24.6013796465  W2        1808            0.0000000000
      5423      1808  TIP3      H1             -1.5331366405      -18.2353722861      -25.2584496465  W2        1808            0.0000000000
      5424      1808  TIP3      H2             -0.4449266405      -18.8418822861      -24.3983196465  W2        1808            0.0000000000
      5425      1809  TIP3      OH2           -13.8823266405      -34.7960422861      -25.8642396465  W2        1809            0.0000000000
      5426      1809  TIP3      H1            -14.1113466405      -34.7367922861      -26.7917396465  W2        1809            0.0000000000
      5427      1809  TIP3      H2            -14.3249866405      -35.5874922861      -25.5578296465  W2        1809            0.0000000000
      5428      1810  TIP3      OH2           -14.9519966405      -20.8553322861      -29.7036596465  W2        1810            0.0000000000
      5429      1810  TIP3      H1            -15.7841366405      -20.3830622861      -29.6765196465  W2        1810            0.0000000000
      5430      1810  TIP3      H2            -14.4061666405      -20.3455722861      -30.3023496465  W2        1810            0.0000000000
      5431      1811  TIP3      OH2           -15.6636266405      -18.2429622861      -18.3738596465  W2        1811            0.0000000000
      5432      1811  TIP3      H1            -15.1234066405      -18.4595622861      -17.6139396465  W2        1811            0.0000000000
      5433      1811  TIP3      H2            -16.1448266405      -19.0483622861      -18.5636096465  W2        1811            0.0000000000
      5434      1812  TIP3      OH2           -11.0662866405      -19.3235222861      -16.7534396465  W2        1812            0.0000000000
      5435      1812  TIP3      H1            -10.2985666405      -19.7824422861      -16.4125196465  W2        1812            0.0000000000
      5436      1812  TIP3      H2            -11.0876666405      -19.5495422861      -17.6833196465  W2        1812            0.0000000000
      5437      1813  TIP3      OH2            -6.9743266405      -19.8154622861      -35.3782596465  W2        1813            0.0000000000
      5438      1813  TIP3      H1             -7.6182266405      -20.4466022861      -35.0568896465  W2        1813            0.0000000000
      5439      1813  TIP3      H2             -6.2124966405      -20.3466622861      -35.6099096465  W2        1813            0.0000000000
      5440      1814  TIP3      OH2            -4.4894166405      -20.9434122861      -18.0242896465  W2        1814            0.0000000000
      5441      1814  TIP3      H1             -4.8404666405      -21.8001122861      -17.7812496465  W2        1814            0.0000000000
      5442      1814  TIP3      H2             -3.7630966405      -20.8007422861      -17.4173896465  W2        1814            0.0000000000
      5443      1815  TIP3      OH2            -2.3700366405      -19.9984722861      -35.1444596465  W2        1815            0.0000000000
      5444      1815  TIP3      H1             -2.0869966405      -20.7929522861      -34.6917696465  W2        1815            0.0000000000
      5445      1815  TIP3      H2             -1.6302466405      -19.7653722861      -35.7053496465  W2        1815            0.0000000000
      5446      1816  TIP3      OH2           -15.7566766405      -24.4325522861      -17.4194296465  W2        1816            0.0000000000
      5447      1816  TIP3      H1            -15.6126266405      -25.3344822861      -17.7057596465  W2        1816            0.0000000000
      5448      1816  TIP3      H2            -16.5289366405      -24.1463422861      -17.9071996465  W2        1816            0.0000000000
      5449      1817  TIP3      OH2           -11.4153066405      -24.0889822861      -35.2869696465  W2        1817            0.0000000000
      5450      1817  TIP3      H1            -11.3508966405      -24.8830222861      -34.7563296465  W2        1817            0.0000000000
      5451      1817  TIP3      H2            -10.7623866405      -24.2077022861      -35.9767696465  W2        1817            0.0000000000
      5452      1818  TIP3      OH2            -9.1010666405      -24.4627422861      -17.9867896465  W2        1818            0.0000000000
      5453      1818  TIP3      H1             -9.4296866405      -24.1919322861      -18.8440496465  W2        1818            0.0000000000
      5454      1818  TIP3      H2             -8.9492466405      -25.4037622861      -18.0742896465  W2        1818            0.0000000000
      5455      1819  TIP3      OH2            -6.0629666405      -23.0418122861      -35.5511696465  W2        1819            0.0000000000
      5456      1819  TIP3      H1             -6.3315566405      -22.8616022861      -34.6502796465  W2        1819            0.0000000000
      5457      1819  TIP3      H2             -6.2694066405      -23.9671922861      -35.6825896465  W2        1819            0.0000000000
      5458      1820  TIP3      OH2            -3.3665466405      -24.5470122861      -20.6035596465  W2        1820            0.0000000000
      5459      1820  TIP3      H1             -2.6210666405      -23.9586422861      -20.7231596465  W2        1820            0.0000000000
      5460      1820  TIP3      H2             -4.1238666405      -23.9650422861      -20.5402496465  W2        1820            0.0000000000
      5461      1821  TIP3      OH2           -14.9240266405      -27.2322222861      -17.9994996465  W2        1821            0.0000000000
      5462      1821  TIP3      H1            -14.5159066405      -28.0895622861      -18.1204396465  W2        1821            0.0000000000
      5463      1821  TIP3      H2            -15.1842666405      -27.2180922861      -17.0784696465  W2        1821            0.0000000000
      5464      1822  TIP3      OH2           -10.2659266405      -26.1163622861      -32.9811696465  W2        1822            0.0000000000
      5465      1822  TIP3      H1            -10.7257266405      -26.6005322861      -32.2953196465  W2        1822            0.0000000000
      5466      1822  TIP3      H2            -10.0110566405      -26.7848222861      -33.6171196465  W2        1822            0.0000000000
      5467      1823  TIP3      OH2           -10.9769966405      -28.2236522861      -20.6252096465  W2        1823            0.0000000000
      5468      1823  TIP3      H1            -11.5953866405      -27.5489922861      -20.3447396465  W2        1823            0.0000000000
      5469      1823  TIP3      H2            -10.6328766405      -27.9022622861      -21.4585896465  W2        1823            0.0000000000
      5470      1824  TIP3      OH2            -9.1948866405      -27.8731822861      -34.7188496465  W2        1824            0.0000000000
      5471      1824  TIP3      H1             -9.3753866405      -28.0280622861      -35.6460196465  W2        1824            0.0000000000
      5472      1824  TIP3      H2             -8.2448366405      -27.7653122861      -34.6740596465  W2        1824            0.0000000000
      5473      1825  TIP3      OH2            -5.9571766405      -25.7521222861      -17.3477296465  W2        1825            0.0000000000
      5474      1825  TIP3      H1             -5.0040566405      -25.6682122861      -17.3751296465  W2        1825            0.0000000000
      5475      1825  TIP3      H2             -6.1177166405      -26.4639422861      -16.7282396465  W2        1825            0.0000000000
      5476      1826  TIP3      OH2             0.1949433595      -25.5187622861      -35.2730396465  W2        1826            0.0000000000
      5477      1826  TIP3      H1             -0.0785766405      -25.9432122861      -36.0862096465  W2        1826            0.0000000000
      5478      1826  TIP3      H2              0.2343533595      -24.5873122861      -35.4899996465  W2        1826            0.0000000000
      5479      1827  TIP3      OH2           -10.6376266405      -30.8685722861      -19.5428996465  W2        1827            0.0000000000
      5480      1827  TIP3      H1            -10.4875366405      -31.5974422861      -20.1449296465  W2        1827            0.0000000000
      5481      1827  TIP3      H2            -10.6353866405      -30.0914022861      -20.1016796465  W2        1827            0.0000000000
      5482      1828  TIP3      OH2           -10.2250566405      -32.4989922861      -22.0501596465  W2        1828            0.0000000000
      5483      1828  TIP3      H1             -9.6893066405      -32.0473222861      -22.7022296465  W2        1828            0.0000000000
      5484      1828  TIP3      H2            -11.0770966405      -32.6070122861      -22.4727496465  W2        1828            0.0000000000
      5485      1829  TIP3      OH2            -8.6432166405      -27.0593722861      -21.8106396465  W2        1829            0.0000000000
      5486      1829  TIP3      H1             -7.8927366405      -27.2156222861      -22.3838596465  W2        1829            0.0000000000
      5487      1829  TIP3      H2             -8.9823866405      -26.2077122861      -22.0860896465  W2        1829            0.0000000000
      5488      1830  TIP3      OH2            -4.2275966405      -29.2441922861      -16.7821096465  W2        1830            0.0000000000
      5489      1830  TIP3      H1             -4.0354666405      -30.1752522861      -16.8936596465  W2        1830            0.0000000000
      5490      1830  TIP3      H2             -3.3699666405      -28.8192422861      -16.7925696465  W2        1830            0.0000000000
      5491      1831  TIP3      OH2            -2.9108766405      -26.4556722861      -18.7048396465  W2        1831            0.0000000000
      5492      1831  TIP3      H1             -3.1923766405      -25.7462122861      -19.2824596465  W2        1831            0.0000000000
      5493      1831  TIP3      H2             -1.9684466405      -26.5283722861      -18.8557196465  W2        1831            0.0000000000
      5494      1832  TIP3      OH2           -12.1589966405      -29.6702222861      -17.6313396465  W2        1832            0.0000000000
      5495      1832  TIP3      H1            -12.9260966405      -30.2027422861      -17.8415796465  W2        1832            0.0000000000
      5496      1832  TIP3      H2            -11.4800966405      -29.9801822861      -18.2307096465  W2        1832            0.0000000000
      5497      1833  TIP3      OH2            -9.4195066405      -35.0424222861      -21.6187996465  W2        1833            0.0000000000
      5498      1833  TIP3      H1             -9.5175466405      -34.0961022861      -21.7241796465  W2        1833            0.0000000000
      5499      1833  TIP3      H2            -10.1618866405      -35.4150422861      -22.0944496465  W2        1833            0.0000000000
      5500      1834  TIP3      OH2            -8.1554566405      -30.7208822861      -18.0549596465  W2        1834            0.0000000000
      5501      1834  TIP3      H1             -8.3909166405      -30.9402122861      -17.1534696465  W2        1834            0.0000000000
      5502      1834  TIP3      H2             -8.9387666405      -30.9277622861      -18.5647096465  W2        1834            0.0000000000
      5503      1835  TIP3      OH2            -5.4397966405      -31.5935322861      -18.9796096465  W2        1835            0.0000000000
      5504      1835  TIP3      H1             -6.3872566405      -31.5615622861      -18.8472796465  W2        1835            0.0000000000
      5505      1835  TIP3      H2             -5.1271266405      -32.2188222861      -18.3257896465  W2        1835            0.0000000000
      5506      1836  TIP3      OH2            -3.8056466405      -32.9594222861      -16.9744196465  W2        1836            0.0000000000
      5507      1836  TIP3      H1             -3.9024666405      -33.9116922861      -16.9802296465  W2        1836            0.0000000000
      5508      1836  TIP3      H2             -4.1273366405      -32.6907422861      -16.1138696465  W2        1836            0.0000000000
      5509      1837  TIP3      OH2           -13.9787166405      -31.7498422861      -17.9268696465  W2        1837            0.0000000000
      5510      1837  TIP3      H1            -13.7669766405      -32.4562322861      -18.5371196465  W2        1837            0.0000000000
      5511      1837  TIP3      H2            -14.0899666405      -32.1872422861      -17.0827496465  W2        1837            0.0000000000
      5512      1838  TIP3      OH2            -9.1976966405      -35.7486822861      -18.9475196465  W2        1838            0.0000000000
      5513      1838  TIP3      H1             -8.4858566405      -36.3884622861      -18.9616096465  W2        1838            0.0000000000
      5514      1838  TIP3      H2             -9.2986566405      -35.4818522861      -19.8612096465  W2        1838            0.0000000000
      5515      1839  TIP3      OH2            -8.8439466405      -34.0658422861      -16.8938896465  W2        1839            0.0000000000
      5516      1839  TIP3      H1             -8.9757266405      -34.5414622861      -17.7140396465  W2        1839            0.0000000000
      5517      1839  TIP3      H2             -9.4432066405      -33.3214822861      -16.9491796465  W2        1839            0.0000000000
      5518      1840  TIP3      OH2            -9.2977166405      -17.1828122861      -33.7174896465  W2        1840            0.0000000000
      5519      1840  TIP3      H1             -8.3646466405      -17.0249422861      -33.5736496465  W2        1840            0.0000000000
      5520      1840  TIP3      H2             -9.5618366405      -16.5075122861      -34.3423396465  W2        1840            0.0000000000
      5521      1841  TIP3      OH2           -15.7292266405      -22.5464322861      -34.2346796465  W2        1841            0.0000000000
      5522      1841  TIP3      H1            -14.8153066405      -22.4675422861      -33.9612896465  W2        1841            0.0000000000
      5523      1841  TIP3      H2            -15.7219166405      -23.2334722861      -34.9011196465  W2        1841            0.0000000000
      5524      1842  TIP3      OH2           -17.0801666405      -17.1535822861      -29.1572896465  W2        1842            0.0000000000
      5525      1842  TIP3      H1            -17.7274566405      -17.6154122861      -29.6901696465  W2        1842            0.0000000000
      5526      1842  TIP3      H2            -16.7257066405      -17.8252522861      -28.5746696465  W2        1842            0.0000000000
      5527      1843  TIP3      OH2           -16.2102466405      -19.0728822861      -27.3526696465  W2        1843            0.0000000000
      5528      1843  TIP3      H1            -16.5445666405      -19.9531522861      -27.1806496465  W2        1843            0.0000000000
      5529      1843  TIP3      H2            -15.9880066405      -18.7273822861      -26.4881096465  W2        1843            0.0000000000
      5530      1844  TIP3      OH2             1.3382333595      -18.2632422861      -24.3721896465  W2        1844            0.0000000000
      5531      1844  TIP3      H1              1.3169033595      -18.0784022861      -23.4332496465  W2        1844            0.0000000000
      5532      1844  TIP3      H2              2.0288533595      -17.6948422861      -24.7130496465  W2        1844            0.0000000000
      5533      1845  TIP3      OH2             0.9015233595      -18.6961322861      -21.4502796465  W2        1845            0.0000000000
      5534      1845  TIP3      H1              0.4143933595      -19.4317222861      -21.8215396465  W2        1845            0.0000000000
      5535      1845  TIP3      H2              1.4507933595      -19.0897422861      -20.7723396465  W2        1845            0.0000000000
      5536      1846  TIP3      OH2            -0.6477466405      -22.9063222861      -16.8122496465  W2        1846            0.0000000000
      5537      1846  TIP3      H1             -1.5136366405      -23.0113522861      -16.4180196465  W2        1846            0.0000000000
      5538      1846  TIP3      H2             -0.2711566405      -22.1479922861      -16.3657796465  W2        1846            0.0000000000
      5539      1847  TIP3      OH2             0.6532233595      -24.6499522861      -31.2979996465  W2        1847            0.0000000000
      5540      1847  TIP3      H1              1.5033633595      -24.2288622861      -31.1708396465  W2        1847            0.0000000000
      5541      1847  TIP3      H2              0.6587333595      -25.3899422861      -30.6908596465  W2        1847            0.0000000000
      5542      1848  TIP3      OH2             1.0477833595      -26.5962122861      -29.4744296465  W2        1848            0.0000000000
      5543      1848  TIP3      H1              0.3212433595      -27.0759522861      -29.0766696465  W2        1848            0.0000000000
      5544      1848  TIP3      H2              1.6291133595      -26.3907422861      -28.7422696465  W2        1848            0.0000000000
      5545      1849  TIP3      OH2             0.8069033595      -23.8114622861      -24.5266696465  W2        1849            0.0000000000
      5546      1849  TIP3      H1              1.6403233595      -24.1894622861      -24.8073096465  W2        1849            0.0000000000
      5547      1849  TIP3      H2              0.9189333595      -22.8683422861      -24.6457596465  W2        1849            0.0000000000
      5548      1850  TIP3      OH2            -0.7068666405      -20.9337122861      -22.2198296465  W2        1850            0.0000000000
      5549      1850  TIP3      H1             -1.3543366405      -20.6085622861      -21.5943096465  W2        1850            0.0000000000
      5550      1850  TIP3      H2             -1.2244666405      -21.3739422861      -22.8939996465  W2        1850            0.0000000000
      5551      1851  TIP3      OH2             1.3160933595      -26.6953622861      -33.0832996465  W2        1851            0.0000000000
      5552      1851  TIP3      H1              0.7942033595      -26.3389522861      -33.8022096465  W2        1851            0.0000000000
      5553      1851  TIP3      H2              1.2830133595      -26.0205822861      -32.4052096465  W2        1851            0.0000000000
      5554      1852  TIP3      OH2            -0.3350066405      -29.4558022861      -34.5325896465  W2        1852            0.0000000000
      5555      1852  TIP3      H1             -0.2385666405      -28.7891022861      -35.2126196465  W2        1852            0.0000000000
      5556      1852  TIP3      H2             -0.4750466405      -30.2711722861      -35.0140396465  W2        1852            0.0000000000
      5557      1853  TIP3      OH2            -1.1655366405      -28.0755622861      -28.9115596465  W2        1853            0.0000000000
      5558      1853  TIP3      H1             -1.3156566405      -29.0207022861      -28.9317796465  W2        1853            0.0000000000
      5559      1853  TIP3      H2             -1.5190866405      -27.7944222861      -28.0676496465  W2        1853            0.0000000000
      5560      1854  TIP3      OH2           -16.1302966405      -25.9973422861      -24.9011796465  W2        1854            0.0000000000
      5561      1854  TIP3      H1            -15.9460066405      -26.0791722861      -25.8368896465  W2        1854            0.0000000000
      5562      1854  TIP3      H2            -15.2810066405      -26.1216422861      -24.4775396465  W2        1854            0.0000000000
      5563      1855  TIP3      OH2            -0.3092466405      -26.1052322861      -19.2727296465  W2        1855            0.0000000000
      5564      1855  TIP3      H1              0.2734833595      -26.8400022861      -19.0810096465  W2        1855            0.0000000000
      5565      1855  TIP3      H2              0.2546833595      -25.3332022861      -19.2261496465  W2        1855            0.0000000000
      5566      1856  TIP3      OH2             1.1874633595      -28.2026522861      -18.5881896465  W2        1856            0.0000000000
      5567      1856  TIP3      H1              0.3241333595      -28.5814422861      -18.7537196465  W2        1856            0.0000000000
      5568      1856  TIP3      H2              1.7918333595      -28.9411722861      -18.6626096465  W2        1856            0.0000000000
      5569      1857  TIP3      OH2            -1.0876266405      -32.0478222861      -35.4150396465  W2        1857            0.0000000000
      5570      1857  TIP3      H1             -0.4770466405      -32.4191422861      -34.7782196465  W2        1857            0.0000000000
      5571      1857  TIP3      H2             -1.9244766405      -32.4691322861      -35.2190396465  W2        1857            0.0000000000
      5572      1858  TIP3      OH2            -1.4550566405      -30.4929822861      -30.4490496465  W2        1858            0.0000000000
      5573      1858  TIP3      H1             -1.1753466405      -31.3999422861      -30.3248796465  W2        1858            0.0000000000
      5574      1858  TIP3      H2             -0.6958866405      -30.0588322861      -30.8381296465  W2        1858            0.0000000000
      5575      1859  TIP3      OH2            -0.8432266405      -29.9112422861      -25.0131596465  W2        1859            0.0000000000
      5576      1859  TIP3      H1              0.0895733595      -29.6992522861      -25.0475596465  W2        1859            0.0000000000
      5577      1859  TIP3      H2             -1.0784766405      -29.8100322861      -24.0908596465  W2        1859            0.0000000000
      5578      1860  TIP3      OH2            -0.8140366405      -29.1747122861      -22.2372196465  W2        1860            0.0000000000
      5579      1860  TIP3      H1             -1.6569066405      -28.9066722861      -21.8712396465  W2        1860            0.0000000000
      5580      1860  TIP3      H2             -0.3716066405      -28.3525222861      -22.4481096465  W2        1860            0.0000000000
      5581      1861  TIP3      OH2           -16.5328166405      -30.7268422861      -18.7602996465  W2        1861            0.0000000000
      5582      1861  TIP3      H1            -15.6133266405      -30.8490122861      -18.5239896465  W2        1861            0.0000000000
      5583      1861  TIP3      H2            -16.9823666405      -31.4768722861      -18.3709496465  W2        1861            0.0000000000
      5584      1862  TIP3      OH2             1.4691233595      -35.1946922861      -16.8837196465  W2        1862            0.0000000000
      5585      1862  TIP3      H1              1.8188233595      -35.8483422861      -17.4892496465  W2        1862            0.0000000000
      5586      1862  TIP3      H2              1.6160733595      -34.3572822861      -17.3234596465  W2        1862            0.0000000000
      5587      1863  TIP3      OH2            -0.8415766405      -33.2300522861      -30.4008496465  W2        1863            0.0000000000
      5588      1863  TIP3      H1             -0.6590766405      -33.6789022861      -29.5753496465  W2        1863            0.0000000000
      5589      1863  TIP3      H2             -1.4412866405      -33.8146122861      -30.8643896465  W2        1863            0.0000000000
      5590      1864  TIP3      OH2           -15.3115666405      -32.4146822861      -25.8690096465  W2        1864            0.0000000000
      5591      1864  TIP3      H1            -14.8664066405      -33.2064322861      -25.5670396465  W2        1864            0.0000000000
      5592      1864  TIP3      H2            -14.8452666405      -31.6981622861      -25.4384496465  W2        1864            0.0000000000
      5593      1865  TIP3      OH2           -17.0075366405      -29.4153822861      -24.7999896465  W2        1865            0.0000000000
      5594      1865  TIP3      H1            -16.5155566405      -29.6363322861      -25.5907896465  W2        1865            0.0000000000
      5595      1865  TIP3      H2            -16.6454466405      -28.5750422861      -24.5190396465  W2        1865            0.0000000000
      5596      1866  TIP3      OH2             0.9888433595      -33.0852322861      -18.5345896465  W2        1866            0.0000000000
      5597      1866  TIP3      H1              0.0714133595      -32.8145222861      -18.5702396465  W2        1866            0.0000000000
      5598      1866  TIP3      H2              1.1117833595      -33.6203922861      -19.3186196465  W2        1866            0.0000000000
      5599      1867  TIP3      OH2             1.0250433595      -33.1622422861      -33.8728196465  W2        1867            0.0000000000
      5600      1867  TIP3      H1              1.4373033595      -33.8836722861      -34.3480196465  W2        1867            0.0000000000
      5601      1867  TIP3      H2              1.7066933595      -32.4927822861      -33.8143896465  W2        1867            0.0000000000
      5602      1868  TIP3      OH2           -16.6938866405      -33.1574722861      -30.7457496465  W2        1868            0.0000000000
      5603      1868  TIP3      H1            -17.6190466405      -32.9488122861      -30.8751996465  W2        1868            0.0000000000
      5604      1868  TIP3      H2            -16.2398966405      -32.6733922861      -31.4355196465  W2        1868            0.0000000000
      5605      1869  TIP3      OH2            -1.9231666405      -18.1733022861      -28.8000096465  W2        1869            0.0000000000
      5606      1869  TIP3      H1             -1.2708766405      -18.5210922861      -29.4080996465  W2        1869            0.0000000000
      5607      1869  TIP3      H2             -1.4127866405      -17.6849822861      -28.1540396465  W2        1869            0.0000000000
      5608      1870  TIP3      OH2           -16.7303466405      -34.4195722861      -22.4014996465  W2        1870            0.0000000000
      5609      1870  TIP3      H1            -17.3952966405      -34.6655422861      -21.7584096465  W2        1870            0.0000000000
      5610      1870  TIP3      H2            -17.1732166405      -33.7975322861      -22.9786996465  W2        1870            0.0000000000
      5611      1871  TIP3      OH2           -14.5384166405      -21.2441622861      -18.2569196465  W2        1871            0.0000000000
      5612      1871  TIP3      H1            -15.3591666405      -21.0695122861      -18.7174496465  W2        1871            0.0000000000
      5613      1871  TIP3      H2            -14.7906366405      -21.3176922861      -17.3364796465  W2        1871            0.0000000000
      5614      1872  TIP3      OH2           -11.5841266405      -20.2700422861      -21.9985196465  W2        1872            0.0000000000
      5615      1872  TIP3      H1            -12.0090166405      -19.4601922861      -22.2810596465  W2        1872            0.0000000000
      5616      1872  TIP3      H2            -10.6798466405      -20.1846322861      -22.3005396465  W2        1872            0.0000000000
      5617      1873  TIP3      OH2            -7.2729866405      -18.8710422861      -19.0391496465  W2        1873            0.0000000000
      5618      1873  TIP3      H1             -7.0882366405      -19.2044322861      -18.1611196465  W2        1873            0.0000000000
      5619      1873  TIP3      H2             -6.4265366405      -18.5611822861      -19.3612296465  W2        1873            0.0000000000
      5620      1874  TIP3      OH2            -4.9279466405      -17.5851522861      -19.7950096465  W2        1874            0.0000000000
      5621      1874  TIP3      H1             -4.2510566405      -18.2179222861      -20.0350896465  W2        1874            0.0000000000
      5622      1874  TIP3      H2             -4.6060666405      -17.1841022861      -18.9876796465  W2        1874            0.0000000000
      5623      1875  TIP3      OH2            -0.0105666405      -34.9956022861      -20.7155096465  W2        1875            0.0000000000
      5624      1875  TIP3      H1             -0.8232166405      -34.6705722861      -21.1030396465  W2        1875            0.0000000000
      5625      1875  TIP3      H2              0.2222833595      -35.7557522861      -21.2485996465  W2        1875            0.0000000000
      5626      1876  TIP3      OH2           -14.1824566405      -17.0136522861      -21.9509896465  W2        1876            0.0000000000
      5627      1876  TIP3      H1            -14.9028166405      -16.5735522861      -22.4022196465  W2        1876            0.0000000000
      5628      1876  TIP3      H2            -14.5480566405      -17.2641822861      -21.1025896465  W2        1876            0.0000000000
      5629      1877  TIP3      OH2           -11.7151966405      -17.4132622861      -22.9212696465  W2        1877            0.0000000000
      5630      1877  TIP3      H1            -12.5799766405      -17.3414122861      -22.5172596465  W2        1877            0.0000000000
      5631      1877  TIP3      H2            -11.7702966405      -16.8665322861      -23.7050196465  W2        1877            0.0000000000
      5632      1878  TIP3      OH2            -7.0046366405      -17.5253722861      -23.7456696465  W2        1878            0.0000000000
      5633      1878  TIP3      H1             -7.4612366405      -16.9964022861      -24.3998296465  W2        1878            0.0000000000
      5634      1878  TIP3      H2             -6.8418366405      -16.9222322861      -23.0204396465  W2        1878            0.0000000000
      5635      1879  TIP3      OH2            -4.6770066405      -18.6474122861      -22.8006396465  W2        1879            0.0000000000
      5636      1879  TIP3      H1             -5.5816366405      -18.4823922861      -23.0664296465  W2        1879            0.0000000000
      5637      1879  TIP3      H2             -4.2481466405      -17.7941922861      -22.8662996465  W2        1879            0.0000000000
      5638      1880  TIP3      OH2            -2.0728166405      -17.0775022861      -22.5058596465  W2        1880            0.0000000000
      5639      1880  TIP3      H1             -2.2546166405      -16.1616122861      -22.7163696465  W2        1880            0.0000000000
      5640      1880  TIP3      H2             -1.8960366405      -17.4877922861      -23.3523996465  W2        1880            0.0000000000
      5641      1881  TIP3      OH2           -14.7676466405      -18.3904022861      -25.0408096465  W2        1881            0.0000000000
      5642      1881  TIP3      H1            -14.7860466405      -18.8158922861      -24.1835796465  W2        1881            0.0000000000
      5643      1881  TIP3      H2            -13.9628566405      -18.7089022861      -25.4495896465  W2        1881            0.0000000000
      5644      1882  TIP3      OH2           -12.6263366405      -19.6805322861      -26.3858196465  W2        1882            0.0000000000
      5645      1882  TIP3      H1            -12.8452666405      -20.5967922861      -26.2162196465  W2        1882            0.0000000000
      5646      1882  TIP3      H2            -11.8021166405      -19.5404922861      -25.9196796465  W2        1882            0.0000000000
      5647      1883  TIP3      OH2           -10.0890866405      -19.2106022861      -25.5370196465  W2        1883            0.0000000000
      5648      1883  TIP3      H1             -9.8765166405      -20.0987022861      -25.8239296465  W2        1883            0.0000000000
      5649      1883  TIP3      H2            -10.0245766405      -19.2448322861      -24.5826196465  W2        1883            0.0000000000
      5650      1884  TIP3      OH2            -6.5807166405      -33.5465422861      -26.3926896465  W2        1884            0.0000000000
      5651      1884  TIP3      H1             -7.2550366405      -34.1759822861      -26.1371096465  W2        1884            0.0000000000
      5652      1884  TIP3      H2             -6.0167966405      -34.0306522861      -26.9958996465  W2        1884            0.0000000000
      5653      1885  TIP3      OH2            -1.4379966405      -35.4391422861      -26.2799796465  W2        1885            0.0000000000
      5654      1885  TIP3      H1             -0.8342366405      -34.8916022861      -26.7818796465  W2        1885            0.0000000000
      5655      1885  TIP3      H2             -2.3077966405      -35.1201022861      -26.5205696465  W2        1885            0.0000000000
      5656      1886  TIP3      OH2             0.2890433595      -34.3002722861      -27.9468896465  W2        1886            0.0000000000
      5657      1886  TIP3      H1              0.9007933595      -34.8147022861      -28.4735296465  W2        1886            0.0000000000
      5658      1886  TIP3      H2              0.6713833595      -33.4230622861      -27.9234496465  W2        1886            0.0000000000
      5659      1887  TIP3      OH2           -14.2539666405      -34.9125122861      -28.5706996465  W2        1887            0.0000000000
      5660      1887  TIP3      H1            -15.0309866405      -35.1470222861      -29.0781096465  W2        1887            0.0000000000
      5661      1887  TIP3      H2            -13.7236066405      -35.7093022861      -28.5618996465  W2        1887            0.0000000000
      5662      1888  TIP3      OH2           -15.4176266405      -35.1147022861      -32.7670896465  W2        1888            0.0000000000
      5663      1888  TIP3      H1            -14.9785566405      -34.5036522861      -33.3587396465  W2        1888            0.0000000000
      5664      1888  TIP3      H2            -16.0513866405      -34.5762922861      -32.2930896465  W2        1888            0.0000000000
      5665      1889  TIP3      OH2            -9.6747066405      -34.9858022861      -28.7573896465  W2        1889            0.0000000000
      5666      1889  TIP3      H1             -8.8003666405      -34.5973722861      -28.7869596465  W2        1889            0.0000000000
      5667      1889  TIP3      H2             -9.8106266405      -35.2010222861      -27.8346696465  W2        1889            0.0000000000
      5668      1890  TIP3      OH2            -4.1178666405      -34.9558222861      -27.1082196465  W2        1890            0.0000000000
      5669      1890  TIP3      H1             -4.0417066405      -34.8606622861      -28.0576196465  W2        1890            0.0000000000
      5670      1890  TIP3      H2             -4.3929466405      -35.8635322861      -26.9793096465  W2        1890            0.0000000000
      5671      1891  TIP3      OH2            -2.7646066405      -34.9300422861      -31.4157196465  W2        1891            0.0000000000
      5672      1891  TIP3      H1             -3.4674966405      -34.3151222861      -31.6255796465  W2        1891            0.0000000000
      5673      1891  TIP3      H2             -3.2094666405      -35.7673722861      -31.2846296465  W2        1891            0.0000000000
      5674      1892  TIP3      OH2           -15.5166766405      -19.1664822861      -31.8695796465  W2        1892            0.0000000000
      5675      1892  TIP3      H1            -16.2016866405      -19.2045922861      -32.5370696465  W2        1892            0.0000000000
      5676      1892  TIP3      H2            -15.5129566405      -18.2537222861      -31.5813696465  W2        1892            0.0000000000
      5677      1893  TIP3      OH2           -13.5567166405      -33.1985522861      -34.3246796465  W2        1893            0.0000000000
      5678      1893  TIP3      H1            -13.0653766405      -33.8283122861      -34.8521296465  W2        1893            0.0000000000
      5679      1893  TIP3      H2            -12.9330866405      -32.9026122861      -33.6615596465  W2        1893            0.0000000000
      5680      1894  TIP3      OH2            -8.5307066405      -32.9054022861      -31.8676296465  W2        1894            0.0000000000
      5681      1894  TIP3      H1             -8.3525766405      -33.5520822861      -31.1847696465  W2        1894            0.0000000000
      5682      1894  TIP3      H2             -8.5840866405      -32.0716322861      -31.4005196465  W2        1894            0.0000000000
      5683      1895  TIP3      OH2            -6.6523266405      -17.9569922861      -33.4719596465  W2        1895            0.0000000000
      5684      1895  TIP3      H1             -5.7863066405      -17.5902522861      -33.6501396465  W2        1895            0.0000000000
      5685      1895  TIP3      H2             -6.8990466405      -18.3961922861      -34.2858796465  W2        1895            0.0000000000
      5686      1896  TIP3      OH2             0.0566333595      -18.3939622861      -30.7928496465  W2        1896            0.0000000000
      5687      1896  TIP3      H1             -0.1376566405      -19.1417522861      -31.3578896465  W2        1896            0.0000000000
      5688      1896  TIP3      H2              0.0176433595      -17.6359522861      -31.3760596465  W2        1896            0.0000000000
      5689      1897  TIP3      OH2           -14.2961666405      -34.3983222861      -19.0530796465  W2        1897            0.0000000000
      5690      1897  TIP3      H1            -14.6623466405      -35.1640622861      -18.6106096465  W2        1897            0.0000000000
      5691      1897  TIP3      H2            -13.3833166405      -34.3693022861      -18.7665696465  W2        1897            0.0000000000
      5692      1898  TIP3      OH2           -12.3230866405      -35.0478822861      -17.5173696465  W2        1898            0.0000000000
      5693      1898  TIP3      H1            -11.4247266405      -35.3218622861      -17.7020296465  W2        1898            0.0000000000
      5694      1898  TIP3      H2            -12.7097766405      -35.7902822861      -17.0531096465  W2        1898            0.0000000000
      5695      1899  TIP3      OH2           -13.6985566405      -18.2464022861      -34.8443696465  W2        1899            0.0000000000
      5696      1899  TIP3      H1            -13.9660966405      -17.9601122861      -33.9710596465  W2        1899            0.0000000000
      5697      1899  TIP3      H2            -12.9272966405      -18.7924822861      -34.6921196465  W2        1899            0.0000000000
      5698      1900  TIP3      OH2            -3.9018566405      -35.7153522861      -17.3350896465  W2        1900            0.0000000000
      5699      1900  TIP3      H1             -3.8251366405      -36.1412822861      -16.4813196465  W2        1900            0.0000000000
      5700      1900  TIP3      H2             -3.0081966405      -35.7018822861      -17.6777396465  W2        1900            0.0000000000
      5701      1901  TIP3      OH2            -0.7257466405      -19.6427222861      -18.6426696465  W2        1901            0.0000000000
      5702      1901  TIP3      H1             -1.5075566405      -19.8289222861      -19.1626096465  W2        1901            0.0000000000
      5703      1901  TIP3      H2             -0.7977566405      -18.7132922861      -18.4254196465  W2        1901            0.0000000000
      5704      1902  TIP3      OH2            13.6802933595      -25.7562822861      -28.6119496465  W2        1902            0.0000000000
      5705      1902  TIP3      H1             13.7694033595      -24.8124622861      -28.7442396465  W2        1902            0.0000000000
      5706      1902  TIP3      H2             13.0420533595      -26.0316422861      -29.2700096465  W2        1902            0.0000000000
      5707      1903  TIP3      OH2            12.6134233595      -26.5012122861      -25.1931296465  W2        1903            0.0000000000
      5708      1903  TIP3      H1             12.5751733595      -27.1475822861      -24.4881696465  W2        1903            0.0000000000
      5709      1903  TIP3      H2             12.2910733595      -26.9677722861      -25.9642596465  W2        1903            0.0000000000
      5710      1904  TIP3      OH2             4.9819233595      -26.8870022861      -23.6001396465  W2        1904            0.0000000000
      5711      1904  TIP3      H1              5.0231333595      -27.5126722861      -22.8768996465  W2        1904            0.0000000000
      5712      1904  TIP3      H2              5.6846933595      -26.2631422861      -23.4180996465  W2        1904            0.0000000000
      5713      1905  TIP3      OH2            16.3194433595      -23.5621722861      -26.8916196465  W2        1905            0.0000000000
      5714      1905  TIP3      H1             15.8787133595      -24.2825722861      -26.4410596465  W2        1905            0.0000000000
      5715      1905  TIP3      H2             16.3064133595      -22.8414522861      -26.2618496465  W2        1905            0.0000000000
      5716      1906  TIP3      OH2             5.9052333595      -22.4371122861      -25.0652296465  W2        1906            0.0000000000
      5717      1906  TIP3      H1              5.5357533595      -23.2390622861      -25.4347996465  W2        1906            0.0000000000
      5718      1906  TIP3      H2              6.8463433595      -22.6056222861      -25.0188896465  W2        1906            0.0000000000
      5719      1907  TIP3      OH2             2.5152833595      -28.7768522861      -29.6723496465  W2        1907            0.0000000000
      5720      1907  TIP3      H1              2.0676233595      -27.9309822861      -29.6906996465  W2        1907            0.0000000000
      5721      1907  TIP3      H2              1.9544033595      -29.3564322861      -30.1878396465  W2        1907            0.0000000000
      5722      1908  TIP3      OH2             3.2258933595      -26.6148922861      -27.5465496465  W2        1908            0.0000000000
      5723      1908  TIP3      H1              3.4392433595      -27.3847322861      -27.0192496465  W2        1908            0.0000000000
      5724      1908  TIP3      H2              3.9636533595      -26.5252222861      -28.1497896465  W2        1908            0.0000000000
      5725      1909  TIP3      OH2            13.4309933595      -18.4580022861      -26.6795796465  W2        1909            0.0000000000
      5726      1909  TIP3      H1             14.0506333595      -19.1345322861      -26.9526596465  W2        1909            0.0000000000
      5727      1909  TIP3      H2             13.2227333595      -18.6759222861      -25.7710896465  W2        1909            0.0000000000
      5728      1910  TIP3      OH2            11.0028633595      -24.0690722861      -24.7870296465  W2        1910            0.0000000000
      5729      1910  TIP3      H1             11.3066533595      -24.7549322861      -25.3816196465  W2        1910            0.0000000000
      5730      1910  TIP3      H2             11.7242633595      -23.9502022861      -24.1692296465  W2        1910            0.0000000000
      5731      1911  TIP3      OH2            19.6658433595      -32.4675422861      -23.9264096465  W2        1911            0.0000000000
      5732      1911  TIP3      H1             19.7150633595      -31.8574222861      -23.1904996465  W2        1911            0.0000000000
      5733      1911  TIP3      H2             20.0913533595      -32.0064522861      -24.6492996465  W2        1911            0.0000000000
      5734      1912  TIP3      OH2            14.1435633595      -29.6748322861      -24.4595496465  W2        1912            0.0000000000
      5735      1912  TIP3      H1             14.2861533595      -30.6211322861      -24.4393896465  W2        1912            0.0000000000
      5736      1912  TIP3      H2             14.0374633595      -29.4678522861      -25.3880596465  W2        1912            0.0000000000
      5737      1913  TIP3      OH2             7.2983933595      -31.5731922861      -27.1870696465  W2        1913            0.0000000000
      5738      1913  TIP3      H1              7.3415033595      -30.7133422861      -27.6054396465  W2        1913            0.0000000000
      5739      1913  TIP3      H2              6.8408033595      -32.1257222861      -27.8207496465  W2        1913            0.0000000000
      5740      1914  TIP3      OH2            15.0206633595      -31.4426322861      -28.7862396465  W2        1914            0.0000000000
      5741      1914  TIP3      H1             15.6670933595      -31.7713122861      -28.1614796465  W2        1914            0.0000000000
      5742      1914  TIP3      H2             15.5306033595      -30.9247322861      -29.4090996465  W2        1914            0.0000000000
      5743      1915  TIP3      OH2             3.9185433595      -29.1766122861      -26.4249296465  W2        1915            0.0000000000
      5744      1915  TIP3      H1              4.5722033595      -29.7264422861      -25.9929196465  W2        1915            0.0000000000
      5745      1915  TIP3      H2              3.9424733595      -29.4507122861      -27.3417296465  W2        1915            0.0000000000
      5746      1916  TIP3      OH2             9.0749933595      -27.6264822861      -27.2097796465  W2        1916            0.0000000000
      5747      1916  TIP3      H1              9.6910933595      -28.1529422861      -26.7003796465  W2        1916            0.0000000000
      5748      1916  TIP3      H2              8.4888733595      -28.2666122861      -27.6134196465  W2        1916            0.0000000000
      5749      1917  TIP3      OH2            20.0573033595      -30.9896222861      -21.6904296465  W2        1917            0.0000000000
      5750      1917  TIP3      H1             19.3687633595      -30.3315522861      -21.7857696465  W2        1917            0.0000000000
      5751      1917  TIP3      H2             20.0727633595      -31.1868322861      -20.7538896465  W2        1917            0.0000000000
      5752      1918  TIP3      OH2             6.1085833595      -32.6553522861      -23.1129896465  W2        1918            0.0000000000
      5753      1918  TIP3      H1              5.8897533595      -32.1252922861      -23.8793896465  W2        1918            0.0000000000
      5754      1918  TIP3      H2              5.4406733595      -32.4288022861      -22.4658496465  W2        1918            0.0000000000
      5755      1919  TIP3      OH2            13.4775633595      -23.1552422861      -29.5690796465  W2        1919            0.0000000000
      5756      1919  TIP3      H1             13.1820733595      -23.4780122861      -30.4203896465  W2        1919            0.0000000000
      5757      1919  TIP3      H2             13.1533433595      -22.2555722861      -29.5278196465  W2        1919            0.0000000000
      5758      1920  TIP3      OH2             8.6777233595      -24.9797822861      -22.8256196465  W2        1920            0.0000000000
      5759      1920  TIP3      H1              7.9376333595      -24.3816322861      -22.7220996465  W2        1920            0.0000000000
      5760      1920  TIP3      H2              9.3916733595      -24.4258222861      -23.1412596465  W2        1920            0.0000000000
      5761      1921  TIP3      OH2            16.7845033595      -32.1517022861      -26.8056496465  W2        1921            0.0000000000
      5762      1921  TIP3      H1             16.5693033595      -32.9173622861      -26.2730496465  W2        1921            0.0000000000
      5763      1921  TIP3      H2             17.4402433595      -31.6792422861      -26.2927996465  W2        1921            0.0000000000
      5764      1922  TIP3      OH2             5.7023133595      -30.7631722861      -25.1607696465  W2        1922            0.0000000000
      5765      1922  TIP3      H1              6.3159433595      -30.1304122861      -24.7875296465  W2        1922            0.0000000000
      5766      1922  TIP3      H2              6.2143833595      -31.2356722861      -25.8170796465  W2        1922            0.0000000000
      5767      1923  TIP3      OH2             7.0851533595      -23.0154822861      -22.0384696465  W2        1923            0.0000000000
      5768      1923  TIP3      H1              7.0799133595      -22.1361322861      -22.4165396465  W2        1923            0.0000000000
      5769      1923  TIP3      H2              6.2315633595      -23.0990722861      -21.6134796465  W2        1923            0.0000000000
      5770      1924  TIP3      OH2             3.2062433595      -23.3446922861      -31.2565396465  W2        1924            0.0000000000
      5771      1924  TIP3      H1              2.9343333595      -23.1155922861      -32.1452496465  W2        1924            0.0000000000
      5772      1924  TIP3      H2              3.2518133595      -22.5068122861      -30.7960096465  W2        1924            0.0000000000
      5773      1925  TIP3      OH2            16.8312133595      -21.7231022861      -24.5436896465  W2        1925            0.0000000000
      5774      1925  TIP3      H1             15.8895833595      -21.6647122861      -24.3819996465  W2        1925            0.0000000000
      5775      1925  TIP3      H2             17.1078233595      -20.8170522861      -24.6807196465  W2        1925            0.0000000000
      5776      1926  TIP3      OH2            17.1319133595      -33.4365722861      -23.1262996465  W2        1926            0.0000000000
      5777      1926  TIP3      H1             16.3958333595      -32.8258622861      -23.1641696465  W2        1926            0.0000000000
      5778      1926  TIP3      H2             17.8153133595      -33.0216722861      -23.6526596465  W2        1926            0.0000000000
      5779      1927  TIP3      OH2            10.1350533595      -35.3498422861      -25.6604996465  W2        1927            0.0000000000
      5780      1927  TIP3      H1             10.0174733595      -36.2982422861      -25.7146696465  W2        1927            0.0000000000
      5781      1927  TIP3      H2              9.2800633595      -35.0172322861      -25.3873896465  W2        1927            0.0000000000
      5782      1928  TIP3      OH2            15.0833333595      -19.9417522861      -27.9185296465  W2        1928            0.0000000000
      5783      1928  TIP3      H1             15.5085633595      -20.6489622861      -28.4035696465  W2        1928            0.0000000000
      5784      1928  TIP3      H2             15.4003333595      -19.1404822861      -28.3353096465  W2        1928            0.0000000000
      5785      1929  TIP3      OH2            16.2429833595      -22.0409022861      -29.4098696465  W2        1929            0.0000000000
      5786      1929  TIP3      H1             15.9854633595      -22.7308922861      -30.0212796465  W2        1929            0.0000000000
      5787      1929  TIP3      H2             16.3140633595      -22.4837822861      -28.5642796465  W2        1929            0.0000000000
      5788      1930  TIP3      OH2            17.9290033595      -23.4742322861      -20.9325196465  W2        1930            0.0000000000
      5789      1930  TIP3      H1             18.0686333595      -24.0659822861      -21.6718196465  W2        1930            0.0000000000
      5790      1930  TIP3      H2             18.0962833595      -22.6016422861      -21.2886396465  W2        1930            0.0000000000
      5791      1931  TIP3      OH2            12.4015433595      -26.5122822861      -31.1599196465  W2        1931            0.0000000000
      5792      1931  TIP3      H1             11.6900933595      -25.9773122861      -31.5118696465  W2        1931            0.0000000000
      5793      1931  TIP3      H2             13.0925033595      -26.4570722861      -31.8200296465  W2        1931            0.0000000000
      5794      1932  TIP3      OH2            12.4554633595      -28.0548522861      -34.1214196465  W2        1932            0.0000000000
      5795      1932  TIP3      H1             13.1564533595      -28.0321622861      -33.4700196465  W2        1932            0.0000000000
      5796      1932  TIP3      H2             12.7577533595      -28.6828822861      -34.7774896465  W2        1932            0.0000000000
      5797      1933  TIP3      OH2            19.7709333595      -27.1344322861      -22.8664796465  W2        1933            0.0000000000
      5798      1933  TIP3      H1             19.1183433595      -26.4398722861      -22.7773896465  W2        1933            0.0000000000
      5799      1933  TIP3      H2             20.2359633595      -26.9243422861      -23.6763196465  W2        1933            0.0000000000
      5800      1934  TIP3      OH2            15.8073133595      -26.3029522861      -30.2083296465  W2        1934            0.0000000000
      5801      1934  TIP3      H1             15.0754133595      -26.0745822861      -29.6352696465  W2        1934            0.0000000000
      5802      1934  TIP3      H2             16.2545333595      -27.0166822861      -29.7535796465  W2        1934            0.0000000000
      5803      1935  TIP3      OH2            15.7046633595      -28.1286922861      -21.1406296465  W2        1935            0.0000000000
      5804      1935  TIP3      H1             15.7845733595      -27.3652522861      -20.5687796465  W2        1935            0.0000000000
      5805      1935  TIP3      H2             15.1034333595      -27.8494522861      -21.8311196465  W2        1935            0.0000000000
      5806      1936  TIP3      OH2             7.4526833595      -25.6723322861      -28.3258296465  W2        1936            0.0000000000
      5807      1936  TIP3      H1              7.1222033595      -26.0429922861      -29.1441296465  W2        1936            0.0000000000
      5808      1936  TIP3      H2              8.0410933595      -26.3429322861      -27.9789996465  W2        1936            0.0000000000
      5809      1937  TIP3      OH2             8.8194333595      -22.2442722861      -25.6446096465  W2        1937            0.0000000000
      5810      1937  TIP3      H1              8.7245633595      -22.8229622861      -26.4011496465  W2        1937            0.0000000000
      5811      1937  TIP3      H2              9.5487933595      -22.6157022861      -25.1483296465  W2        1937            0.0000000000
      5812      1938  TIP3      OH2             7.8192333595      -26.9037722861      -24.6923296465  W2        1938            0.0000000000
      5813      1938  TIP3      H1              8.3844833595      -26.7823522861      -25.4552096465  W2        1938            0.0000000000
      5814      1938  TIP3      H2              8.1381233595      -26.2662722861      -24.0534796465  W2        1938            0.0000000000
      5815      1939  TIP3      OH2            14.1284533595      -21.4005822861      -23.9582796465  W2        1939            0.0000000000
      5816      1939  TIP3      H1             13.8881133595      -20.7382722861      -23.3103596465  W2        1939            0.0000000000
      5817      1939  TIP3      H2             13.9302733595      -22.2350622861      -23.5333196465  W2        1939            0.0000000000
      5818      1940  TIP3      OH2             8.6993033595      -22.5045022861      -19.9751396465  W2        1940            0.0000000000
      5819      1940  TIP3      H1              8.3880533595      -21.7221822861      -19.5198196465  W2        1940            0.0000000000
      5820      1940  TIP3      H2              8.0493233595      -22.6575922861      -20.6609396465  W2        1940            0.0000000000
      5821      1941  TIP3      OH2            14.6782633595      -27.1406622861      -32.5232096465  W2        1941            0.0000000000
      5822      1941  TIP3      H1             15.2578133595      -26.9906322861      -31.7763196465  W2        1941            0.0000000000
      5823      1941  TIP3      H2             15.0922633595      -26.6699222861      -33.2465696465  W2        1941            0.0000000000
      5824      1942  TIP3      OH2             5.6192933595      -26.3063922861      -20.7465696465  W2        1942            0.0000000000
      5825      1942  TIP3      H1              5.6896133595      -25.6557122861      -20.0480696465  W2        1942            0.0000000000
      5826      1942  TIP3      H2              4.7285133595      -26.2036422861      -21.0814796465  W2        1942            0.0000000000
      5827      1943  TIP3      OH2            12.4047533595      -20.4038122861      -29.0878996465  W2        1943            0.0000000000
      5828      1943  TIP3      H1             12.8785133595      -20.1081822861      -28.3104796465  W2        1943            0.0000000000
      5829      1943  TIP3      H2             11.8416833595      -19.6656522861      -29.3209396465  W2        1943            0.0000000000
      5830      1944  TIP3      OH2             6.9388933595      -20.4330022861      -19.2117596465  W2        1944            0.0000000000
      5831      1944  TIP3      H1              6.9464233595      -20.5690322861      -20.1592096465  W2        1944            0.0000000000
      5832      1944  TIP3      H2              6.0229333595      -20.5501922861      -18.9597596465  W2        1944            0.0000000000
      5833      1945  TIP3      OH2            18.3771033595      -35.3906222861      -32.7102396465  W2        1945            0.0000000000
      5834      1945  TIP3      H1             17.4771733595      -35.2517222861      -32.4151796465  W2        1945            0.0000000000
      5835      1945  TIP3      H2             18.6289433595      -34.5591622861      -33.1120696465  W2        1945            0.0000000000
      5836      1946  TIP3      OH2             6.4429533595      -26.6029022861      -30.7365496465  W2        1946            0.0000000000
      5837      1946  TIP3      H1              6.1510833595      -25.8347322861      -31.2274196465  W2        1946            0.0000000000
      5838      1946  TIP3      H2              5.7684733595      -27.2622822861      -30.8994096465  W2        1946            0.0000000000
      5839      1947  TIP3      OH2            19.5662433595      -21.0243822861      -34.3338496465  W2        1947            0.0000000000
      5840      1947  TIP3      H1             19.6395933595      -20.0853622861      -34.1633196465  W2        1947            0.0000000000
      5841      1947  TIP3      H2             20.4717533595      -21.3295222861      -34.3901196465  W2        1947            0.0000000000
      5842      1948  TIP3      OH2             2.5359633595      -24.2399822861      -21.9215696465  W2        1948            0.0000000000
      5843      1948  TIP3      H1              2.0348033595      -24.2680422861      -22.7365996465  W2        1948            0.0000000000
      5844      1948  TIP3      H2              2.5413333595      -25.1456622861      -21.6118396465  W2        1948            0.0000000000
      5845      1949  TIP3      OH2             2.2862333595      -21.4596022861      -25.0375496465  W2        1949            0.0000000000
      5846      1949  TIP3      H1              3.2322933595      -21.6039022861      -25.0565996465  W2        1949            0.0000000000
      5847      1949  TIP3      H2              2.1738633595      -20.6753222861      -24.5004296465  W2        1949            0.0000000000
      5848      1950  TIP3      OH2            20.4840833595      -20.7936322861      -19.3551796465  W2        1950            0.0000000000
      5849      1950  TIP3      H1             20.4347633595      -21.7488222861      -19.3924196465  W2        1950            0.0000000000
      5850      1950  TIP3      H2             19.6573133595      -20.5261022861      -18.9537996465  W2        1950            0.0000000000
      5851      1951  TIP3      OH2            11.4624833595      -21.2197122861      -20.4790396465  W2        1951            0.0000000000
      5852      1951  TIP3      H1             11.5499433595      -20.3932522861      -20.0041296465  W2        1951            0.0000000000
      5853      1951  TIP3      H2             10.5989933595      -21.5493322861      -20.2301096465  W2        1951            0.0000000000
      5854      1952  TIP3      OH2            11.8770633595      -17.4473422861      -30.6729796465  W2        1952            0.0000000000
      5855      1952  TIP3      H1             11.8016633595      -17.5686222861      -31.6194596465  W2        1952            0.0000000000
      5856      1952  TIP3      H2             11.9099333595      -16.4980722861      -30.5545196465  W2        1952            0.0000000000
      5857      1953  TIP3      OH2             5.5304433595      -18.6586422861      -28.8920796465  W2        1953            0.0000000000
      5858      1953  TIP3      H1              5.6824833595      -19.0066022861      -28.0134296465  W2        1953            0.0000000000
      5859      1953  TIP3      H2              4.6794833595      -19.0149122861      -29.1473596465  W2        1953            0.0000000000
      5860      1954  TIP3      OH2            14.9786633595      -18.2933222861      -33.6707396465  W2        1954            0.0000000000
      5861      1954  TIP3      H1             15.3535033595      -19.0377122861      -34.1414796465  W2        1954            0.0000000000
      5862      1954  TIP3      H2             14.9830333595      -18.5632622861      -32.7524096465  W2        1954            0.0000000000
      5863      1955  TIP3      OH2            14.6474733595      -18.3676122861      -30.9215196465  W2        1955            0.0000000000
      5864      1955  TIP3      H1             13.7124533595      -18.2674222861      -30.7428196465  W2        1955            0.0000000000
      5865      1955  TIP3      H2             14.9276633595      -19.0770122861      -30.3431996465  W2        1955            0.0000000000
      5866      1956  TIP3      OH2            17.6360633595      -29.3003822861      -18.8749596465  W2        1956            0.0000000000
      5867      1956  TIP3      H1             17.2287433595      -28.8198222861      -19.5956296465  W2        1956            0.0000000000
      5868      1956  TIP3      H2             17.6766333595      -30.2057822861      -19.1828796465  W2        1956            0.0000000000
      5869      1957  TIP3      OH2             4.7850133595      -22.9164422861      -20.8782896465  W2        1957            0.0000000000
      5870      1957  TIP3      H1              5.0011433595      -23.2778822861      -20.0187096465  W2        1957            0.0000000000
      5871      1957  TIP3      H2              3.9294833595      -23.2910622861      -21.0879396465  W2        1957            0.0000000000
      5872      1958  TIP3      OH2             7.4038133595      -34.4463922861      -24.8828696465  W2        1958            0.0000000000
      5873      1958  TIP3      H1              6.5421833595      -34.5335722861      -25.2905796465  W2        1958            0.0000000000
      5874      1958  TIP3      H2              7.3813833595      -33.5903822861      -24.4551096465  W2        1958            0.0000000000
      5875      1959  TIP3      OH2            12.0665933595      -34.7243522861      -21.5081696465  W2        1959            0.0000000000
      5876      1959  TIP3      H1             12.4869033595      -35.1396422861      -20.7551096465  W2        1959            0.0000000000
      5877      1959  TIP3      H2             11.1335533595      -34.9030222861      -21.3909696465  W2        1959            0.0000000000
      5878      1960  TIP3      OH2            15.3930833595      -30.9688322861      -20.6547196465  W2        1960            0.0000000000
      5879      1960  TIP3      H1             14.8790333595      -31.0946122861      -19.8571196465  W2        1960            0.0000000000
      5880      1960  TIP3      H2             15.2375533595      -30.0565222861      -20.8990996465  W2        1960            0.0000000000
      5881      1961  TIP3      OH2            16.1555733595      -26.1078322861      -34.8934196465  W2        1961            0.0000000000
      5882      1961  TIP3      H1             16.1976533595      -26.3304422861      -35.8234196465  W2        1961            0.0000000000
      5883      1961  TIP3      H2             17.0047833595      -25.7091222861      -34.7034296465  W2        1961            0.0000000000
      5884      1962  TIP3      OH2            11.7283233595      -32.2320122861      -34.2230896465  W2        1962            0.0000000000
      5885      1962  TIP3      H1             11.4748033595      -32.2128522861      -33.3002796465  W2        1962            0.0000000000
      5886      1962  TIP3      H2             11.4715333595      -33.1034722861      -34.5244696465  W2        1962            0.0000000000
      5887      1963  TIP3      OH2             7.4948233595      -29.4809422861      -23.7878496465  W2        1963            0.0000000000
      5888      1963  TIP3      H1              6.8530333595      -29.5212122861      -23.0788396465  W2        1963            0.0000000000
      5889      1963  TIP3      H2              7.5320233595      -28.5544722861      -24.0255496465  W2        1963            0.0000000000
      5890      1964  TIP3      OH2             7.4917333595      -29.2599322861      -28.8758496465  W2        1964            0.0000000000
      5891      1964  TIP3      H1              6.5990233595      -29.6003222861      -28.9344696465  W2        1964            0.0000000000
      5892      1964  TIP3      H2              7.9423933595      -29.6368422861      -29.6315296465  W2        1964            0.0000000000
      5893      1965  TIP3      OH2            13.0272833595      -28.8439022861      -30.0587696465  W2        1965            0.0000000000
      5894      1965  TIP3      H1             12.6183133595      -28.0290422861      -30.3502896465  W2        1965            0.0000000000
      5895      1965  TIP3      H2             13.7479033595      -28.9838922861      -30.6730596465  W2        1965            0.0000000000
      5896      1966  TIP3      OH2            12.1294433595      -28.6682622861      -18.5706996465  W2        1966            0.0000000000
      5897      1966  TIP3      H1             11.5668233595      -29.3731022861      -18.2499196465  W2        1966            0.0000000000
      5898      1966  TIP3      H2             12.9557833595      -28.7890722861      -18.1029396465  W2        1966            0.0000000000
      5899      1967  TIP3      OH2            14.0320533595      -29.3978622861      -27.2447996465  W2        1967            0.0000000000
      5900      1967  TIP3      H1             13.8365033595      -28.7921822861      -27.9597396465  W2        1967            0.0000000000
      5901      1967  TIP3      H2             14.2133133595      -30.2313422861      -27.6791696465  W2        1967            0.0000000000
      5902      1968  TIP3      OH2             5.2448733595      -29.1605922861      -21.9206496465  W2        1968            0.0000000000
      5903      1968  TIP3      H1              5.2068133595      -28.7604322861      -21.0519396465  W2        1968            0.0000000000
      5904      1968  TIP3      H2              4.7539833595      -29.9773522861      -21.8303596465  W2        1968            0.0000000000
      5905      1969  TIP3      OH2             8.6106133595      -31.7863622861      -35.1220496465  W2        1969            0.0000000000
      5906      1969  TIP3      H1              8.1796833595      -32.2313522861      -34.3923096465  W2        1969            0.0000000000
      5907      1969  TIP3      H2              7.8924833595      -31.4147322861      -35.6342996465  W2        1969            0.0000000000
      5908      1970  TIP3      OH2             1.8529533595      -32.0444122861      -28.0701796465  W2        1970            0.0000000000
      5909      1970  TIP3      H1              2.4837233595      -32.0732022861      -27.3507896465  W2        1970            0.0000000000
      5910      1970  TIP3      H2              2.3023833595      -32.4695422861      -28.8005896465  W2        1970            0.0000000000
      5911      1971  TIP3      OH2             3.1271633595      -31.2982122861      -32.6461396465  W2        1971            0.0000000000
      5912      1971  TIP3      H1              3.6013333595      -30.7072222861      -33.2310496465  W2        1971            0.0000000000
      5913      1971  TIP3      H2              2.4098033595      -30.7679222861      -32.2991296465  W2        1971            0.0000000000
      5914      1972  TIP3      OH2            13.2959733595      -27.7597322861      -22.5735596465  W2        1972            0.0000000000
      5915      1972  TIP3      H1             13.6194533595      -28.3907622861      -23.2165096465  W2        1972            0.0000000000
      5916      1972  TIP3      H2             12.8559033595      -28.2945122861      -21.9128196465  W2        1972            0.0000000000
      5917      1973  TIP3      OH2            10.0732633595      -31.8321822861      -27.7894396465  W2        1973            0.0000000000
      5918      1973  TIP3      H1              9.1623733595      -31.7755022861      -27.5008396465  W2        1973            0.0000000000
      5919      1973  TIP3      H2             10.5785533595      -31.8926322861      -26.9787196465  W2        1973            0.0000000000
      5920      1974  TIP3      OH2             4.9016033595      -30.2035522861      -28.9626796465  W2        1974            0.0000000000
      5921      1974  TIP3      H1              4.0124033595      -30.1040022861      -29.3027196465  W2        1974            0.0000000000
      5922      1974  TIP3      H2              5.1980933595      -31.0452522861      -29.3088896465  W2        1974            0.0000000000
      5923      1975  TIP3      OH2             8.5547833595      -30.2032922861      -31.3062196465  W2        1975            0.0000000000
      5924      1975  TIP3      H1              9.4863333595      -30.0742922861      -31.1279096465  W2        1975            0.0000000000
      5925      1975  TIP3      H2              8.3398133595      -29.5338622861      -31.9557496465  W2        1975            0.0000000000
      5926      1976  TIP3      OH2            14.4784533595      -32.5975522861      -24.5252596465  W2        1976            0.0000000000
      5927      1976  TIP3      H1             13.8016133595      -32.4662422861      -23.8612896465  W2        1976            0.0000000000
      5928      1976  TIP3      H2             13.9929433595      -32.7526022861      -25.3354896465  W2        1976            0.0000000000
      5929      1977  TIP3      OH2             7.2288033595      -29.0090722861      -33.7396096465  W2        1977            0.0000000000
      5930      1977  TIP3      H1              6.6863133595      -29.3886922861      -34.4308496465  W2        1977            0.0000000000
      5931      1977  TIP3      H2              8.0622933595      -28.8146022861      -34.1681996465  W2        1977            0.0000000000
      5932      1978  TIP3      OH2            17.7659633595      -16.9260122861      -18.2484996465  W2        1978            0.0000000000
      5933      1978  TIP3      H1             17.9658333595      -16.5018222861      -19.0829696465  W2        1978            0.0000000000
      5934      1978  TIP3      H2             18.4213333595      -16.5821922861      -17.6414596465  W2        1978            0.0000000000
      5935      1979  TIP3      OH2             5.3639433595      -24.4518822861      -18.6404496465  W2        1979            0.0000000000
      5936      1979  TIP3      H1              6.0961833595      -24.1972922861      -18.0789996465  W2        1979            0.0000000000
      5937      1979  TIP3      H2              4.5838133595      -24.2473422861      -18.1249096465  W2        1979            0.0000000000
      5938      1980  TIP3      OH2            11.3932333595      -29.0448822861      -25.9024796465  W2        1980            0.0000000000
      5939      1980  TIP3      H1             11.9575733595      -29.5912222861      -26.4495196465  W2        1980            0.0000000000
      5940      1980  TIP3      H2             11.2455733595      -29.5666922861      -25.1137196465  W2        1980            0.0000000000
      5941      1981  TIP3      OH2             6.3952033595      -32.9082722861      -29.4839996465  W2        1981            0.0000000000
      5942      1981  TIP3      H1              6.0781533595      -33.8107422861      -29.5194596465  W2        1981            0.0000000000
      5943      1981  TIP3      H2              7.1766133595      -32.9065322861      -30.0368396465  W2        1981            0.0000000000
      5944      1982  TIP3      OH2            10.0198233595      -30.6562722861      -23.4884396465  W2        1982            0.0000000000
      5945      1982  TIP3      H1              9.1843533595      -30.2023222861      -23.3781996465  W2        1982            0.0000000000
      5946      1982  TIP3      H2             10.5438833595      -30.3804222861      -22.7364496465  W2        1982            0.0000000000
      5947      1983  TIP3      OH2            10.5640833595      -24.4435022861      -31.8037996465  W2        1983            0.0000000000
      5948      1983  TIP3      H1              9.8191833595      -24.9509722861      -32.1260096465  W2        1983            0.0000000000
      5949      1983  TIP3      H2             10.4298033595      -24.3947022861      -30.8573196465  W2        1983            0.0000000000
      5950      1984  TIP3      OH2            17.7139733595      -25.3106822861      -23.0170396465  W2        1984            0.0000000000
      5951      1984  TIP3      H1             18.3558533595      -24.8540522861      -23.5608196465  W2        1984            0.0000000000
      5952      1984  TIP3      H2             16.8836633595      -25.1974422861      -23.4796296465  W2        1984            0.0000000000
      5953      1985  TIP3      OH2            14.4617633595      -31.6295122861      -33.6045396465  W2        1985            0.0000000000
      5954      1985  TIP3      H1             13.5231833595      -31.5179522861      -33.7556596465  W2        1985            0.0000000000
      5955      1985  TIP3      H2             14.7589733595      -30.7728222861      -33.2979696465  W2        1985            0.0000000000
      5956      1986  TIP3      OH2            12.0832933595      -24.2591722861      -20.5668896465  W2        1986            0.0000000000
      5957      1986  TIP3      H1             11.7379033595      -24.6409322861      -19.7599296465  W2        1986            0.0000000000
      5958      1986  TIP3      H2             11.8833033595      -23.3258122861      -20.4955996465  W2        1986            0.0000000000
      5959      1987  TIP3      OH2            15.1801133595      -29.7622422861      -31.9437996465  W2        1987            0.0000000000
      5960      1987  TIP3      H1             16.0720133595      -29.8997422861      -31.6246796465  W2        1987            0.0000000000
      5961      1987  TIP3      H2             15.2364733595      -28.9716322861      -32.4804496465  W2        1987            0.0000000000
      5962      1988  TIP3      OH2             5.6889133595      -25.1485022861      -26.0340096465  W2        1988            0.0000000000
      5963      1988  TIP3      H1              6.4336333595      -25.1509322861      -26.6353596465  W2        1988            0.0000000000
      5964      1988  TIP3      H2              5.7665733595      -25.9721222861      -25.5524996465  W2        1988            0.0000000000
      5965      1989  TIP3      OH2            12.6894933595      -22.9850722861      -32.7783396465  W2        1989            0.0000000000
      5966      1989  TIP3      H1             12.3943333595      -22.1582822861      -32.3968596465  W2        1989            0.0000000000
      5967      1989  TIP3      H2             11.9864933595      -23.6043822861      -32.5821996465  W2        1989            0.0000000000
      5968      1990  TIP3      OH2             2.6968833595      -26.6878122861      -20.7191596465  W2        1990            0.0000000000
      5969      1990  TIP3      H1              2.9197433595      -27.1058522861      -19.8874096465  W2        1990            0.0000000000
      5970      1990  TIP3      H2              2.0948933595      -27.3003122861      -21.1418796465  W2        1990            0.0000000000
      5971      1991  TIP3      OH2             9.7133733595      -27.1708222861      -18.5061896465  W2        1991            0.0000000000
      5972      1991  TIP3      H1              9.4174533595      -27.3365222861      -19.4012796465  W2        1991            0.0000000000
      5973      1991  TIP3      H2             10.6448933595      -27.3907922861      -18.5167996465  W2        1991            0.0000000000
      5974      1992  TIP3      OH2            14.3336533595      -21.7976222861      -20.6163896465  W2        1992            0.0000000000
      5975      1992  TIP3      H1             13.4330833595      -21.6143622861      -20.8839996465  W2        1992            0.0000000000
      5976      1992  TIP3      H2             14.3677633595      -21.5386922861      -19.6955096465  W2        1992            0.0000000000
      5977      1993  TIP3      OH2            20.0649833595      -29.5528322861      -32.2491296465  W2        1993            0.0000000000
      5978      1993  TIP3      H1             19.5106133595      -29.9490322861      -32.9213796465  W2        1993            0.0000000000
      5979      1993  TIP3      H2             20.1653433595      -28.6423122861      -32.5267996465  W2        1993            0.0000000000
      5980      1994  TIP3      OH2            20.0281833595      -23.7526622861      -19.4119796465  W2        1994            0.0000000000
      5981      1994  TIP3      H1             19.1770333595      -23.5142822861      -19.7793396465  W2        1994            0.0000000000
      5982      1994  TIP3      H2             20.6185233595      -23.7693422861      -20.1652696465  W2        1994            0.0000000000
      5983      1995  TIP3      OH2            18.3601533595      -20.7667922861      -31.7839196465  W2        1995            0.0000000000
      5984      1995  TIP3      H1             17.9872633595      -21.5924122861      -31.4748596465  W2        1995            0.0000000000
      5985      1995  TIP3      H2             18.6375033595      -20.9498522861      -32.6815796465  W2        1995            0.0000000000
      5986      1996  TIP3      OH2            15.5205433595      -25.9588422861      -24.7627296465  W2        1996            0.0000000000
      5987      1996  TIP3      H1             14.5922333595      -26.1906522861      -24.7897996465  W2        1996            0.0000000000
      5988      1996  TIP3      H2             15.9716533595      -26.7358622861      -25.0928496465  W2        1996            0.0000000000
      5989      1997  TIP3      OH2             8.0638533595      -21.6306822861      -28.6298596465  W2        1997            0.0000000000
      5990      1997  TIP3      H1              8.5910733595      -20.8572422861      -28.8299796465  W2        1997            0.0000000000
      5991      1997  TIP3      H2              7.1837033595      -21.4057622861      -28.9314596465  W2        1997            0.0000000000
      5992      1998  TIP3      OH2             3.8186233595      -26.7682722861      -34.0426196465  W2        1998            0.0000000000
      5993      1998  TIP3      H1              4.4346133595      -26.1415522861      -33.6631396465  W2        1998            0.0000000000
      5994      1998  TIP3      H2              2.9568833595      -26.4522922861      -33.7709696465  W2        1998            0.0000000000
      5995      1999  TIP3      OH2             9.4910833595      -23.9676922861      -29.0534296465  W2        1999            0.0000000000
      5996      1999  TIP3      H1              9.2500833595      -23.0422522861      -29.0118996465  W2        1999            0.0000000000
      5997      1999  TIP3      H2              8.7504433595      -24.4265622861      -28.6570396465  W2        1999            0.0000000000
      5998      2000  TIP3      OH2            10.0057433595      -19.8183322861      -22.7383196465  W2        2000            0.0000000000
      5999      2000  TIP3      H1             10.3682133595      -18.9637722861      -22.9718796465  W2        2000            0.0000000000
      6000      2000  TIP3      H2             10.5372633595      -20.1101722861      -21.9976896465  W2        2000            0.0000000000
      6001      2001  TIP3      OH2             8.1741633595      -18.9459322861      -29.5082096465  W2        2001            0.0000000000
      6002      2001  TIP3      H1              7.2242133595      -18.8401922861      -29.4568796465  W2        2001            0.0000000000
      6003      2001  TIP3      H2              8.5259733595      -18.1251922861      -29.1634596465  W2        2001            0.0000000000
      6004      2002  TIP3      OH2            13.5498233595      -23.7192622861      -23.0377596465  W2        2002            0.0000000000
      6005      2002  TIP3      H1             13.1239533595      -23.9470922861      -22.2113596465  W2        2002            0.0000000000
      6006      2002  TIP3      H2             14.1304033595      -24.4580822861      -23.2202296465  W2        2002            0.0000000000
      6007      2003  TIP3      OH2            15.7527133595      -22.7902122861      -33.9638596465  W2        2003            0.0000000000
      6008      2003  TIP3      H1             16.1060233595      -23.1702322861      -33.1595096465  W2        2003            0.0000000000
      6009      2003  TIP3      H2             14.8040633595      -22.8837322861      -33.8769296465  W2        2003            0.0000000000
      6010      2004  TIP3      OH2            16.2082433595      -19.1673122861      -20.5682796465  W2        2004            0.0000000000
      6011      2004  TIP3      H1             15.6065633595      -19.7230222861      -21.0636496465  W2        2004            0.0000000000
      6012      2004  TIP3      H2             16.4896133595      -18.5003322861      -21.1945396465  W2        2004            0.0000000000
      6013      2005  TIP3      OH2            20.2561533595      -18.3109622861      -33.7628396465  W2        2005            0.0000000000
      6014      2005  TIP3      H1             20.9999433595      -17.7249122861      -33.9026796465  W2        2005            0.0000000000
      6015      2005  TIP3      H2             19.5619633595      -17.7423822861      -33.4295996465  W2        2005            0.0000000000
      6016      2006  TIP3      OH2             4.3308333595      -31.9345422861      -21.1610196465  W2        2006            0.0000000000
      6017      2006  TIP3      H1              3.4380633595      -31.5960022861      -21.2286196465  W2        2006            0.0000000000
      6018      2006  TIP3      H2              4.2321133595      -32.7899322861      -20.7429396465  W2        2006            0.0000000000
      6019      2007  TIP3      OH2            16.6186433595      -24.1180122861      -31.7370696465  W2        2007            0.0000000000
      6020      2007  TIP3      H1             16.3414033595      -24.8460822861      -31.1809596465  W2        2007            0.0000000000
      6021      2007  TIP3      H2             17.5459433595      -23.9988122861      -31.5318096465  W2        2007            0.0000000000
      6022      2008  TIP3      OH2             3.9820333595      -20.1301022861      -22.7260796465  W2        2008            0.0000000000
      6023      2008  TIP3      H1              4.1990633595      -21.0618622861      -22.7571096465  W2        2008            0.0000000000
      6024      2008  TIP3      H2              4.2283833595      -19.8556022861      -21.8427996465  W2        2008            0.0000000000
      6025      2009  TIP3      OH2             9.8434933595      -21.6786022861      -35.5168596465  W2        2009            0.0000000000
      6026      2009  TIP3      H1             10.0824733595      -22.4267922861      -36.0639696465  W2        2009            0.0000000000
      6027      2009  TIP3      H2              9.5746233595      -22.0664322861      -34.6840796465  W2        2009            0.0000000000
      6028      2010  TIP3      OH2             8.7805533595      -22.1082222861      -33.0605996465  W2        2010            0.0000000000
      6029      2010  TIP3      H1              8.9273533595      -22.6282422861      -32.2705096465  W2        2010            0.0000000000
      6030      2010  TIP3      H2              8.7777233595      -21.2014622861      -32.7540096465  W2        2010            0.0000000000
      6031      2011  TIP3      OH2             5.2336633595      -24.8558922861      -32.5500596465  W2        2011            0.0000000000
      6032      2011  TIP3      H1              4.5475933595      -24.5036422861      -31.9830896465  W2        2011            0.0000000000
      6033      2011  TIP3      H2              5.7564533595      -24.0929322861      -32.7966296465  W2        2011            0.0000000000
      6034      2012  TIP3      OH2            13.0651733595      -32.1935122861      -22.2711596465  W2        2012            0.0000000000
      6035      2012  TIP3      H1             13.7639633595      -32.1196422861      -21.6211896465  W2        2012            0.0000000000
      6036      2012  TIP3      H2             12.6843133595      -33.0580122861      -22.1168696465  W2        2012            0.0000000000
      6037      2013  TIP3      OH2            13.8496633595      -32.5413422861      -31.1739296465  W2        2013            0.0000000000
      6038      2013  TIP3      H1             14.0694933595      -32.0698022861      -31.9773896465  W2        2013            0.0000000000
      6039      2013  TIP3      H2             14.4080633595      -32.1470822861      -30.5038696465  W2        2013            0.0000000000
      6040      2014  TIP3      OH2            11.5182733595      -20.4108622861      -32.3111796465  W2        2014            0.0000000000
      6041      2014  TIP3      H1             10.7018833595      -19.9138922861      -32.2587496465  W2        2014            0.0000000000
      6042      2014  TIP3      H2             12.0479033595      -19.9355122861      -32.9512996465  W2        2014            0.0000000000
      6043      2015  TIP3      OH2            11.0496533595      -30.8134622861      -30.3390896465  W2        2015            0.0000000000
      6044      2015  TIP3      H1             11.8619133595      -30.3091422861      -30.2929196465  W2        2015            0.0000000000
      6045      2015  TIP3      H2             10.8049533595      -30.9584922861      -29.4251296465  W2        2015            0.0000000000
      6046      2016  TIP3      OH2            11.5852933595      -29.8271922861      -21.1544296465  W2        2016            0.0000000000
      6047      2016  TIP3      H1             11.7043233595      -29.2536522861      -20.3973896465  W2        2016            0.0000000000
      6048      2016  TIP3      H2             12.2407533595      -30.5152522861      -21.0396496465  W2        2016            0.0000000000
      6049      2017  TIP3      OH2            11.9333233595      -33.7321622861      -29.4009796465  W2        2017            0.0000000000
      6050      2017  TIP3      H1             11.5866733595      -33.1151022861      -28.7565496465  W2        2017            0.0000000000
      6051      2017  TIP3      H2             12.5920133595      -33.2315922861      -29.8824296465  W2        2017            0.0000000000
      6052      2018  TIP3      OH2             8.8565833595      -19.3671422861      -32.3294896465  W2        2018            0.0000000000
      6053      2018  TIP3      H1              9.0174533595      -18.5673922861      -32.8302296465  W2        2018            0.0000000000
      6054      2018  TIP3      H2              8.6593633595      -19.0605422861      -31.4444296465  W2        2018            0.0000000000
      6055      2019  TIP3      OH2             7.5910233595      -32.6692222861      -32.7137296465  W2        2019            0.0000000000
      6056      2019  TIP3      H1              7.5075033595      -31.7809122861      -32.3670896465  W2        2019            0.0000000000
      6057      2019  TIP3      H2              8.4810533595      -32.9345522861      -32.4820496465  W2        2019            0.0000000000
      6058      2020  TIP3      OH2            17.7898733595      -31.9201622861      -20.3194596465  W2        2020            0.0000000000
      6059      2020  TIP3      H1             16.8734533595      -31.6579922861      -20.4070896465  W2        2020            0.0000000000
      6060      2020  TIP3      H2             18.1253733595      -31.9232622861      -21.2159296465  W2        2020            0.0000000000
      6061      2021  TIP3      OH2            16.3919733595      -28.1700622861      -26.2237296465  W2        2021            0.0000000000
      6062      2021  TIP3      H1             15.5944133595      -28.5850422861      -26.5522296465  W2        2021            0.0000000000
      6063      2021  TIP3      H2             16.8370833595      -28.8606922861      -25.7326796465  W2        2021            0.0000000000
      6064      2022  TIP3      OH2             5.8495533595      -22.2420022861      -33.6532796465  W2        2022            0.0000000000
      6065      2022  TIP3      H1              6.4417033595      -21.5425222861      -33.3770396465  W2        2022            0.0000000000
      6066      2022  TIP3      H2              6.3088533595      -22.6750522861      -34.3728196465  W2        2022            0.0000000000
      6067      2023  TIP3      OH2             4.1654733595      -29.5777022861      -34.5373396465  W2        2023            0.0000000000
      6068      2023  TIP3      H1              4.1207333595      -28.6383922861      -34.3586396465  W2        2023            0.0000000000
      6069      2023  TIP3      H2              3.2777933595      -29.8132122861      -34.8071296465  W2        2023            0.0000000000
      6070      2024  TIP3      OH2            17.4784333595      -18.9138122861      -24.6013796465  W2        2024            0.0000000000
      6071      2024  TIP3      H1             17.3228633595      -18.2353722861      -25.2584496465  W2        2024            0.0000000000
      6072      2024  TIP3      H2             18.4110733595      -18.8418822861      -24.3983196465  W2        2024            0.0000000000
      6073      2025  TIP3      OH2             4.9736733595      -34.7960422861      -25.8642396465  W2        2025            0.0000000000
      6074      2025  TIP3      H1              4.7446533595      -34.7367922861      -26.7917396465  W2        2025            0.0000000000
      6075      2025  TIP3      H2              4.5310133595      -35.5874922861      -25.5578296465  W2        2025            0.0000000000
      6076      2026  TIP3      OH2             3.9040033595      -20.8553322861      -29.7036596465  W2        2026            0.0000000000
      6077      2026  TIP3      H1              3.0718633595      -20.3830622861      -29.6765196465  W2        2026            0.0000000000
      6078      2026  TIP3      H2              4.4498333595      -20.3455722861      -30.3023496465  W2        2026            0.0000000000
      6079      2027  TIP3      OH2             3.1923733595      -18.2429622861      -18.3738596465  W2        2027            0.0000000000
      6080      2027  TIP3      H1              3.7325933595      -18.4595622861      -17.6139396465  W2        2027            0.0000000000
      6081      2027  TIP3      H2              2.7111733595      -19.0483622861      -18.5636096465  W2        2027            0.0000000000
      6082      2028  TIP3      OH2             7.7897133595      -19.3235222861      -16.7534396465  W2        2028            0.0000000000
      6083      2028  TIP3      H1              8.5574333595      -19.7824422861      -16.4125196465  W2        2028            0.0000000000
      6084      2028  TIP3      H2              7.7683333595      -19.5495422861      -17.6833196465  W2        2028            0.0000000000
      6085      2029  TIP3      OH2            11.8816733595      -19.8154622861      -35.3782596465  W2        2029            0.0000000000
      6086      2029  TIP3      H1             11.2377733595      -20.4466022861      -35.0568896465  W2        2029            0.0000000000
      6087      2029  TIP3      H2             12.6435033595      -20.3466622861      -35.6099096465  W2        2029            0.0000000000
      6088      2030  TIP3      OH2            14.3665833595      -20.9434122861      -18.0242896465  W2        2030            0.0000000000
      6089      2030  TIP3      H1             14.0155333595      -21.8001122861      -17.7812496465  W2        2030            0.0000000000
      6090      2030  TIP3      H2             15.0929033595      -20.8007422861      -17.4173896465  W2        2030            0.0000000000
      6091      2031  TIP3      OH2            16.4859633595      -19.9984722861      -35.1444596465  W2        2031            0.0000000000
      6092      2031  TIP3      H1             16.7690033595      -20.7929522861      -34.6917696465  W2        2031            0.0000000000
      6093      2031  TIP3      H2             17.2257533595      -19.7653722861      -35.7053496465  W2        2031            0.0000000000
      6094      2032  TIP3      OH2             3.0993233595      -24.4325522861      -17.4194296465  W2        2032            0.0000000000
      6095      2032  TIP3      H1              3.2433733595      -25.3344822861      -17.7057596465  W2        2032            0.0000000000
      6096      2032  TIP3      H2              2.3270633595      -24.1463422861      -17.9071996465  W2        2032            0.0000000000
      6097      2033  TIP3      OH2             7.4406933595      -24.0889822861      -35.2869696465  W2        2033            0.0000000000
      6098      2033  TIP3      H1              7.5051033595      -24.8830222861      -34.7563296465  W2        2033            0.0000000000
      6099      2033  TIP3      H2              8.0936133595      -24.2077022861      -35.9767696465  W2        2033            0.0000000000
      6100      2034  TIP3      OH2             9.7549333595      -24.4627422861      -17.9867896465  W2        2034            0.0000000000
      6101      2034  TIP3      H1              9.4263133595      -24.1919322861      -18.8440496465  W2        2034            0.0000000000
      6102      2034  TIP3      H2              9.9067533595      -25.4037622861      -18.0742896465  W2        2034            0.0000000000
      6103      2035  TIP3      OH2            12.7930333595      -23.0418122861      -35.5511696465  W2        2035            0.0000000000
      6104      2035  TIP3      H1             12.5244433595      -22.8616022861      -34.6502796465  W2        2035            0.0000000000
      6105      2035  TIP3      H2             12.5865933595      -23.9671922861      -35.6825896465  W2        2035            0.0000000000
      6106      2036  TIP3      OH2            15.4894533595      -24.5470122861      -20.6035596465  W2        2036            0.0000000000
      6107      2036  TIP3      H1             16.2349333595      -23.9586422861      -20.7231596465  W2        2036            0.0000000000
      6108      2036  TIP3      H2             14.7321333595      -23.9650422861      -20.5402496465  W2        2036            0.0000000000
      6109      2037  TIP3      OH2             3.9319733595      -27.2322222861      -17.9994996465  W2        2037            0.0000000000
      6110      2037  TIP3      H1              4.3400933595      -28.0895622861      -18.1204396465  W2        2037            0.0000000000
      6111      2037  TIP3      H2              3.6717333595      -27.2180922861      -17.0784696465  W2        2037            0.0000000000
      6112      2038  TIP3      OH2             8.5900733595      -26.1163622861      -32.9811696465  W2        2038            0.0000000000
      6113      2038  TIP3      H1              8.1302733595      -26.6005322861      -32.2953196465  W2        2038            0.0000000000
      6114      2038  TIP3      H2              8.8449433595      -26.7848222861      -33.6171196465  W2        2038            0.0000000000
      6115      2039  TIP3      OH2             7.8790033595      -28.2236522861      -20.6252096465  W2        2039            0.0000000000
      6116      2039  TIP3      H1              7.2606133595      -27.5489922861      -20.3447396465  W2        2039            0.0000000000
      6117      2039  TIP3      H2              8.2231233595      -27.9022622861      -21.4585896465  W2        2039            0.0000000000
      6118      2040  TIP3      OH2             9.6611133595      -27.8731822861      -34.7188496465  W2        2040            0.0000000000
      6119      2040  TIP3      H1              9.4806133595      -28.0280622861      -35.6460196465  W2        2040            0.0000000000
      6120      2040  TIP3      H2             10.6111633595      -27.7653122861      -34.6740596465  W2        2040            0.0000000000
      6121      2041  TIP3      OH2            12.8988233595      -25.7521222861      -17.3477296465  W2        2041            0.0000000000
      6122      2041  TIP3      H1             13.8519433595      -25.6682122861      -17.3751296465  W2        2041            0.0000000000
      6123      2041  TIP3      H2             12.7382833595      -26.4639422861      -16.7282396465  W2        2041            0.0000000000
      6124      2042  TIP3      OH2            19.0509433595      -25.5187622861      -35.2730396465  W2        2042            0.0000000000
      6125      2042  TIP3      H1             18.7774233595      -25.9432122861      -36.0862096465  W2        2042            0.0000000000
      6126      2042  TIP3      H2             19.0903533595      -24.5873122861      -35.4899996465  W2        2042            0.0000000000
      6127      2043  TIP3      OH2             8.2183733595      -30.8685722861      -19.5428996465  W2        2043            0.0000000000
      6128      2043  TIP3      H1              8.3684633595      -31.5974422861      -20.1449296465  W2        2043            0.0000000000
      6129      2043  TIP3      H2              8.2206133595      -30.0914022861      -20.1016796465  W2        2043            0.0000000000
      6130      2044  TIP3      OH2             8.6309433595      -32.4989922861      -22.0501596465  W2        2044            0.0000000000
      6131      2044  TIP3      H1              9.1666933595      -32.0473222861      -22.7022296465  W2        2044            0.0000000000
      6132      2044  TIP3      H2              7.7789033595      -32.6070122861      -22.4727496465  W2        2044            0.0000000000
      6133      2045  TIP3      OH2            10.2127833595      -27.0593722861      -21.8106396465  W2        2045            0.0000000000
      6134      2045  TIP3      H1             10.9632633595      -27.2156222861      -22.3838596465  W2        2045            0.0000000000
      6135      2045  TIP3      H2              9.8736133595      -26.2077122861      -22.0860896465  W2        2045            0.0000000000
      6136      2046  TIP3      OH2            14.6284033595      -29.2441922861      -16.7821096465  W2        2046            0.0000000000
      6137      2046  TIP3      H1             14.8205333595      -30.1752522861      -16.8936596465  W2        2046            0.0000000000
      6138      2046  TIP3      H2             15.4860333595      -28.8192422861      -16.7925696465  W2        2046            0.0000000000
      6139      2047  TIP3      OH2            15.9451233595      -26.4556722861      -18.7048396465  W2        2047            0.0000000000
      6140      2047  TIP3      H1             15.6636233595      -25.7462122861      -19.2824596465  W2        2047            0.0000000000
      6141      2047  TIP3      H2             16.8875533595      -26.5283722861      -18.8557196465  W2        2047            0.0000000000
      6142      2048  TIP3      OH2             6.6970033595      -29.6702222861      -17.6313396465  W2        2048            0.0000000000
      6143      2048  TIP3      H1              5.9299033595      -30.2027422861      -17.8415796465  W2        2048            0.0000000000
      6144      2048  TIP3      H2              7.3759033595      -29.9801822861      -18.2307096465  W2        2048            0.0000000000
      6145      2049  TIP3      OH2             9.4364933595      -35.0424222861      -21.6187996465  W2        2049            0.0000000000
      6146      2049  TIP3      H1              9.3384533595      -34.0961022861      -21.7241796465  W2        2049            0.0000000000
      6147      2049  TIP3      H2              8.6941133595      -35.4150422861      -22.0944496465  W2        2049            0.0000000000
      6148      2050  TIP3      OH2            10.7005433595      -30.7208822861      -18.0549596465  W2        2050            0.0000000000
      6149      2050  TIP3      H1             10.4650833595      -30.9402122861      -17.1534696465  W2        2050            0.0000000000
      6150      2050  TIP3      H2              9.9172333595      -30.9277622861      -18.5647096465  W2        2050            0.0000000000
      6151      2051  TIP3      OH2            13.4162033595      -31.5935322861      -18.9796096465  W2        2051            0.0000000000
      6152      2051  TIP3      H1             12.4687433595      -31.5615622861      -18.8472796465  W2        2051            0.0000000000
      6153      2051  TIP3      H2             13.7288733595      -32.2188222861      -18.3257896465  W2        2051            0.0000000000
      6154      2052  TIP3      OH2            15.0503533595      -32.9594222861      -16.9744196465  W2        2052            0.0000000000
      6155      2052  TIP3      H1             14.9535333595      -33.9116922861      -16.9802296465  W2        2052            0.0000000000
      6156      2052  TIP3      H2             14.7286633595      -32.6907422861      -16.1138696465  W2        2052            0.0000000000
      6157      2053  TIP3      OH2             4.8772833595      -31.7498422861      -17.9268696465  W2        2053            0.0000000000
      6158      2053  TIP3      H1              5.0890233595      -32.4562322861      -18.5371196465  W2        2053            0.0000000000
      6159      2053  TIP3      H2              4.7660333595      -32.1872422861      -17.0827496465  W2        2053            0.0000000000
      6160      2054  TIP3      OH2             9.6583033595      -35.7486822861      -18.9475196465  W2        2054            0.0000000000
      6161      2054  TIP3      H1             10.3701433595      -36.3884622861      -18.9616096465  W2        2054            0.0000000000
      6162      2054  TIP3      H2              9.5573433595      -35.4818522861      -19.8612096465  W2        2054            0.0000000000
      6163      2055  TIP3      OH2            10.0120533595      -34.0658422861      -16.8938896465  W2        2055            0.0000000000
      6164      2055  TIP3      H1              9.8802733595      -34.5414622861      -17.7140396465  W2        2055            0.0000000000
      6165      2055  TIP3      H2              9.4127933595      -33.3214822861      -16.9491796465  W2        2055            0.0000000000
      6166      2056  TIP3      OH2             9.5582833595      -17.1828122861      -33.7174896465  W2        2056            0.0000000000
      6167      2056  TIP3      H1             10.4913533595      -17.0249422861      -33.5736496465  W2        2056            0.0000000000
      6168      2056  TIP3      H2              9.2941633595      -16.5075122861      -34.3423396465  W2        2056            0.0000000000
      6169      2057  TIP3      OH2             3.1267733595      -22.5464322861      -34.2346796465  W2        2057            0.0000000000
      6170      2057  TIP3      H1              4.0406933595      -22.4675422861      -33.9612896465  W2        2057            0.0000000000
      6171      2057  TIP3      H2              3.1340833595      -23.2334722861      -34.9011196465  W2        2057            0.0000000000
      6172      2058  TIP3      OH2             1.7758333595      -17.1535822861      -29.1572896465  W2        2058            0.0000000000
      6173      2058  TIP3      H1              1.1285433595      -17.6154122861      -29.6901696465  W2        2058            0.0000000000
      6174      2058  TIP3      H2              2.1302933595      -17.8252522861      -28.5746696465  W2        2058            0.0000000000
      6175      2059  TIP3      OH2             2.6457533595      -19.0728822861      -27.3526696465  W2        2059            0.0000000000
      6176      2059  TIP3      H1              2.3114333595      -19.9531522861      -27.1806496465  W2        2059            0.0000000000
      6177      2059  TIP3      H2              2.8679933595      -18.7273822861      -26.4881096465  W2        2059            0.0000000000
      6178      2060  TIP3      OH2            20.1942333595      -18.2632422861      -24.3721896465  W2        2060            0.0000000000
      6179      2060  TIP3      H1             20.1729033595      -18.0784022861      -23.4332496465  W2        2060            0.0000000000
      6180      2060  TIP3      H2             20.8848533595      -17.6948422861      -24.7130496465  W2        2060            0.0000000000
      6181      2061  TIP3      OH2            19.7575233595      -18.6961322861      -21.4502796465  W2        2061            0.0000000000
      6182      2061  TIP3      H1             19.2703933595      -19.4317222861      -21.8215396465  W2        2061            0.0000000000
      6183      2061  TIP3      H2             20.3067933595      -19.0897422861      -20.7723396465  W2        2061            0.0000000000
      6184      2062  TIP3      OH2            18.2082533595      -22.9063222861      -16.8122496465  W2        2062            0.0000000000
      6185      2062  TIP3      H1             17.3423633595      -23.0113522861      -16.4180196465  W2        2062            0.0000000000
      6186      2062  TIP3      H2             18.5848433595      -22.1479922861      -16.3657796465  W2        2062            0.0000000000
      6187      2063  TIP3      OH2            19.5092233595      -24.6499522861      -31.2979996465  W2        2063            0.0000000000
      6188      2063  TIP3      H1             20.3593633595      -24.2288622861      -31.1708396465  W2        2063            0.0000000000
      6189      2063  TIP3      H2             19.5147333595      -25.3899422861      -30.6908596465  W2        2063            0.0000000000
      6190      2064  TIP3      OH2            19.9037833595      -26.5962122861      -29.4744296465  W2        2064            0.0000000000
      6191      2064  TIP3      H1             19.1772433595      -27.0759522861      -29.0766696465  W2        2064            0.0000000000
      6192      2064  TIP3      H2             20.4851133595      -26.3907422861      -28.7422696465  W2        2064            0.0000000000
      6193      2065  TIP3      OH2            19.6629033595      -23.8114622861      -24.5266696465  W2        2065            0.0000000000
      6194      2065  TIP3      H1             20.4963233595      -24.1894622861      -24.8073096465  W2        2065            0.0000000000
      6195      2065  TIP3      H2             19.7749333595      -22.8683422861      -24.6457596465  W2        2065            0.0000000000
      6196      2066  TIP3      OH2            18.1491333595      -20.9337122861      -22.2198296465  W2        2066            0.0000000000
      6197      2066  TIP3      H1             17.5016633595      -20.6085622861      -21.5943096465  W2        2066            0.0000000000
      6198      2066  TIP3      H2             17.6315333595      -21.3739422861      -22.8939996465  W2        2066            0.0000000000
      6199      2067  TIP3      OH2            20.1720933595      -26.6953622861      -33.0832996465  W2        2067            0.0000000000
      6200      2067  TIP3      H1             19.6502033595      -26.3389522861      -33.8022096465  W2        2067            0.0000000000
      6201      2067  TIP3      H2             20.1390133595      -26.0205822861      -32.4052096465  W2        2067            0.0000000000
      6202      2068  TIP3      OH2            18.5209933595      -29.4558022861      -34.5325896465  W2        2068            0.0000000000
      6203      2068  TIP3      H1             18.6174333595      -28.7891022861      -35.2126196465  W2        2068            0.0000000000
      6204      2068  TIP3      H2             18.3809533595      -30.2711722861      -35.0140396465  W2        2068            0.0000000000
      6205      2069  TIP3      OH2            17.6904633595      -28.0755622861      -28.9115596465  W2        2069            0.0000000000
      6206      2069  TIP3      H1             17.5403433595      -29.0207022861      -28.9317796465  W2        2069            0.0000000000
      6207      2069  TIP3      H2             17.3369133595      -27.7944222861      -28.0676496465  W2        2069            0.0000000000
      6208      2070  TIP3      OH2             2.7257033595      -25.9973422861      -24.9011796465  W2        2070            0.0000000000
      6209      2070  TIP3      H1              2.9099933595      -26.0791722861      -25.8368896465  W2        2070            0.0000000000
      6210      2070  TIP3      H2              3.5749933595      -26.1216422861      -24.4775396465  W2        2070            0.0000000000
      6211      2071  TIP3      OH2            18.5467533595      -26.1052322861      -19.2727296465  W2        2071            0.0000000000
      6212      2071  TIP3      H1             19.1294833595      -26.8400022861      -19.0810096465  W2        2071            0.0000000000
      6213      2071  TIP3      H2             19.1106833595      -25.3332022861      -19.2261496465  W2        2071            0.0000000000
      6214      2072  TIP3      OH2            20.0434633595      -28.2026522861      -18.5881896465  W2        2072            0.0000000000
      6215      2072  TIP3      H1             19.1801333595      -28.5814422861      -18.7537196465  W2        2072            0.0000000000
      6216      2072  TIP3      H2             20.6478333595      -28.9411722861      -18.6626096465  W2        2072            0.0000000000
      6217      2073  TIP3      OH2            17.7683733595      -32.0478222861      -35.4150396465  W2        2073            0.0000000000
      6218      2073  TIP3      H1             18.3789533595      -32.4191422861      -34.7782196465  W2        2073            0.0000000000
      6219      2073  TIP3      H2             16.9315233595      -32.4691322861      -35.2190396465  W2        2073            0.0000000000
      6220      2074  TIP3      OH2            17.4009433595      -30.4929822861      -30.4490496465  W2        2074            0.0000000000
      6221      2074  TIP3      H1             17.6806533595      -31.3999422861      -30.3248796465  W2        2074            0.0000000000
      6222      2074  TIP3      H2             18.1601133595      -30.0588322861      -30.8381296465  W2        2074            0.0000000000
      6223      2075  TIP3      OH2            18.0127733595      -29.9112422861      -25.0131596465  W2        2075            0.0000000000
      6224      2075  TIP3      H1             18.9455733595      -29.6992522861      -25.0475596465  W2        2075            0.0000000000
      6225      2075  TIP3      H2             17.7775233595      -29.8100322861      -24.0908596465  W2        2075            0.0000000000
      6226      2076  TIP3      OH2            18.0419633595      -29.1747122861      -22.2372196465  W2        2076            0.0000000000
      6227      2076  TIP3      H1             17.1990933595      -28.9066722861      -21.8712396465  W2        2076            0.0000000000
      6228      2076  TIP3      H2             18.4843933595      -28.3525222861      -22.4481096465  W2        2076            0.0000000000
      6229      2077  TIP3      OH2             2.3231833595      -30.7268422861      -18.7602996465  W2        2077            0.0000000000
      6230      2077  TIP3      H1              3.2426733595      -30.8490122861      -18.5239896465  W2        2077            0.0000000000
      6231      2077  TIP3      H2              1.8736333595      -31.4768722861      -18.3709496465  W2        2077            0.0000000000
      6232      2078  TIP3      OH2            20.3251233595      -35.1946922861      -16.8837196465  W2        2078            0.0000000000
      6233      2078  TIP3      H1             20.6748233595      -35.8483422861      -17.4892496465  W2        2078            0.0000000000
      6234      2078  TIP3      H2             20.4720733595      -34.3572822861      -17.3234596465  W2        2078            0.0000000000
      6235      2079  TIP3      OH2            18.0144233595      -33.2300522861      -30.4008496465  W2        2079            0.0000000000
      6236      2079  TIP3      H1             18.1969233595      -33.6789022861      -29.5753496465  W2        2079            0.0000000000
      6237      2079  TIP3      H2             17.4147133595      -33.8146122861      -30.8643896465  W2        2079            0.0000000000
      6238      2080  TIP3      OH2             3.5444333595      -32.4146822861      -25.8690096465  W2        2080            0.0000000000
      6239      2080  TIP3      H1              3.9895933595      -33.2064322861      -25.5670396465  W2        2080            0.0000000000
      6240      2080  TIP3      H2              4.0107333595      -31.6981622861      -25.4384496465  W2        2080            0.0000000000
      6241      2081  TIP3      OH2             1.8484633595      -29.4153822861      -24.7999896465  W2        2081            0.0000000000
      6242      2081  TIP3      H1              2.3404433595      -29.6363322861      -25.5907896465  W2        2081            0.0000000000
      6243      2081  TIP3      H2              2.2105533595      -28.5750422861      -24.5190396465  W2        2081            0.0000000000
      6244      2082  TIP3      OH2            19.8448433595      -33.0852322861      -18.5345896465  W2        2082            0.0000000000
      6245      2082  TIP3      H1             18.9274133595      -32.8145222861      -18.5702396465  W2        2082            0.0000000000
      6246      2082  TIP3      H2             19.9677833595      -33.6203922861      -19.3186196465  W2        2082            0.0000000000
      6247      2083  TIP3      OH2            19.8810433595      -33.1622422861      -33.8728196465  W2        2083            0.0000000000
      6248      2083  TIP3      H1             20.2933033595      -33.8836722861      -34.3480196465  W2        2083            0.0000000000
      6249      2083  TIP3      H2             20.5626933595      -32.4927822861      -33.8143896465  W2        2083            0.0000000000
      6250      2084  TIP3      OH2             2.1621133595      -33.1574722861      -30.7457496465  W2        2084            0.0000000000
      6251      2084  TIP3      H1              1.2369533595      -32.9488122861      -30.8751996465  W2        2084            0.0000000000
      6252      2084  TIP3      H2              2.6161033595      -32.6733922861      -31.4355196465  W2        2084            0.0000000000
      6253      2085  TIP3      OH2            16.9328333595      -18.1733022861      -28.8000096465  W2        2085            0.0000000000
      6254      2085  TIP3      H1             17.5851233595      -18.5210922861      -29.4080996465  W2        2085            0.0000000000
      6255      2085  TIP3      H2             17.4432133595      -17.6849822861      -28.1540396465  W2        2085            0.0000000000
      6256      2086  TIP3      OH2             2.1256533595      -34.4195722861      -22.4014996465  W2        2086            0.0000000000
      6257      2086  TIP3      H1              1.4607033595      -34.6655422861      -21.7584096465  W2        2086            0.0000000000
      6258      2086  TIP3      H2              1.6827833595      -33.7975322861      -22.9786996465  W2        2086            0.0000000000
      6259      2087  TIP3      OH2             4.3175833595      -21.2441622861      -18.2569196465  W2        2087            0.0000000000
      6260      2087  TIP3      H1              3.4968333595      -21.0695122861      -18.7174496465  W2        2087            0.0000000000
      6261      2087  TIP3      H2              4.0653633595      -21.3176922861      -17.3364796465  W2        2087            0.0000000000
      6262      2088  TIP3      OH2             7.2718733595      -20.2700422861      -21.9985196465  W2        2088            0.0000000000
      6263      2088  TIP3      H1              6.8469833595      -19.4601922861      -22.2810596465  W2        2088            0.0000000000
      6264      2088  TIP3      H2              8.1761533595      -20.1846322861      -22.3005396465  W2        2088            0.0000000000
      6265      2089  TIP3      OH2            11.5830133595      -18.8710422861      -19.0391496465  W2        2089            0.0000000000
      6266      2089  TIP3      H1             11.7677633595      -19.2044322861      -18.1611196465  W2        2089            0.0000000000
      6267      2089  TIP3      H2             12.4294633595      -18.5611822861      -19.3612296465  W2        2089            0.0000000000
      6268      2090  TIP3      OH2            13.9280533595      -17.5851522861      -19.7950096465  W2        2090            0.0000000000
      6269      2090  TIP3      H1             14.6049433595      -18.2179222861      -20.0350896465  W2        2090            0.0000000000
      6270      2090  TIP3      H2             14.2499333595      -17.1841022861      -18.9876796465  W2        2090            0.0000000000
      6271      2091  TIP3      OH2            18.8454333595      -34.9956022861      -20.7155096465  W2        2091            0.0000000000
      6272      2091  TIP3      H1             18.0327833595      -34.6705722861      -21.1030396465  W2        2091            0.0000000000
      6273      2091  TIP3      H2             19.0782833595      -35.7557522861      -21.2485996465  W2        2091            0.0000000000
      6274      2092  TIP3      OH2             4.6735433595      -17.0136522861      -21.9509896465  W2        2092            0.0000000000
      6275      2092  TIP3      H1              3.9531833595      -16.5735522861      -22.4022196465  W2        2092            0.0000000000
      6276      2092  TIP3      H2              4.3079433595      -17.2641822861      -21.1025896465  W2        2092            0.0000000000
      6277      2093  TIP3      OH2             7.1408033595      -17.4132622861      -22.9212696465  W2        2093            0.0000000000
      6278      2093  TIP3      H1              6.2760233595      -17.3414122861      -22.5172596465  W2        2093            0.0000000000
      6279      2093  TIP3      H2              7.0857033595      -16.8665322861      -23.7050196465  W2        2093            0.0000000000
      6280      2094  TIP3      OH2            11.8513633595      -17.5253722861      -23.7456696465  W2        2094            0.0000000000
      6281      2094  TIP3      H1             11.3947633595      -16.9964022861      -24.3998296465  W2        2094            0.0000000000
      6282      2094  TIP3      H2             12.0141633595      -16.9222322861      -23.0204396465  W2        2094            0.0000000000
      6283      2095  TIP3      OH2            14.1789933595      -18.6474122861      -22.8006396465  W2        2095            0.0000000000
      6284      2095  TIP3      H1             13.2743633595      -18.4823922861      -23.0664296465  W2        2095            0.0000000000
      6285      2095  TIP3      H2             14.6078533595      -17.7941922861      -22.8662996465  W2        2095            0.0000000000
      6286      2096  TIP3      OH2            16.7831833595      -17.0775022861      -22.5058596465  W2        2096            0.0000000000
      6287      2096  TIP3      H1             16.6013833595      -16.1616122861      -22.7163696465  W2        2096            0.0000000000
      6288      2096  TIP3      H2             16.9599633595      -17.4877922861      -23.3523996465  W2        2096            0.0000000000
      6289      2097  TIP3      OH2             4.0883533595      -18.3904022861      -25.0408096465  W2        2097            0.0000000000
      6290      2097  TIP3      H1              4.0699533595      -18.8158922861      -24.1835796465  W2        2097            0.0000000000
      6291      2097  TIP3      H2              4.8931433595      -18.7089022861      -25.4495896465  W2        2097            0.0000000000
      6292      2098  TIP3      OH2             6.2296633595      -19.6805322861      -26.3858196465  W2        2098            0.0000000000
      6293      2098  TIP3      H1              6.0107333595      -20.5967922861      -26.2162196465  W2        2098            0.0000000000
      6294      2098  TIP3      H2              7.0538833595      -19.5404922861      -25.9196796465  W2        2098            0.0000000000
      6295      2099  TIP3      OH2             8.7669133595      -19.2106022861      -25.5370196465  W2        2099            0.0000000000
      6296      2099  TIP3      H1              8.9794833595      -20.0987022861      -25.8239296465  W2        2099            0.0000000000
      6297      2099  TIP3      H2              8.8314233595      -19.2448322861      -24.5826196465  W2        2099            0.0000000000
      6298      2100  TIP3      OH2            12.2752833595      -33.5465422861      -26.3926896465  W2        2100            0.0000000000
      6299      2100  TIP3      H1             11.6009633595      -34.1759822861      -26.1371096465  W2        2100            0.0000000000
      6300      2100  TIP3      H2             12.8392033595      -34.0306522861      -26.9958996465  W2        2100            0.0000000000
      6301      2101  TIP3      OH2            17.4180033595      -35.4391422861      -26.2799796465  W2        2101            0.0000000000
      6302      2101  TIP3      H1             18.0217633595      -34.8916022861      -26.7818796465  W2        2101            0.0000000000
      6303      2101  TIP3      H2             16.5482033595      -35.1201022861      -26.5205696465  W2        2101            0.0000000000
      6304      2102  TIP3      OH2            19.1450433595      -34.3002722861      -27.9468896465  W2        2102            0.0000000000
      6305      2102  TIP3      H1             19.7567933595      -34.8147022861      -28.4735296465  W2        2102            0.0000000000
      6306      2102  TIP3      H2             19.5273833595      -33.4230622861      -27.9234496465  W2        2102            0.0000000000
      6307      2103  TIP3      OH2             4.6020333595      -34.9125122861      -28.5706996465  W2        2103            0.0000000000
      6308      2103  TIP3      H1              3.8250133595      -35.1470222861      -29.0781096465  W2        2103            0.0000000000
      6309      2103  TIP3      H2              5.1323933595      -35.7093022861      -28.5618996465  W2        2103            0.0000000000
      6310      2104  TIP3      OH2             3.4383733595      -35.1147022861      -32.7670896465  W2        2104            0.0000000000
      6311      2104  TIP3      H1              3.8774433595      -34.5036522861      -33.3587396465  W2        2104            0.0000000000
      6312      2104  TIP3      H2              2.8046133595      -34.5762922861      -32.2930896465  W2        2104            0.0000000000
      6313      2105  TIP3      OH2             9.1812933595      -34.9858022861      -28.7573896465  W2        2105            0.0000000000
      6314      2105  TIP3      H1             10.0556333595      -34.5973722861      -28.7869596465  W2        2105            0.0000000000
      6315      2105  TIP3      H2              9.0453733595      -35.2010222861      -27.8346696465  W2        2105            0.0000000000
      6316      2106  TIP3      OH2            14.7381333595      -34.9558222861      -27.1082196465  W2        2106            0.0000000000
      6317      2106  TIP3      H1             14.8142933595      -34.8606622861      -28.0576196465  W2        2106            0.0000000000
      6318      2106  TIP3      H2             14.4630533595      -35.8635322861      -26.9793096465  W2        2106            0.0000000000
      6319      2107  TIP3      OH2            16.0913933595      -34.9300422861      -31.4157196465  W2        2107            0.0000000000
      6320      2107  TIP3      H1             15.3885033595      -34.3151222861      -31.6255796465  W2        2107            0.0000000000
      6321      2107  TIP3      H2             15.6465333595      -35.7673722861      -31.2846296465  W2        2107            0.0000000000
      6322      2108  TIP3      OH2             3.3393233595      -19.1664822861      -31.8695796465  W2        2108            0.0000000000
      6323      2108  TIP3      H1              2.6543133595      -19.2045922861      -32.5370696465  W2        2108            0.0000000000
      6324      2108  TIP3      H2              3.3430433595      -18.2537222861      -31.5813696465  W2        2108            0.0000000000
      6325      2109  TIP3      OH2             5.2992833595      -33.1985522861      -34.3246796465  W2        2109            0.0000000000
      6326      2109  TIP3      H1              5.7906233595      -33.8283122861      -34.8521296465  W2        2109            0.0000000000
      6327      2109  TIP3      H2              5.9229133595      -32.9026122861      -33.6615596465  W2        2109            0.0000000000
      6328      2110  TIP3      OH2            10.3252933595      -32.9054022861      -31.8676296465  W2        2110            0.0000000000
      6329      2110  TIP3      H1             10.5034233595      -33.5520822861      -31.1847696465  W2        2110            0.0000000000
      6330      2110  TIP3      H2             10.2719133595      -32.0716322861      -31.4005196465  W2        2110            0.0000000000
      6331      2111  TIP3      OH2            12.2036733595      -17.9569922861      -33.4719596465  W2        2111            0.0000000000
      6332      2111  TIP3      H1             13.0696933595      -17.5902522861      -33.6501396465  W2        2111            0.0000000000
      6333      2111  TIP3      H2             11.9569533595      -18.3961922861      -34.2858796465  W2        2111            0.0000000000
      6334      2112  TIP3      OH2            18.9126333595      -18.3939622861      -30.7928496465  W2        2112            0.0000000000
      6335      2112  TIP3      H1             18.7183433595      -19.1417522861      -31.3578896465  W2        2112            0.0000000000
      6336      2112  TIP3      H2             18.8736433595      -17.6359522861      -31.3760596465  W2        2112            0.0000000000
      6337      2113  TIP3      OH2             4.5598333595      -34.3983222861      -19.0530796465  W2        2113            0.0000000000
      6338      2113  TIP3      H1              4.1936533595      -35.1640622861      -18.6106096465  W2        2113            0.0000000000
      6339      2113  TIP3      H2              5.4726833595      -34.3693022861      -18.7665696465  W2        2113            0.0000000000
      6340      2114  TIP3      OH2             6.5329133595      -35.0478822861      -17.5173696465  W2        2114            0.0000000000
      6341      2114  TIP3      H1              7.4312733595      -35.3218622861      -17.7020296465  W2        2114            0.0000000000
      6342      2114  TIP3      H2              6.1462233595      -35.7902822861      -17.0531096465  W2        2114            0.0000000000
      6343      2115  TIP3      OH2             5.1574433595      -18.2464022861      -34.8443696465  W2        2115            0.0000000000
      6344      2115  TIP3      H1              4.8899033595      -17.9601122861      -33.9710596465  W2        2115            0.0000000000
      6345      2115  TIP3      H2              5.9287033595      -18.7924822861      -34.6921196465  W2        2115            0.0000000000
      6346      2116  TIP3      OH2            14.9541433595      -35.7153522861      -17.3350896465  W2        2116            0.0000000000
      6347      2116  TIP3      H1             15.0308633595      -36.1412822861      -16.4813196465  W2        2116            0.0000000000
      6348      2116  TIP3      H2             15.8478033595      -35.7018822861      -17.6777396465  W2        2116            0.0000000000
      6349      2117  TIP3      OH2            18.1302533595      -19.6427222861      -18.6426696465  W2        2117            0.0000000000
      6350      2117  TIP3      H1             17.3484433595      -19.8289222861      -19.1626096465  W2        2117            0.0000000000
      6351      2117  TIP3      H2             18.0582433595      -18.7132922861      -18.4254196465  W2        2117            0.0000000000
      6352      2118  TIP3      OH2            32.5362933595      -25.7562822861      -28.6119496465  W2        2118            0.0000000000
      6353      2118  TIP3      H1             32.6254033595      -24.8124622861      -28.7442396465  W2        2118            0.0000000000
      6354      2118  TIP3      H2             31.8980533595      -26.0316422861      -29.2700096465  W2        2118            0.0000000000
      6355      2119  TIP3      OH2            31.4694233595      -26.5012122861      -25.1931296465  W2        2119            0.0000000000
      6356      2119  TIP3      H1             31.4311733595      -27.1475822861      -24.4881696465  W2        2119            0.0000000000
      6357      2119  TIP3      H2             31.1470733595      -26.9677722861      -25.9642596465  W2        2119            0.0000000000
      6358      2120  TIP3      OH2            23.8379233595      -26.8870022861      -23.6001396465  W2        2120            0.0000000000
      6359      2120  TIP3      H1             23.8791333595      -27.5126722861      -22.8768996465  W2        2120            0.0000000000
      6360      2120  TIP3      H2             24.5406933595      -26.2631422861      -23.4180996465  W2        2120            0.0000000000
      6361      2121  TIP3      OH2            35.1754433595      -23.5621722861      -26.8916196465  W2        2121            0.0000000000
      6362      2121  TIP3      H1             34.7347133595      -24.2825722861      -26.4410596465  W2        2121            0.0000000000
      6363      2121  TIP3      H2             35.1624133595      -22.8414522861      -26.2618496465  W2        2121            0.0000000000
      6364      2122  TIP3      OH2            24.7612333595      -22.4371122861      -25.0652296465  W2        2122            0.0000000000
      6365      2122  TIP3      H1             24.3917533595      -23.2390622861      -25.4347996465  W2        2122            0.0000000000
      6366      2122  TIP3      H2             25.7023433595      -22.6056222861      -25.0188896465  W2        2122            0.0000000000
      6367      2123  TIP3      OH2            21.3712833595      -28.7768522861      -29.6723496465  W2        2123            0.0000000000
      6368      2123  TIP3      H1             20.9236233595      -27.9309822861      -29.6906996465  W2        2123            0.0000000000
      6369      2123  TIP3      H2             20.8104033595      -29.3564322861      -30.1878396465  W2        2123            0.0000000000
      6370      2124  TIP3      OH2            22.0818933595      -26.6148922861      -27.5465496465  W2        2124            0.0000000000
      6371      2124  TIP3      H1             22.2952433595      -27.3847322861      -27.0192496465  W2        2124            0.0000000000
      6372      2124  TIP3      H2             22.8196533595      -26.5252222861      -28.1497896465  W2        2124            0.0000000000
      6373      2125  TIP3      OH2            32.2869933595      -18.4580022861      -26.6795796465  W2        2125            0.0000000000
      6374      2125  TIP3      H1             32.9066333595      -19.1345322861      -26.9526596465  W2        2125            0.0000000000
      6375      2125  TIP3      H2             32.0787333595      -18.6759222861      -25.7710896465  W2        2125            0.0000000000
      6376      2126  TIP3      OH2            29.8588633595      -24.0690722861      -24.7870296465  W2        2126            0.0000000000
      6377      2126  TIP3      H1             30.1626533595      -24.7549322861      -25.3816196465  W2        2126            0.0000000000
      6378      2126  TIP3      H2             30.5802633595      -23.9502022861      -24.1692296465  W2        2126            0.0000000000
      6379      2127  TIP3      OH2            38.5218433595      -32.4675422861      -23.9264096465  W2        2127            0.0000000000
      6380      2127  TIP3      H1             38.5710633595      -31.8574222861      -23.1904996465  W2        2127            0.0000000000
      6381      2127  TIP3      H2             38.9473533595      -32.0064522861      -24.6492996465  W2        2127            0.0000000000
      6382      2128  TIP3      OH2            32.9995633595      -29.6748322861      -24.4595496465  W2        2128            0.0000000000
      6383      2128  TIP3      H1             33.1421533595      -30.6211322861      -24.4393896465  W2        2128            0.0000000000
      6384      2128  TIP3      H2             32.8934633595      -29.4678522861      -25.3880596465  W2        2128            0.0000000000
      6385      2129  TIP3      OH2            26.1543933595      -31.5731922861      -27.1870696465  W2        2129            0.0000000000
      6386      2129  TIP3      H1             26.1975033595      -30.7133422861      -27.6054396465  W2        2129            0.0000000000
      6387      2129  TIP3      H2             25.6968033595      -32.1257222861      -27.8207496465  W2        2129            0.0000000000
      6388      2130  TIP3      OH2            33.8766633595      -31.4426322861      -28.7862396465  W2        2130            0.0000000000
      6389      2130  TIP3      H1             34.5230933595      -31.7713122861      -28.1614796465  W2        2130            0.0000000000
      6390      2130  TIP3      H2             34.3866033595      -30.9247322861      -29.4090996465  W2        2130            0.0000000000
      6391      2131  TIP3      OH2            22.7745433595      -29.1766122861      -26.4249296465  W2        2131            0.0000000000
      6392      2131  TIP3      H1             23.4282033595      -29.7264422861      -25.9929196465  W2        2131            0.0000000000
      6393      2131  TIP3      H2             22.7984733595      -29.4507122861      -27.3417296465  W2        2131            0.0000000000
      6394      2132  TIP3      OH2            27.9309933595      -27.6264822861      -27.2097796465  W2        2132            0.0000000000
      6395      2132  TIP3      H1             28.5470933595      -28.1529422861      -26.7003796465  W2        2132            0.0000000000
      6396      2132  TIP3      H2             27.3448733595      -28.2666122861      -27.6134196465  W2        2132            0.0000000000
      6397      2133  TIP3      OH2            38.9133033595      -30.9896222861      -21.6904296465  W2        2133            0.0000000000
      6398      2133  TIP3      H1             38.2247633595      -30.3315522861      -21.7857696465  W2        2133            0.0000000000
      6399      2133  TIP3      H2             38.9287633595      -31.1868322861      -20.7538896465  W2        2133            0.0000000000
      6400      2134  TIP3      OH2            24.9645833595      -32.6553522861      -23.1129896465  W2        2134            0.0000000000
      6401      2134  TIP3      H1             24.7457533595      -32.1252922861      -23.8793896465  W2        2134            0.0000000000
      6402      2134  TIP3      H2             24.2966733595      -32.4288022861      -22.4658496465  W2        2134            0.0000000000
      6403      2135  TIP3      OH2            32.3335633595      -23.1552422861      -29.5690796465  W2        2135            0.0000000000
      6404      2135  TIP3      H1             32.0380733595      -23.4780122861      -30.4203896465  W2        2135            0.0000000000
      6405      2135  TIP3      H2             32.0093433595      -22.2555722861      -29.5278196465  W2        2135            0.0000000000
      6406      2136  TIP3      OH2            27.5337233595      -24.9797822861      -22.8256196465  W2        2136            0.0000000000
      6407      2136  TIP3      H1             26.7936333595      -24.3816322861      -22.7220996465  W2        2136            0.0000000000
      6408      2136  TIP3      H2             28.2476733595      -24.4258222861      -23.1412596465  W2        2136            0.0000000000
      6409      2137  TIP3      OH2            35.6405033595      -32.1517022861      -26.8056496465  W2        2137            0.0000000000
      6410      2137  TIP3      H1             35.4253033595      -32.9173622861      -26.2730496465  W2        2137            0.0000000000
      6411      2137  TIP3      H2             36.2962433595      -31.6792422861      -26.2927996465  W2        2137            0.0000000000
      6412      2138  TIP3      OH2            24.5583133595      -30.7631722861      -25.1607696465  W2        2138            0.0000000000
      6413      2138  TIP3      H1             25.1719433595      -30.1304122861      -24.7875296465  W2        2138            0.0000000000
      6414      2138  TIP3      H2             25.0703833595      -31.2356722861      -25.8170796465  W2        2138            0.0000000000
      6415      2139  TIP3      OH2            25.9411533595      -23.0154822861      -22.0384696465  W2        2139            0.0000000000
      6416      2139  TIP3      H1             25.9359133595      -22.1361322861      -22.4165396465  W2        2139            0.0000000000
      6417      2139  TIP3      H2             25.0875633595      -23.0990722861      -21.6134796465  W2        2139            0.0000000000
      6418      2140  TIP3      OH2            22.0622433595      -23.3446922861      -31.2565396465  W2        2140            0.0000000000
      6419      2140  TIP3      H1             21.7903333595      -23.1155922861      -32.1452496465  W2        2140            0.0000000000
      6420      2140  TIP3      H2             22.1078133595      -22.5068122861      -30.7960096465  W2        2140            0.0000000000
      6421      2141  TIP3      OH2            35.6872133595      -21.7231022861      -24.5436896465  W2        2141            0.0000000000
      6422      2141  TIP3      H1             34.7455833595      -21.6647122861      -24.3819996465  W2        2141            0.0000000000
      6423      2141  TIP3      H2             35.9638233595      -20.8170522861      -24.6807196465  W2        2141            0.0000000000
      6424      2142  TIP3      OH2            35.9879133595      -33.4365722861      -23.1262996465  W2        2142            0.0000000000
      6425      2142  TIP3      H1             35.2518333595      -32.8258622861      -23.1641696465  W2        2142            0.0000000000
      6426      2142  TIP3      H2             36.6713133595      -33.0216722861      -23.6526596465  W2        2142            0.0000000000
      6427      2143  TIP3      OH2            28.9910533595      -35.3498422861      -25.6604996465  W2        2143            0.0000000000
      6428      2143  TIP3      H1             28.8734733595      -36.2982422861      -25.7146696465  W2        2143            0.0000000000
      6429      2143  TIP3      H2             28.1360633595      -35.0172322861      -25.3873896465  W2        2143            0.0000000000
      6430      2144  TIP3      OH2            33.9393333595      -19.9417522861      -27.9185296465  W2        2144            0.0000000000
      6431      2144  TIP3      H1             34.3645633595      -20.6489622861      -28.4035696465  W2        2144            0.0000000000
      6432      2144  TIP3      H2             34.2563333595      -19.1404822861      -28.3353096465  W2        2144            0.0000000000
      6433      2145  TIP3      OH2            35.0989833595      -22.0409022861      -29.4098696465  W2        2145            0.0000000000
      6434      2145  TIP3      H1             34.8414633595      -22.7308922861      -30.0212796465  W2        2145            0.0000000000
      6435      2145  TIP3      H2             35.1700633595      -22.4837822861      -28.5642796465  W2        2145            0.0000000000
      6436      2146  TIP3      OH2            36.7850033595      -23.4742322861      -20.9325196465  W2        2146            0.0000000000
      6437      2146  TIP3      H1             36.9246333595      -24.0659822861      -21.6718196465  W2        2146            0.0000000000
      6438      2146  TIP3      H2             36.9522833595      -22.6016422861      -21.2886396465  W2        2146            0.0000000000
      6439      2147  TIP3      OH2            31.2575433595      -26.5122822861      -31.1599196465  W2        2147            0.0000000000
      6440      2147  TIP3      H1             30.5460933595      -25.9773122861      -31.5118696465  W2        2147            0.0000000000
      6441      2147  TIP3      H2             31.9485033595      -26.4570722861      -31.8200296465  W2        2147            0.0000000000
      6442      2148  TIP3      OH2            31.3114633595      -28.0548522861      -34.1214196465  W2        2148            0.0000000000
      6443      2148  TIP3      H1             32.0124533595      -28.0321622861      -33.4700196465  W2        2148            0.0000000000
      6444      2148  TIP3      H2             31.6137533595      -28.6828822861      -34.7774896465  W2        2148            0.0000000000
      6445      2149  TIP3      OH2            38.6269333595      -27.1344322861      -22.8664796465  W2        2149            0.0000000000
      6446      2149  TIP3      H1             37.9743433595      -26.4398722861      -22.7773896465  W2        2149            0.0000000000
      6447      2149  TIP3      H2             39.0919633595      -26.9243422861      -23.6763196465  W2        2149            0.0000000000
      6448      2150  TIP3      OH2            34.6633133595      -26.3029522861      -30.2083296465  W2        2150            0.0000000000
      6449      2150  TIP3      H1             33.9314133595      -26.0745822861      -29.6352696465  W2        2150            0.0000000000
      6450      2150  TIP3      H2             35.1105333595      -27.0166822861      -29.7535796465  W2        2150            0.0000000000
      6451      2151  TIP3      OH2            34.5606633595      -28.1286922861      -21.1406296465  W2        2151            0.0000000000
      6452      2151  TIP3      H1             34.6405733595      -27.3652522861      -20.5687796465  W2        2151            0.0000000000
      6453      2151  TIP3      H2             33.9594333595      -27.8494522861      -21.8311196465  W2        2151            0.0000000000
      6454      2152  TIP3      OH2            26.3086833595      -25.6723322861      -28.3258296465  W2        2152            0.0000000000
      6455      2152  TIP3      H1             25.9782033595      -26.0429922861      -29.1441296465  W2        2152            0.0000000000
      6456      2152  TIP3      H2             26.8970933595      -26.3429322861      -27.9789996465  W2        2152            0.0000000000
      6457      2153  TIP3      OH2            27.6754333595      -22.2442722861      -25.6446096465  W2        2153            0.0000000000
      6458      2153  TIP3      H1             27.5805633595      -22.8229622861      -26.4011496465  W2        2153            0.0000000000
      6459      2153  TIP3      H2             28.4047933595      -22.6157022861      -25.1483296465  W2        2153            0.0000000000
      6460      2154  TIP3      OH2            26.6752333595      -26.9037722861      -24.6923296465  W2        2154            0.0000000000
      6461      2154  TIP3      H1             27.2404833595      -26.7823522861      -25.4552096465  W2        2154            0.0000000000
      6462      2154  TIP3      H2             26.9941233595      -26.2662722861      -24.0534796465  W2        2154            0.0000000000
      6463      2155  TIP3      OH2            32.9844533595      -21.4005822861      -23.9582796465  W2        2155            0.0000000000
      6464      2155  TIP3      H1             32.7441133595      -20.7382722861      -23.3103596465  W2        2155            0.0000000000
      6465      2155  TIP3      H2             32.7862733595      -22.2350622861      -23.5333196465  W2        2155            0.0000000000
      6466      2156  TIP3      OH2            27.5553033595      -22.5045022861      -19.9751396465  W2        2156            0.0000000000
      6467      2156  TIP3      H1             27.2440533595      -21.7221822861      -19.5198196465  W2        2156            0.0000000000
      6468      2156  TIP3      H2             26.9053233595      -22.6575922861      -20.6609396465  W2        2156            0.0000000000
      6469      2157  TIP3      OH2            33.5342633595      -27.1406622861      -32.5232096465  W2        2157            0.0000000000
      6470      2157  TIP3      H1             34.1138133595      -26.9906322861      -31.7763196465  W2        2157            0.0000000000
      6471      2157  TIP3      H2             33.9482633595      -26.6699222861      -33.2465696465  W2        2157            0.0000000000
      6472      2158  TIP3      OH2            24.4752933595      -26.3063922861      -20.7465696465  W2        2158            0.0000000000
      6473      2158  TIP3      H1             24.5456133595      -25.6557122861      -20.0480696465  W2        2158            0.0000000000
      6474      2158  TIP3      H2             23.5845133595      -26.2036422861      -21.0814796465  W2        2158            0.0000000000
      6475      2159  TIP3      OH2            31.2607533595      -20.4038122861      -29.0878996465  W2        2159            0.0000000000
      6476      2159  TIP3      H1             31.7345133595      -20.1081822861      -28.3104796465  W2        2159            0.0000000000
      6477      2159  TIP3      H2             30.6976833595      -19.6656522861      -29.3209396465  W2        2159            0.0000000000
      6478      2160  TIP3      OH2            25.7948933595      -20.4330022861      -19.2117596465  W2        2160            0.0000000000
      6479      2160  TIP3      H1             25.8024233595      -20.5690322861      -20.1592096465  W2        2160            0.0000000000
      6480      2160  TIP3      H2             24.8789333595      -20.5501922861      -18.9597596465  W2        2160            0.0000000000
      6481      2161  TIP3      OH2            37.2331033595      -35.3906222861      -32.7102396465  W2        2161            0.0000000000
      6482      2161  TIP3      H1             36.3331733595      -35.2517222861      -32.4151796465  W2        2161            0.0000000000
      6483      2161  TIP3      H2             37.4849433595      -34.5591622861      -33.1120696465  W2        2161            0.0000000000
      6484      2162  TIP3      OH2            25.2989533595      -26.6029022861      -30.7365496465  W2        2162            0.0000000000
      6485      2162  TIP3      H1             25.0070833595      -25.8347322861      -31.2274196465  W2        2162            0.0000000000
      6486      2162  TIP3      H2             24.6244733595      -27.2622822861      -30.8994096465  W2        2162            0.0000000000
      6487      2163  TIP3      OH2            38.4222433595      -21.0243822861      -34.3338496465  W2        2163            0.0000000000
      6488      2163  TIP3      H1             38.4955933595      -20.0853622861      -34.1633196465  W2        2163            0.0000000000
      6489      2163  TIP3      H2             39.3277533595      -21.3295222861      -34.3901196465  W2        2163            0.0000000000
      6490      2164  TIP3      OH2            21.3919633595      -24.2399822861      -21.9215696465  W2        2164            0.0000000000
      6491      2164  TIP3      H1             20.8908033595      -24.2680422861      -22.7365996465  W2        2164            0.0000000000
      6492      2164  TIP3      H2             21.3973333595      -25.1456622861      -21.6118396465  W2        2164            0.0000000000
      6493      2165  TIP3      OH2            21.1422333595      -21.4596022861      -25.0375496465  W2        2165            0.0000000000
      6494      2165  TIP3      H1             22.0882933595      -21.6039022861      -25.0565996465  W2        2165            0.0000000000
      6495      2165  TIP3      H2             21.0298633595      -20.6753222861      -24.5004296465  W2        2165            0.0000000000
      6496      2166  TIP3      OH2            39.3400833595      -20.7936322861      -19.3551796465  W2        2166            0.0000000000
      6497      2166  TIP3      H1             39.2907633595      -21.7488222861      -19.3924196465  W2        2166            0.0000000000
      6498      2166  TIP3      H2             38.5133133595      -20.5261022861      -18.9537996465  W2        2166            0.0000000000
      6499      2167  TIP3      OH2            30.3184833595      -21.2197122861      -20.4790396465  W2        2167            0.0000000000
      6500      2167  TIP3      H1             30.4059433595      -20.3932522861      -20.0041296465  W2        2167            0.0000000000
      6501      2167  TIP3      H2             29.4549933595      -21.5493322861      -20.2301096465  W2        2167            0.0000000000
      6502      2168  TIP3      OH2            30.7330633595      -17.4473422861      -30.6729796465  W2        2168            0.0000000000
      6503      2168  TIP3      H1             30.6576633595      -17.5686222861      -31.6194596465  W2        2168            0.0000000000
      6504      2168  TIP3      H2             30.7659333595      -16.4980722861      -30.5545196465  W2        2168            0.0000000000
      6505      2169  TIP3      OH2            24.3864433595      -18.6586422861      -28.8920796465  W2        2169            0.0000000000
      6506      2169  TIP3      H1             24.5384833595      -19.0066022861      -28.0134296465  W2        2169            0.0000000000
      6507      2169  TIP3      H2             23.5354833595      -19.0149122861      -29.1473596465  W2        2169            0.0000000000
      6508      2170  TIP3      OH2            33.8346633595      -18.2933222861      -33.6707396465  W2        2170            0.0000000000
      6509      2170  TIP3      H1             34.2095033595      -19.0377122861      -34.1414796465  W2        2170            0.0000000000
      6510      2170  TIP3      H2             33.8390333595      -18.5632622861      -32.7524096465  W2        2170            0.0000000000
      6511      2171  TIP3      OH2            33.5034733595      -18.3676122861      -30.9215196465  W2        2171            0.0000000000
      6512      2171  TIP3      H1             32.5684533595      -18.2674222861      -30.7428196465  W2        2171            0.0000000000
      6513      2171  TIP3      H2             33.7836633595      -19.0770122861      -30.3431996465  W2        2171            0.0000000000
      6514      2172  TIP3      OH2            36.4920633595      -29.3003822861      -18.8749596465  W2        2172            0.0000000000
      6515      2172  TIP3      H1             36.0847433595      -28.8198222861      -19.5956296465  W2        2172            0.0000000000
      6516      2172  TIP3      H2             36.5326333595      -30.2057822861      -19.1828796465  W2        2172            0.0000000000
      6517      2173  TIP3      OH2            23.6410133595      -22.9164422861      -20.8782896465  W2        2173            0.0000000000
      6518      2173  TIP3      H1             23.8571433595      -23.2778822861      -20.0187096465  W2        2173            0.0000000000
      6519      2173  TIP3      H2             22.7854833595      -23.2910622861      -21.0879396465  W2        2173            0.0000000000
      6520      2174  TIP3      OH2            26.2598133595      -34.4463922861      -24.8828696465  W2        2174            0.0000000000
      6521      2174  TIP3      H1             25.3981833595      -34.5335722861      -25.2905796465  W2        2174            0.0000000000
      6522      2174  TIP3      H2             26.2373833595      -33.5903822861      -24.4551096465  W2        2174            0.0000000000
      6523      2175  TIP3      OH2            30.9225933595      -34.7243522861      -21.5081696465  W2        2175            0.0000000000
      6524      2175  TIP3      H1             31.3429033595      -35.1396422861      -20.7551096465  W2        2175            0.0000000000
      6525      2175  TIP3      H2             29.9895533595      -34.9030222861      -21.3909696465  W2        2175            0.0000000000
      6526      2176  TIP3      OH2            34.2490833595      -30.9688322861      -20.6547196465  W2        2176            0.0000000000
      6527      2176  TIP3      H1             33.7350333595      -31.0946122861      -19.8571196465  W2        2176            0.0000000000
      6528      2176  TIP3      H2             34.0935533595      -30.0565222861      -20.8990996465  W2        2176            0.0000000000
      6529      2177  TIP3      OH2            35.0115733595      -26.1078322861      -34.8934196465  W2        2177            0.0000000000
      6530      2177  TIP3      H1             35.0536533595      -26.3304422861      -35.8234196465  W2        2177            0.0000000000
      6531      2177  TIP3      H2             35.8607833595      -25.7091222861      -34.7034296465  W2        2177            0.0000000000
      6532      2178  TIP3      OH2            30.5843233595      -32.2320122861      -34.2230896465  W2        2178            0.0000000000
      6533      2178  TIP3      H1             30.3308033595      -32.2128522861      -33.3002796465  W2        2178            0.0000000000
      6534      2178  TIP3      H2             30.3275333595      -33.1034722861      -34.5244696465  W2        2178            0.0000000000
      6535      2179  TIP3      OH2            26.3508233595      -29.4809422861      -23.7878496465  W2        2179            0.0000000000
      6536      2179  TIP3      H1             25.7090333595      -29.5212122861      -23.0788396465  W2        2179            0.0000000000
      6537      2179  TIP3      H2             26.3880233595      -28.5544722861      -24.0255496465  W2        2179            0.0000000000
      6538      2180  TIP3      OH2            26.3477333595      -29.2599322861      -28.8758496465  W2        2180            0.0000000000
      6539      2180  TIP3      H1             25.4550233595      -29.6003222861      -28.9344696465  W2        2180            0.0000000000
      6540      2180  TIP3      H2             26.7983933595      -29.6368422861      -29.6315296465  W2        2180            0.0000000000
      6541      2181  TIP3      OH2            31.8832833595      -28.8439022861      -30.0587696465  W2        2181            0.0000000000
      6542      2181  TIP3      H1             31.4743133595      -28.0290422861      -30.3502896465  W2        2181            0.0000000000
      6543      2181  TIP3      H2             32.6039033595      -28.9838922861      -30.6730596465  W2        2181            0.0000000000
      6544      2182  TIP3      OH2            30.9854433595      -28.6682622861      -18.5706996465  W2        2182            0.0000000000
      6545      2182  TIP3      H1             30.4228233595      -29.3731022861      -18.2499196465  W2        2182            0.0000000000
      6546      2182  TIP3      H2             31.8117833595      -28.7890722861      -18.1029396465  W2        2182            0.0000000000
      6547      2183  TIP3      OH2            32.8880533595      -29.3978622861      -27.2447996465  W2        2183            0.0000000000
      6548      2183  TIP3      H1             32.6925033595      -28.7921822861      -27.9597396465  W2        2183            0.0000000000
      6549      2183  TIP3      H2             33.0693133595      -30.2313422861      -27.6791696465  W2        2183            0.0000000000
      6550      2184  TIP3      OH2            24.1008733595      -29.1605922861      -21.9206496465  W2        2184            0.0000000000
      6551      2184  TIP3      H1             24.0628133595      -28.7604322861      -21.0519396465  W2        2184            0.0000000000
      6552      2184  TIP3      H2             23.6099833595      -29.9773522861      -21.8303596465  W2        2184            0.0000000000
      6553      2185  TIP3      OH2            27.4666133595      -31.7863622861      -35.1220496465  W2        2185            0.0000000000
      6554      2185  TIP3      H1             27.0356833595      -32.2313522861      -34.3923096465  W2        2185            0.0000000000
      6555      2185  TIP3      H2             26.7484833595      -31.4147322861      -35.6342996465  W2        2185            0.0000000000
      6556      2186  TIP3      OH2            20.7089533595      -32.0444122861      -28.0701796465  W2        2186            0.0000000000
      6557      2186  TIP3      H1             21.3397233595      -32.0732022861      -27.3507896465  W2        2186            0.0000000000
      6558      2186  TIP3      H2             21.1583833595      -32.4695422861      -28.8005896465  W2        2186            0.0000000000
      6559      2187  TIP3      OH2            21.9831633595      -31.2982122861      -32.6461396465  W2        2187            0.0000000000
      6560      2187  TIP3      H1             22.4573333595      -30.7072222861      -33.2310496465  W2        2187            0.0000000000
      6561      2187  TIP3      H2             21.2658033595      -30.7679222861      -32.2991296465  W2        2187            0.0000000000
      6562      2188  TIP3      OH2            32.1519733595      -27.7597322861      -22.5735596465  W2        2188            0.0000000000
      6563      2188  TIP3      H1             32.4754533595      -28.3907622861      -23.2165096465  W2        2188            0.0000000000
      6564      2188  TIP3      H2             31.7119033595      -28.2945122861      -21.9128196465  W2        2188            0.0000000000
      6565      2189  TIP3      OH2            28.9292633595      -31.8321822861      -27.7894396465  W2        2189            0.0000000000
      6566      2189  TIP3      H1             28.0183733595      -31.7755022861      -27.5008396465  W2        2189            0.0000000000
      6567      2189  TIP3      H2             29.4345533595      -31.8926322861      -26.9787196465  W2        2189            0.0000000000
      6568      2190  TIP3      OH2            23.7576033595      -30.2035522861      -28.9626796465  W2        2190            0.0000000000
      6569      2190  TIP3      H1             22.8684033595      -30.1040022861      -29.3027196465  W2        2190            0.0000000000
      6570      2190  TIP3      H2             24.0540933595      -31.0452522861      -29.3088896465  W2        2190            0.0000000000
      6571      2191  TIP3      OH2            27.4107833595      -30.2032922861      -31.3062196465  W2        2191            0.0000000000
      6572      2191  TIP3      H1             28.3423333595      -30.0742922861      -31.1279096465  W2        2191            0.0000000000
      6573      2191  TIP3      H2             27.1958133595      -29.5338622861      -31.9557496465  W2        2191            0.0000000000
      6574      2192  TIP3      OH2            33.3344533595      -32.5975522861      -24.5252596465  W2        2192            0.0000000000
      6575      2192  TIP3      H1             32.6576133595      -32.4662422861      -23.8612896465  W2        2192            0.0000000000
      6576      2192  TIP3      H2             32.8489433595      -32.7526022861      -25.3354896465  W2        2192            0.0000000000
      6577      2193  TIP3      OH2            26.0848033595      -29.0090722861      -33.7396096465  W2        2193            0.0000000000
      6578      2193  TIP3      H1             25.5423133595      -29.3886922861      -34.4308496465  W2        2193            0.0000000000
      6579      2193  TIP3      H2             26.9182933595      -28.8146022861      -34.1681996465  W2        2193            0.0000000000
      6580      2194  TIP3      OH2            36.6219633595      -16.9260122861      -18.2484996465  W2        2194            0.0000000000
      6581      2194  TIP3      H1             36.8218333595      -16.5018222861      -19.0829696465  W2        2194            0.0000000000
      6582      2194  TIP3      H2             37.2773333595      -16.5821922861      -17.6414596465  W2        2194            0.0000000000
      6583      2195  TIP3      OH2            24.2199433595      -24.4518822861      -18.6404496465  W2        2195            0.0000000000
      6584      2195  TIP3      H1             24.9521833595      -24.1972922861      -18.0789996465  W2        2195            0.0000000000
      6585      2195  TIP3      H2             23.4398133595      -24.2473422861      -18.1249096465  W2        2195            0.0000000000
      6586      2196  TIP3      OH2            30.2492333595      -29.0448822861      -25.9024796465  W2        2196            0.0000000000
      6587      2196  TIP3      H1             30.8135733595      -29.5912222861      -26.4495196465  W2        2196            0.0000000000
      6588      2196  TIP3      H2             30.1015733595      -29.5666922861      -25.1137196465  W2        2196            0.0000000000
      6589      2197  TIP3      OH2            25.2512033595      -32.9082722861      -29.4839996465  W2        2197            0.0000000000
      6590      2197  TIP3      H1             24.9341533595      -33.8107422861      -29.5194596465  W2        2197            0.0000000000
      6591      2197  TIP3      H2             26.0326133595      -32.9065322861      -30.0368396465  W2        2197            0.0000000000
      6592      2198  TIP3      OH2            28.8758233595      -30.6562722861      -23.4884396465  W2        2198            0.0000000000
      6593      2198  TIP3      H1             28.0403533595      -30.2023222861      -23.3781996465  W2        2198            0.0000000000
      6594      2198  TIP3      H2             29.3998833595      -30.3804222861      -22.7364496465  W2        2198            0.0000000000
      6595      2199  TIP3      OH2            29.4200833595      -24.4435022861      -31.8037996465  W2        2199            0.0000000000
      6596      2199  TIP3      H1             28.6751833595      -24.9509722861      -32.1260096465  W2        2199            0.0000000000
      6597      2199  TIP3      H2             29.2858033595      -24.3947022861      -30.8573196465  W2        2199            0.0000000000
      6598      2200  TIP3      OH2            36.5699733595      -25.3106822861      -23.0170396465  W2        2200            0.0000000000
      6599      2200  TIP3      H1             37.2118533595      -24.8540522861      -23.5608196465  W2        2200            0.0000000000
      6600      2200  TIP3      H2             35.7396633595      -25.1974422861      -23.4796296465  W2        2200            0.0000000000
      6601      2201  TIP3      OH2            33.3177633595      -31.6295122861      -33.6045396465  W2        2201            0.0000000000
      6602      2201  TIP3      H1             32.3791833595      -31.5179522861      -33.7556596465  W2        2201            0.0000000000
      6603      2201  TIP3      H2             33.6149733595      -30.7728222861      -33.2979696465  W2        2201            0.0000000000
      6604      2202  TIP3      OH2            30.9392933595      -24.2591722861      -20.5668896465  W2        2202            0.0000000000
      6605      2202  TIP3      H1             30.5939033595      -24.6409322861      -19.7599296465  W2        2202            0.0000000000
      6606      2202  TIP3      H2             30.7393033595      -23.3258122861      -20.4955996465  W2        2202            0.0000000000
      6607      2203  TIP3      OH2            34.0361133595      -29.7622422861      -31.9437996465  W2        2203            0.0000000000
      6608      2203  TIP3      H1             34.9280133595      -29.8997422861      -31.6246796465  W2        2203            0.0000000000
      6609      2203  TIP3      H2             34.0924733595      -28.9716322861      -32.4804496465  W2        2203            0.0000000000
      6610      2204  TIP3      OH2            24.5449133595      -25.1485022861      -26.0340096465  W2        2204            0.0000000000
      6611      2204  TIP3      H1             25.2896333595      -25.1509322861      -26.6353596465  W2        2204            0.0000000000
      6612      2204  TIP3      H2             24.6225733595      -25.9721222861      -25.5524996465  W2        2204            0.0000000000
      6613      2205  TIP3      OH2            31.5454933595      -22.9850722861      -32.7783396465  W2        2205            0.0000000000
      6614      2205  TIP3      H1             31.2503333595      -22.1582822861      -32.3968596465  W2        2205            0.0000000000
      6615      2205  TIP3      H2             30.8424933595      -23.6043822861      -32.5821996465  W2        2205            0.0000000000
      6616      2206  TIP3      OH2            21.5528833595      -26.6878122861      -20.7191596465  W2        2206            0.0000000000
      6617      2206  TIP3      H1             21.7757433595      -27.1058522861      -19.8874096465  W2        2206            0.0000000000
      6618      2206  TIP3      H2             20.9508933595      -27.3003122861      -21.1418796465  W2        2206            0.0000000000
      6619      2207  TIP3      OH2            28.5693733595      -27.1708222861      -18.5061896465  W2        2207            0.0000000000
      6620      2207  TIP3      H1             28.2734533595      -27.3365222861      -19.4012796465  W2        2207            0.0000000000
      6621      2207  TIP3      H2             29.5008933595      -27.3907922861      -18.5167996465  W2        2207            0.0000000000
      6622      2208  TIP3      OH2            33.1896533595      -21.7976222861      -20.6163896465  W2        2208            0.0000000000
      6623      2208  TIP3      H1             32.2890833595      -21.6143622861      -20.8839996465  W2        2208            0.0000000000
      6624      2208  TIP3      H2             33.2237633595      -21.5386922861      -19.6955096465  W2        2208            0.0000000000
      6625      2209  TIP3      OH2            38.9209833595      -29.5528322861      -32.2491296465  W2        2209            0.0000000000
      6626      2209  TIP3      H1             38.3666133595      -29.9490322861      -32.9213796465  W2        2209            0.0000000000
      6627      2209  TIP3      H2             39.0213433595      -28.6423122861      -32.5267996465  W2        2209            0.0000000000
      6628      2210  TIP3      OH2            38.8841833595      -23.7526622861      -19.4119796465  W2        2210            0.0000000000
      6629      2210  TIP3      H1             38.0330333595      -23.5142822861      -19.7793396465  W2        2210            0.0000000000
      6630      2210  TIP3      H2             39.4745233595      -23.7693422861      -20.1652696465  W2        2210            0.0000000000
      6631      2211  TIP3      OH2            37.2161533595      -20.7667922861      -31.7839196465  W2        2211            0.0000000000
      6632      2211  TIP3      H1             36.8432633595      -21.5924122861      -31.4748596465  W2        2211            0.0000000000
      6633      2211  TIP3      H2             37.4935033595      -20.9498522861      -32.6815796465  W2        2211            0.0000000000
      6634      2212  TIP3      OH2            34.3765433595      -25.9588422861      -24.7627296465  W2        2212            0.0000000000
      6635      2212  TIP3      H1             33.4482333595      -26.1906522861      -24.7897996465  W2        2212            0.0000000000
      6636      2212  TIP3      H2             34.8276533595      -26.7358622861      -25.0928496465  W2        2212            0.0000000000
      6637      2213  TIP3      OH2            26.9198533595      -21.6306822861      -28.6298596465  W2        2213            0.0000000000
      6638      2213  TIP3      H1             27.4470733595      -20.8572422861      -28.8299796465  W2        2213            0.0000000000
      6639      2213  TIP3      H2             26.0397033595      -21.4057622861      -28.9314596465  W2        2213            0.0000000000
      6640      2214  TIP3      OH2            22.6746233595      -26.7682722861      -34.0426196465  W2        2214            0.0000000000
      6641      2214  TIP3      H1             23.2906133595      -26.1415522861      -33.6631396465  W2        2214            0.0000000000
      6642      2214  TIP3      H2             21.8128833595      -26.4522922861      -33.7709696465  W2        2214            0.0000000000
      6643      2215  TIP3      OH2            28.3470833595      -23.9676922861      -29.0534296465  W2        2215            0.0000000000
      6644      2215  TIP3      H1             28.1060833595      -23.0422522861      -29.0118996465  W2        2215            0.0000000000
      6645      2215  TIP3      H2             27.6064433595      -24.4265622861      -28.6570396465  W2        2215            0.0000000000
      6646      2216  TIP3      OH2            28.8617433595      -19.8183322861      -22.7383196465  W2        2216            0.0000000000
      6647      2216  TIP3      H1             29.2242133595      -18.9637722861      -22.9718796465  W2        2216            0.0000000000
      6648      2216  TIP3      H2             29.3932633595      -20.1101722861      -21.9976896465  W2        2216            0.0000000000
      6649      2217  TIP3      OH2            27.0301633595      -18.9459322861      -29.5082096465  W2        2217            0.0000000000
      6650      2217  TIP3      H1             26.0802133595      -18.8401922861      -29.4568796465  W2        2217            0.0000000000
      6651      2217  TIP3      H2             27.3819733595      -18.1251922861      -29.1634596465  W2        2217            0.0000000000
      6652      2218  TIP3      OH2            32.4058233595      -23.7192622861      -23.0377596465  W2        2218            0.0000000000
      6653      2218  TIP3      H1             31.9799533595      -23.9470922861      -22.2113596465  W2        2218            0.0000000000
      6654      2218  TIP3      H2             32.9864033595      -24.4580822861      -23.2202296465  W2        2218            0.0000000000
      6655      2219  TIP3      OH2            34.6087133595      -22.7902122861      -33.9638596465  W2        2219            0.0000000000
      6656      2219  TIP3      H1             34.9620233595      -23.1702322861      -33.1595096465  W2        2219            0.0000000000
      6657      2219  TIP3      H2             33.6600633595      -22.8837322861      -33.8769296465  W2        2219            0.0000000000
      6658      2220  TIP3      OH2            35.0642433595      -19.1673122861      -20.5682796465  W2        2220            0.0000000000
      6659      2220  TIP3      H1             34.4625633595      -19.7230222861      -21.0636496465  W2        2220            0.0000000000
      6660      2220  TIP3      H2             35.3456133595      -18.5003322861      -21.1945396465  W2        2220            0.0000000000
      6661      2221  TIP3      OH2            39.1121533595      -18.3109622861      -33.7628396465  W2        2221            0.0000000000
      6662      2221  TIP3      H1             39.8559433595      -17.7249122861      -33.9026796465  W2        2221            0.0000000000
      6663      2221  TIP3      H2             38.4179633595      -17.7423822861      -33.4295996465  W2        2221            0.0000000000
      6664      2222  TIP3      OH2            23.1868333595      -31.9345422861      -21.1610196465  W2        2222            0.0000000000
      6665      2222  TIP3      H1             22.2940633595      -31.5960022861      -21.2286196465  W2        2222            0.0000000000
      6666      2222  TIP3      H2             23.0881133595      -32.7899322861      -20.7429396465  W2        2222            0.0000000000
      6667      2223  TIP3      OH2            35.4746433595      -24.1180122861      -31.7370696465  W2        2223            0.0000000000
      6668      2223  TIP3      H1             35.1974033595      -24.8460822861      -31.1809596465  W2        2223            0.0000000000
      6669      2223  TIP3      H2             36.4019433595      -23.9988122861      -31.5318096465  W2        2223            0.0000000000
      6670      2224  TIP3      OH2            22.8380333595      -20.1301022861      -22.7260796465  W2        2224            0.0000000000
      6671      2224  TIP3      H1             23.0550633595      -21.0618622861      -22.7571096465  W2        2224            0.0000000000
      6672      2224  TIP3      H2             23.0843833595      -19.8556022861      -21.8427996465  W2        2224            0.0000000000
      6673      2225  TIP3      OH2            28.6994933595      -21.6786022861      -35.5168596465  W2        2225            0.0000000000
      6674      2225  TIP3      H1             28.9384733595      -22.4267922861      -36.0639696465  W2        2225            0.0000000000
      6675      2225  TIP3      H2             28.4306233595      -22.0664322861      -34.6840796465  W2        2225            0.0000000000
      6676      2226  TIP3      OH2            27.6365533595      -22.1082222861      -33.0605996465  W2        2226            0.0000000000
      6677      2226  TIP3      H1             27.7833533595      -22.6282422861      -32.2705096465  W2        2226            0.0000000000
      6678      2226  TIP3      H2             27.6337233595      -21.2014622861      -32.7540096465  W2        2226            0.0000000000
      6679      2227  TIP3      OH2            24.0896633595      -24.8558922861      -32.5500596465  W2        2227            0.0000000000
      6680      2227  TIP3      H1             23.4035933595      -24.5036422861      -31.9830896465  W2        2227            0.0000000000
      6681      2227  TIP3      H2             24.6124533595      -24.0929322861      -32.7966296465  W2        2227            0.0000000000
      6682      2228  TIP3      OH2            31.9211733595      -32.1935122861      -22.2711596465  W2        2228            0.0000000000
      6683      2228  TIP3      H1             32.6199633595      -32.1196422861      -21.6211896465  W2        2228            0.0000000000
      6684      2228  TIP3      H2             31.5403133595      -33.0580122861      -22.1168696465  W2        2228            0.0000000000
      6685      2229  TIP3      OH2            32.7056633595      -32.5413422861      -31.1739296465  W2        2229            0.0000000000
      6686      2229  TIP3      H1             32.9254933595      -32.0698022861      -31.9773896465  W2        2229            0.0000000000
      6687      2229  TIP3      H2             33.2640633595      -32.1470822861      -30.5038696465  W2        2229            0.0000000000
      6688      2230  TIP3      OH2            30.3742733595      -20.4108622861      -32.3111796465  W2        2230            0.0000000000
      6689      2230  TIP3      H1             29.5578833595      -19.9138922861      -32.2587496465  W2        2230            0.0000000000
      6690      2230  TIP3      H2             30.9039033595      -19.9355122861      -32.9512996465  W2        2230            0.0000000000
      6691      2231  TIP3      OH2            29.9056533595      -30.8134622861      -30.3390896465  W2        2231            0.0000000000
      6692      2231  TIP3      H1             30.7179133595      -30.3091422861      -30.2929196465  W2        2231            0.0000000000
      6693      2231  TIP3      H2             29.6609533595      -30.9584922861      -29.4251296465  W2        2231            0.0000000000
      6694      2232  TIP3      OH2            30.4412933595      -29.8271922861      -21.1544296465  W2        2232            0.0000000000
      6695      2232  TIP3      H1             30.5603233595      -29.2536522861      -20.3973896465  W2        2232            0.0000000000
      6696      2232  TIP3      H2             31.0967533595      -30.5152522861      -21.0396496465  W2        2232            0.0000000000
      6697      2233  TIP3      OH2            30.7893233595      -33.7321622861      -29.4009796465  W2        2233            0.0000000000
      6698      2233  TIP3      H1             30.4426733595      -33.1151022861      -28.7565496465  W2        2233            0.0000000000
      6699      2233  TIP3      H2             31.4480133595      -33.2315922861      -29.8824296465  W2        2233            0.0000000000
      6700      2234  TIP3      OH2            27.7125833595      -19.3671422861      -32.3294896465  W2        2234            0.0000000000
      6701      2234  TIP3      H1             27.8734533595      -18.5673922861      -32.8302296465  W2        2234            0.0000000000
      6702      2234  TIP3      H2             27.5153633595      -19.0605422861      -31.4444296465  W2        2234            0.0000000000
      6703      2235  TIP3      OH2            26.4470233595      -32.6692222861      -32.7137296465  W2        2235            0.0000000000
      6704      2235  TIP3      H1             26.3635033595      -31.7809122861      -32.3670896465  W2        2235            0.0000000000
      6705      2235  TIP3      H2             27.3370533595      -32.9345522861      -32.4820496465  W2        2235            0.0000000000
      6706      2236  TIP3      OH2            36.6458733595      -31.9201622861      -20.3194596465  W2        2236            0.0000000000
      6707      2236  TIP3      H1             35.7294533595      -31.6579922861      -20.4070896465  W2        2236            0.0000000000
      6708      2236  TIP3      H2             36.9813733595      -31.9232622861      -21.2159296465  W2        2236            0.0000000000
      6709      2237  TIP3      OH2            35.2479733595      -28.1700622861      -26.2237296465  W2        2237            0.0000000000
      6710      2237  TIP3      H1             34.4504133595      -28.5850422861      -26.5522296465  W2        2237            0.0000000000
      6711      2237  TIP3      H2             35.6930833595      -28.8606922861      -25.7326796465  W2        2237            0.0000000000
      6712      2238  TIP3      OH2            24.7055533595      -22.2420022861      -33.6532796465  W2        2238            0.0000000000
      6713      2238  TIP3      H1             25.2977033595      -21.5425222861      -33.3770396465  W2        2238            0.0000000000
      6714      2238  TIP3      H2             25.1648533595      -22.6750522861      -34.3728196465  W2        2238            0.0000000000
      6715      2239  TIP3      OH2            23.0214733595      -29.5777022861      -34.5373396465  W2        2239            0.0000000000
      6716      2239  TIP3      H1             22.9767333595      -28.6383922861      -34.3586396465  W2        2239            0.0000000000
      6717      2239  TIP3      H2             22.1337933595      -29.8132122861      -34.8071296465  W2        2239            0.0000000000
      6718      2240  TIP3      OH2            36.3344333595      -18.9138122861      -24.6013796465  W2        2240            0.0000000000
      6719      2240  TIP3      H1             36.1788633595      -18.2353722861      -25.2584496465  W2        2240            0.0000000000
      6720      2240  TIP3      H2             37.2670733595      -18.8418822861      -24.3983196465  W2        2240            0.0000000000
      6721      2241  TIP3      OH2            23.8296733595      -34.7960422861      -25.8642396465  W2        2241            0.0000000000
      6722      2241  TIP3      H1             23.6006533595      -34.7367922861      -26.7917396465  W2        2241            0.0000000000
      6723      2241  TIP3      H2             23.3870133595      -35.5874922861      -25.5578296465  W2        2241            0.0000000000
      6724      2242  TIP3      OH2            22.7600033595      -20.8553322861      -29.7036596465  W2        2242            0.0000000000
      6725      2242  TIP3      H1             21.9278633595      -20.3830622861      -29.6765196465  W2        2242            0.0000000000
      6726      2242  TIP3      H2             23.3058333595      -20.3455722861      -30.3023496465  W2        2242            0.0000000000
      6727      2243  TIP3      OH2            22.0483733595      -18.2429622861      -18.3738596465  W2        2243            0.0000000000
      6728      2243  TIP3      H1             22.5885933595      -18.4595622861      -17.6139396465  W2        2243            0.0000000000
      6729      2243  TIP3      H2             21.5671733595      -19.0483622861      -18.5636096465  W2        2243            0.0000000000
      6730      2244  TIP3      OH2            26.6457133595      -19.3235222861      -16.7534396465  W2        2244            0.0000000000
      6731      2244  TIP3      H1             27.4134333595      -19.7824422861      -16.4125196465  W2        2244            0.0000000000
      6732      2244  TIP3      H2             26.6243333595      -19.5495422861      -17.6833196465  W2        2244            0.0000000000
      6733      2245  TIP3      OH2            30.7376733595      -19.8154622861      -35.3782596465  W2        2245            0.0000000000
      6734      2245  TIP3      H1             30.0937733595      -20.4466022861      -35.0568896465  W2        2245            0.0000000000
      6735      2245  TIP3      H2             31.4995033595      -20.3466622861      -35.6099096465  W2        2245            0.0000000000
      6736      2246  TIP3      OH2            33.2225833595      -20.9434122861      -18.0242896465  W2        2246            0.0000000000
      6737      2246  TIP3      H1             32.8715333595      -21.8001122861      -17.7812496465  W2        2246            0.0000000000
      6738      2246  TIP3      H2             33.9489033595      -20.8007422861      -17.4173896465  W2        2246            0.0000000000
      6739      2247  TIP3      OH2            35.3419633595      -19.9984722861      -35.1444596465  W2        2247            0.0000000000
      6740      2247  TIP3      H1             35.6250033595      -20.7929522861      -34.6917696465  W2        2247            0.0000000000
      6741      2247  TIP3      H2             36.0817533595      -19.7653722861      -35.7053496465  W2        2247            0.0000000000
      6742      2248  TIP3      OH2            21.9553233595      -24.4325522861      -17.4194296465  W2        2248            0.0000000000
      6743      2248  TIP3      H1             22.0993733595      -25.3344822861      -17.7057596465  W2        2248            0.0000000000
      6744      2248  TIP3      H2             21.1830633595      -24.1463422861      -17.9071996465  W2        2248            0.0000000000
      6745      2249  TIP3      OH2            26.2966933595      -24.0889822861      -35.2869696465  W2        2249            0.0000000000
      6746      2249  TIP3      H1             26.3611033595      -24.8830222861      -34.7563296465  W2        2249            0.0000000000
      6747      2249  TIP3      H2             26.9496133595      -24.2077022861      -35.9767696465  W2        2249            0.0000000000
      6748      2250  TIP3      OH2            28.6109333595      -24.4627422861      -17.9867896465  W2        2250            0.0000000000
      6749      2250  TIP3      H1             28.2823133595      -24.1919322861      -18.8440496465  W2        2250            0.0000000000
      6750      2250  TIP3      H2             28.7627533595      -25.4037622861      -18.0742896465  W2        2250            0.0000000000
      6751      2251  TIP3      OH2            31.6490333595      -23.0418122861      -35.5511696465  W2        2251            0.0000000000
      6752      2251  TIP3      H1             31.3804433595      -22.8616022861      -34.6502796465  W2        2251            0.0000000000
      6753      2251  TIP3      H2             31.4425933595      -23.9671922861      -35.6825896465  W2        2251            0.0000000000
      6754      2252  TIP3      OH2            34.3454533595      -24.5470122861      -20.6035596465  W2        2252            0.0000000000
      6755      2252  TIP3      H1             35.0909333595      -23.9586422861      -20.7231596465  W2        2252            0.0000000000
      6756      2252  TIP3      H2             33.5881333595      -23.9650422861      -20.5402496465  W2        2252            0.0000000000
      6757      2253  TIP3      OH2            22.7879733595      -27.2322222861      -17.9994996465  W2        2253            0.0000000000
      6758      2253  TIP3      H1             23.1960933595      -28.0895622861      -18.1204396465  W2        2253            0.0000000000
      6759      2253  TIP3      H2             22.5277333595      -27.2180922861      -17.0784696465  W2        2253            0.0000000000
      6760      2254  TIP3      OH2            27.4460733595      -26.1163622861      -32.9811696465  W2        2254            0.0000000000
      6761      2254  TIP3      H1             26.9862733595      -26.6005322861      -32.2953196465  W2        2254            0.0000000000
      6762      2254  TIP3      H2             27.7009433595      -26.7848222861      -33.6171196465  W2        2254            0.0000000000
      6763      2255  TIP3      OH2            26.7350033595      -28.2236522861      -20.6252096465  W2        2255            0.0000000000
      6764      2255  TIP3      H1             26.1166133595      -27.5489922861      -20.3447396465  W2        2255            0.0000000000
      6765      2255  TIP3      H2             27.0791233595      -27.9022622861      -21.4585896465  W2        2255            0.0000000000
      6766      2256  TIP3      OH2            28.5171133595      -27.8731822861      -34.7188496465  W2        2256            0.0000000000
      6767      2256  TIP3      H1             28.3366133595      -28.0280622861      -35.6460196465  W2        2256            0.0000000000
      6768      2256  TIP3      H2             29.4671633595      -27.7653122861      -34.6740596465  W2        2256            0.0000000000
      6769      2257  TIP3      OH2            31.7548233595      -25.7521222861      -17.3477296465  W2        2257            0.0000000000
      6770      2257  TIP3      H1             32.7079433595      -25.6682122861      -17.3751296465  W2        2257            0.0000000000
      6771      2257  TIP3      H2             31.5942833595      -26.4639422861      -16.7282396465  W2        2257            0.0000000000
      6772      2258  TIP3      OH2            37.9069433595      -25.5187622861      -35.2730396465  W2        2258            0.0000000000
      6773      2258  TIP3      H1             37.6334233595      -25.9432122861      -36.0862096465  W2        2258            0.0000000000
      6774      2258  TIP3      H2             37.9463533595      -24.5873122861      -35.4899996465  W2        2258            0.0000000000
      6775      2259  TIP3      OH2            27.0743733595      -30.8685722861      -19.5428996465  W2        2259            0.0000000000
      6776      2259  TIP3      H1             27.2244633595      -31.5974422861      -20.1449296465  W2        2259            0.0000000000
      6777      2259  TIP3      H2             27.0766133595      -30.0914022861      -20.1016796465  W2        2259            0.0000000000
      6778      2260  TIP3      OH2            27.4869433595      -32.4989922861      -22.0501596465  W2        2260            0.0000000000
      6779      2260  TIP3      H1             28.0226933595      -32.0473222861      -22.7022296465  W2        2260            0.0000000000
      6780      2260  TIP3      H2             26.6349033595      -32.6070122861      -22.4727496465  W2        2260            0.0000000000
      6781      2261  TIP3      OH2            29.0687833595      -27.0593722861      -21.8106396465  W2        2261            0.0000000000
      6782      2261  TIP3      H1             29.8192633595      -27.2156222861      -22.3838596465  W2        2261            0.0000000000
      6783      2261  TIP3      H2             28.7296133595      -26.2077122861      -22.0860896465  W2        2261            0.0000000000
      6784      2262  TIP3      OH2            33.4844033595      -29.2441922861      -16.7821096465  W2        2262            0.0000000000
      6785      2262  TIP3      H1             33.6765333595      -30.1752522861      -16.8936596465  W2        2262            0.0000000000
      6786      2262  TIP3      H2             34.3420333595      -28.8192422861      -16.7925696465  W2        2262            0.0000000000
      6787      2263  TIP3      OH2            34.8011233595      -26.4556722861      -18.7048396465  W2        2263            0.0000000000
      6788      2263  TIP3      H1             34.5196233595      -25.7462122861      -19.2824596465  W2        2263            0.0000000000
      6789      2263  TIP3      H2             35.7435533595      -26.5283722861      -18.8557196465  W2        2263            0.0000000000
      6790      2264  TIP3      OH2            25.5530033595      -29.6702222861      -17.6313396465  W2        2264            0.0000000000
      6791      2264  TIP3      H1             24.7859033595      -30.2027422861      -17.8415796465  W2        2264            0.0000000000
      6792      2264  TIP3      H2             26.2319033595      -29.9801822861      -18.2307096465  W2        2264            0.0000000000
      6793      2265  TIP3      OH2            28.2924933595      -35.0424222861      -21.6187996465  W2        2265            0.0000000000
      6794      2265  TIP3      H1             28.1944533595      -34.0961022861      -21.7241796465  W2        2265            0.0000000000
      6795      2265  TIP3      H2             27.5501133595      -35.4150422861      -22.0944496465  W2        2265            0.0000000000
      6796      2266  TIP3      OH2            29.5565433595      -30.7208822861      -18.0549596465  W2        2266            0.0000000000
      6797      2266  TIP3      H1             29.3210833595      -30.9402122861      -17.1534696465  W2        2266            0.0000000000
      6798      2266  TIP3      H2             28.7732333595      -30.9277622861      -18.5647096465  W2        2266            0.0000000000
      6799      2267  TIP3      OH2            32.2722033595      -31.5935322861      -18.9796096465  W2        2267            0.0000000000
      6800      2267  TIP3      H1             31.3247433595      -31.5615622861      -18.8472796465  W2        2267            0.0000000000
      6801      2267  TIP3      H2             32.5848733595      -32.2188222861      -18.3257896465  W2        2267            0.0000000000
      6802      2268  TIP3      OH2            33.9063533595      -32.9594222861      -16.9744196465  W2        2268            0.0000000000
      6803      2268  TIP3      H1             33.8095333595      -33.9116922861      -16.9802296465  W2        2268            0.0000000000
      6804      2268  TIP3      H2             33.5846633595      -32.6907422861      -16.1138696465  W2        2268            0.0000000000
      6805      2269  TIP3      OH2            23.7332833595      -31.7498422861      -17.9268696465  W2        2269            0.0000000000
      6806      2269  TIP3      H1             23.9450233595      -32.4562322861      -18.5371196465  W2        2269            0.0000000000
      6807      2269  TIP3      H2             23.6220333595      -32.1872422861      -17.0827496465  W2        2269            0.0000000000
      6808      2270  TIP3      OH2            28.5143033595      -35.7486822861      -18.9475196465  W2        2270            0.0000000000
      6809      2270  TIP3      H1             29.2261433595      -36.3884622861      -18.9616096465  W2        2270            0.0000000000
      6810      2270  TIP3      H2             28.4133433595      -35.4818522861      -19.8612096465  W2        2270            0.0000000000
      6811      2271  TIP3      OH2            28.8680533595      -34.0658422861      -16.8938896465  W2        2271            0.0000000000
      6812      2271  TIP3      H1             28.7362733595      -34.5414622861      -17.7140396465  W2        2271            0.0000000000
      6813      2271  TIP3      H2             28.2687933595      -33.3214822861      -16.9491796465  W2        2271            0.0000000000
      6814      2272  TIP3      OH2            28.4142833595      -17.1828122861      -33.7174896465  W2        2272            0.0000000000
      6815      2272  TIP3      H1             29.3473533595      -17.0249422861      -33.5736496465  W2        2272            0.0000000000
      6816      2272  TIP3      H2             28.1501633595      -16.5075122861      -34.3423396465  W2        2272            0.0000000000
      6817      2273  TIP3      OH2            21.9827733595      -22.5464322861      -34.2346796465  W2        2273            0.0000000000
      6818      2273  TIP3      H1             22.8966933595      -22.4675422861      -33.9612896465  W2        2273            0.0000000000
      6819      2273  TIP3      H2             21.9900833595      -23.2334722861      -34.9011196465  W2        2273            0.0000000000
      6820      2274  TIP3      OH2            20.6318333595      -17.1535822861      -29.1572896465  W2        2274            0.0000000000
      6821      2274  TIP3      H1             19.9845433595      -17.6154122861      -29.6901696465  W2        2274            0.0000000000
      6822      2274  TIP3      H2             20.9862933595      -17.8252522861      -28.5746696465  W2        2274            0.0000000000
      6823      2275  TIP3      OH2            21.5017533595      -19.0728822861      -27.3526696465  W2        2275            0.0000000000
      6824      2275  TIP3      H1             21.1674333595      -19.9531522861      -27.1806496465  W2        2275            0.0000000000
      6825      2275  TIP3      H2             21.7239933595      -18.7273822861      -26.4881096465  W2        2275            0.0000000000
      6826      2276  TIP3      OH2            39.0502333595      -18.2632422861      -24.3721896465  W2        2276            0.0000000000
      6827      2276  TIP3      H1             39.0289033595      -18.0784022861      -23.4332496465  W2        2276            0.0000000000
      6828      2276  TIP3      H2             39.7408533595      -17.6948422861      -24.7130496465  W2        2276            0.0000000000
      6829      2277  TIP3      OH2            38.6135233595      -18.6961322861      -21.4502796465  W2        2277            0.0000000000
      6830      2277  TIP3      H1             38.1263933595      -19.4317222861      -21.8215396465  W2        2277            0.0000000000
      6831      2277  TIP3      H2             39.1627933595      -19.0897422861      -20.7723396465  W2        2277            0.0000000000
      6832      2278  TIP3      OH2            37.0642533595      -22.9063222861      -16.8122496465  W2        2278            0.0000000000
      6833      2278  TIP3      H1             36.1983633595      -23.0113522861      -16.4180196465  W2        2278            0.0000000000
      6834      2278  TIP3      H2             37.4408433595      -22.1479922861      -16.3657796465  W2        2278            0.0000000000
      6835      2279  TIP3      OH2            38.3652233595      -24.6499522861      -31.2979996465  W2        2279            0.0000000000
      6836      2279  TIP3      H1             39.2153633595      -24.2288622861      -31.1708396465  W2        2279            0.0000000000
      6837      2279  TIP3      H2             38.3707333595      -25.3899422861      -30.6908596465  W2        2279            0.0000000000
      6838      2280  TIP3      OH2            38.7597833595      -26.5962122861      -29.4744296465  W2        2280            0.0000000000
      6839      2280  TIP3      H1             38.0332433595      -27.0759522861      -29.0766696465  W2        2280            0.0000000000
      6840      2280  TIP3      H2             39.3411133595      -26.3907422861      -28.7422696465  W2        2280            0.0000000000
      6841      2281  TIP3      OH2            38.5189033595      -23.8114622861      -24.5266696465  W2        2281            0.0000000000
      6842      2281  TIP3      H1             39.3523233595      -24.1894622861      -24.8073096465  W2        2281            0.0000000000
      6843      2281  TIP3      H2             38.6309333595      -22.8683422861      -24.6457596465  W2        2281            0.0000000000
      6844      2282  TIP3      OH2            37.0051333595      -20.9337122861      -22.2198296465  W2        2282            0.0000000000
      6845      2282  TIP3      H1             36.3576633595      -20.6085622861      -21.5943096465  W2        2282            0.0000000000
      6846      2282  TIP3      H2             36.4875333595      -21.3739422861      -22.8939996465  W2        2282            0.0000000000
      6847      2283  TIP3      OH2            39.0280933595      -26.6953622861      -33.0832996465  W2        2283            0.0000000000
      6848      2283  TIP3      H1             38.5062033595      -26.3389522861      -33.8022096465  W2        2283            0.0000000000
      6849      2283  TIP3      H2             38.9950133595      -26.0205822861      -32.4052096465  W2        2283            0.0000000000
      6850      2284  TIP3      OH2            37.3769933595      -29.4558022861      -34.5325896465  W2        2284            0.0000000000
      6851      2284  TIP3      H1             37.4734333595      -28.7891022861      -35.2126196465  W2        2284            0.0000000000
      6852      2284  TIP3      H2             37.2369533595      -30.2711722861      -35.0140396465  W2        2284            0.0000000000
      6853      2285  TIP3      OH2            36.5464633595      -28.0755622861      -28.9115596465  W2        2285            0.0000000000
      6854      2285  TIP3      H1             36.3963433595      -29.0207022861      -28.9317796465  W2        2285            0.0000000000
      6855      2285  TIP3      H2             36.1929133595      -27.7944222861      -28.0676496465  W2        2285            0.0000000000
      6856      2286  TIP3      OH2            21.5817033595      -25.9973422861      -24.9011796465  W2        2286            0.0000000000
      6857      2286  TIP3      H1             21.7659933595      -26.0791722861      -25.8368896465  W2        2286            0.0000000000
      6858      2286  TIP3      H2             22.4309933595      -26.1216422861      -24.4775396465  W2        2286            0.0000000000
      6859      2287  TIP3      OH2            37.4027533595      -26.1052322861      -19.2727296465  W2        2287            0.0000000000
      6860      2287  TIP3      H1             37.9854833595      -26.8400022861      -19.0810096465  W2        2287            0.0000000000
      6861      2287  TIP3      H2             37.9666833595      -25.3332022861      -19.2261496465  W2        2287            0.0000000000
      6862      2288  TIP3      OH2            38.8994633595      -28.2026522861      -18.5881896465  W2        2288            0.0000000000
      6863      2288  TIP3      H1             38.0361333595      -28.5814422861      -18.7537196465  W2        2288            0.0000000000
      6864      2288  TIP3      H2             39.5038333595      -28.9411722861      -18.6626096465  W2        2288            0.0000000000
      6865      2289  TIP3      OH2            36.6243733595      -32.0478222861      -35.4150396465  W2        2289            0.0000000000
      6866      2289  TIP3      H1             37.2349533595      -32.4191422861      -34.7782196465  W2        2289            0.0000000000
      6867      2289  TIP3      H2             35.7875233595      -32.4691322861      -35.2190396465  W2        2289            0.0000000000
      6868      2290  TIP3      OH2            36.2569433595      -30.4929822861      -30.4490496465  W2        2290            0.0000000000
      6869      2290  TIP3      H1             36.5366533595      -31.3999422861      -30.3248796465  W2        2290            0.0000000000
      6870      2290  TIP3      H2             37.0161133595      -30.0588322861      -30.8381296465  W2        2290            0.0000000000
      6871      2291  TIP3      OH2            36.8687733595      -29.9112422861      -25.0131596465  W2        2291            0.0000000000
      6872      2291  TIP3      H1             37.8015733595      -29.6992522861      -25.0475596465  W2        2291            0.0000000000
      6873      2291  TIP3      H2             36.6335233595      -29.8100322861      -24.0908596465  W2        2291            0.0000000000
      6874      2292  TIP3      OH2            36.8979633595      -29.1747122861      -22.2372196465  W2        2292            0.0000000000
      6875      2292  TIP3      H1             36.0550933595      -28.9066722861      -21.8712396465  W2        2292            0.0000000000
      6876      2292  TIP3      H2             37.3403933595      -28.3525222861      -22.4481096465  W2        2292            0.0000000000
      6877      2293  TIP3      OH2            21.1791833595      -30.7268422861      -18.7602996465  W2        2293            0.0000000000
      6878      2293  TIP3      H1             22.0986733595      -30.8490122861      -18.5239896465  W2        2293            0.0000000000
      6879      2293  TIP3      H2             20.7296333595      -31.4768722861      -18.3709496465  W2        2293            0.0000000000
      6880      2294  TIP3      OH2            39.1811233595      -35.1946922861      -16.8837196465  W2        2294            0.0000000000
      6881      2294  TIP3      H1             39.5308233595      -35.8483422861      -17.4892496465  W2        2294            0.0000000000
      6882      2294  TIP3      H2             39.3280733595      -34.3572822861      -17.3234596465  W2        2294            0.0000000000
      6883      2295  TIP3      OH2            36.8704233595      -33.2300522861      -30.4008496465  W2        2295            0.0000000000
      6884      2295  TIP3      H1             37.0529233595      -33.6789022861      -29.5753496465  W2        2295            0.0000000000
      6885      2295  TIP3      H2             36.2707133595      -33.8146122861      -30.8643896465  W2        2295            0.0000000000
      6886      2296  TIP3      OH2            22.4004333595      -32.4146822861      -25.8690096465  W2        2296            0.0000000000
      6887      2296  TIP3      H1             22.8455933595      -33.2064322861      -25.5670396465  W2        2296            0.0000000000
      6888      2296  TIP3      H2             22.8667333595      -31.6981622861      -25.4384496465  W2        2296            0.0000000000
      6889      2297  TIP3      OH2            20.7044633595      -29.4153822861      -24.7999896465  W2        2297            0.0000000000
      6890      2297  TIP3      H1             21.1964433595      -29.6363322861      -25.5907896465  W2        2297            0.0000000000
      6891      2297  TIP3      H2             21.0665533595      -28.5750422861      -24.5190396465  W2        2297            0.0000000000
      6892      2298  TIP3      OH2            38.7008433595      -33.0852322861      -18.5345896465  W2        2298            0.0000000000
      6893      2298  TIP3      H1             37.7834133595      -32.8145222861      -18.5702396465  W2        2298            0.0000000000
      6894      2298  TIP3      H2             38.8237833595      -33.6203922861      -19.3186196465  W2        2298            0.0000000000
      6895      2299  TIP3      OH2            38.7370433595      -33.1622422861      -33.8728196465  W2        2299            0.0000000000
      6896      2299  TIP3      H1             39.1493033595      -33.8836722861      -34.3480196465  W2        2299            0.0000000000
      6897      2299  TIP3      H2             39.4186933595      -32.4927822861      -33.8143896465  W2        2299            0.0000000000
      6898      2300  TIP3      OH2            21.0181133595      -33.1574722861      -30.7457496465  W2        2300            0.0000000000
      6899      2300  TIP3      H1             20.0929533595      -32.9488122861      -30.8751996465  W2        2300            0.0000000000
      6900      2300  TIP3      H2             21.4721033595      -32.6733922861      -31.4355196465  W2        2300            0.0000000000
      6901      2301  TIP3      OH2            35.7888333595      -18.1733022861      -28.8000096465  W2        2301            0.0000000000
      6902      2301  TIP3      H1             36.4411233595      -18.5210922861      -29.4080996465  W2        2301            0.0000000000
      6903      2301  TIP3      H2             36.2992133595      -17.6849822861      -28.1540396465  W2        2301            0.0000000000
      6904      2302  TIP3      OH2            20.9816533595      -34.4195722861      -22.4014996465  W2        2302            0.0000000000
      6905      2302  TIP3      H1             20.3167033595      -34.6655422861      -21.7584096465  W2        2302            0.0000000000
      6906      2302  TIP3      H2             20.5387833595      -33.7975322861      -22.9786996465  W2        2302            0.0000000000
      6907      2303  TIP3      OH2            23.1735833595      -21.2441622861      -18.2569196465  W2        2303            0.0000000000
      6908      2303  TIP3      H1             22.3528333595      -21.0695122861      -18.7174496465  W2        2303            0.0000000000
      6909      2303  TIP3      H2             22.9213633595      -21.3176922861      -17.3364796465  W2        2303            0.0000000000
      6910      2304  TIP3      OH2            26.1278733595      -20.2700422861      -21.9985196465  W2        2304            0.0000000000
      6911      2304  TIP3      H1             25.7029833595      -19.4601922861      -22.2810596465  W2        2304            0.0000000000
      6912      2304  TIP3      H2             27.0321533595      -20.1846322861      -22.3005396465  W2        2304            0.0000000000
      6913      2305  TIP3      OH2            30.4390133595      -18.8710422861      -19.0391496465  W2        2305            0.0000000000
      6914      2305  TIP3      H1             30.6237633595      -19.2044322861      -18.1611196465  W2        2305            0.0000000000
      6915      2305  TIP3      H2             31.2854633595      -18.5611822861      -19.3612296465  W2        2305            0.0000000000
      6916      2306  TIP3      OH2            32.7840533595      -17.5851522861      -19.7950096465  W2        2306            0.0000000000
      6917      2306  TIP3      H1             33.4609433595      -18.2179222861      -20.0350896465  W2        2306            0.0000000000
      6918      2306  TIP3      H2             33.1059333595      -17.1841022861      -18.9876796465  W2        2306            0.0000000000
      6919      2307  TIP3      OH2            37.7014333595      -34.9956022861      -20.7155096465  W2        2307            0.0000000000
      6920      2307  TIP3      H1             36.8887833595      -34.6705722861      -21.1030396465  W2        2307            0.0000000000
      6921      2307  TIP3      H2             37.9342833595      -35.7557522861      -21.2485996465  W2        2307            0.0000000000
      6922      2308  TIP3      OH2            23.5295433595      -17.0136522861      -21.9509896465  W2        2308            0.0000000000
      6923      2308  TIP3      H1             22.8091833595      -16.5735522861      -22.4022196465  W2        2308            0.0000000000
      6924      2308  TIP3      H2             23.1639433595      -17.2641822861      -21.1025896465  W2        2308            0.0000000000
      6925      2309  TIP3      OH2            25.9968033595      -17.4132622861      -22.9212696465  W2        2309            0.0000000000
      6926      2309  TIP3      H1             25.1320233595      -17.3414122861      -22.5172596465  W2        2309            0.0000000000
      6927      2309  TIP3      H2             25.9417033595      -16.8665322861      -23.7050196465  W2        2309            0.0000000000
      6928      2310  TIP3      OH2            30.7073633595      -17.5253722861      -23.7456696465  W2        2310            0.0000000000
      6929      2310  TIP3      H1             30.2507633595      -16.9964022861      -24.3998296465  W2        2310            0.0000000000
      6930      2310  TIP3      H2             30.8701633595      -16.9222322861      -23.0204396465  W2        2310            0.0000000000
      6931      2311  TIP3      OH2            33.0349933595      -18.6474122861      -22.8006396465  W2        2311            0.0000000000
      6932      2311  TIP3      H1             32.1303633595      -18.4823922861      -23.0664296465  W2        2311            0.0000000000
      6933      2311  TIP3      H2             33.4638533595      -17.7941922861      -22.8662996465  W2        2311            0.0000000000
      6934      2312  TIP3      OH2            35.6391833595      -17.0775022861      -22.5058596465  W2        2312            0.0000000000
      6935      2312  TIP3      H1             35.4573833595      -16.1616122861      -22.7163696465  W2        2312            0.0000000000
      6936      2312  TIP3      H2             35.8159633595      -17.4877922861      -23.3523996465  W2        2312            0.0000000000
      6937      2313  TIP3      OH2            22.9443533595      -18.3904022861      -25.0408096465  W2        2313            0.0000000000
      6938      2313  TIP3      H1             22.9259533595      -18.8158922861      -24.1835796465  W2        2313            0.0000000000
      6939      2313  TIP3      H2             23.7491433595      -18.7089022861      -25.4495896465  W2        2313            0.0000000000
      6940      2314  TIP3      OH2            25.0856633595      -19.6805322861      -26.3858196465  W2        2314            0.0000000000
      6941      2314  TIP3      H1             24.8667333595      -20.5967922861      -26.2162196465  W2        2314            0.0000000000
      6942      2314  TIP3      H2             25.9098833595      -19.5404922861      -25.9196796465  W2        2314            0.0000000000
      6943      2315  TIP3      OH2            27.6229133595      -19.2106022861      -25.5370196465  W2        2315            0.0000000000
      6944      2315  TIP3      H1             27.8354833595      -20.0987022861      -25.8239296465  W2        2315            0.0000000000
      6945      2315  TIP3      H2             27.6874233595      -19.2448322861      -24.5826196465  W2        2315            0.0000000000
      6946      2316  TIP3      OH2            31.1312833595      -33.5465422861      -26.3926896465  W2        2316            0.0000000000
      6947      2316  TIP3      H1             30.4569633595      -34.1759822861      -26.1371096465  W2        2316            0.0000000000
      6948      2316  TIP3      H2             31.6952033595      -34.0306522861      -26.9958996465  W2        2316            0.0000000000
      6949      2317  TIP3      OH2            36.2740033595      -35.4391422861      -26.2799796465  W2        2317            0.0000000000
      6950      2317  TIP3      H1             36.8777633595      -34.8916022861      -26.7818796465  W2        2317            0.0000000000
      6951      2317  TIP3      H2             35.4042033595      -35.1201022861      -26.5205696465  W2        2317            0.0000000000
      6952      2318  TIP3      OH2            38.0010433595      -34.3002722861      -27.9468896465  W2        2318            0.0000000000
      6953      2318  TIP3      H1             38.6127933595      -34.8147022861      -28.4735296465  W2        2318            0.0000000000
      6954      2318  TIP3      H2             38.3833833595      -33.4230622861      -27.9234496465  W2        2318            0.0000000000
      6955      2319  TIP3      OH2            23.4580333595      -34.9125122861      -28.5706996465  W2        2319            0.0000000000
      6956      2319  TIP3      H1             22.6810133595      -35.1470222861      -29.0781096465  W2        2319            0.0000000000
      6957      2319  TIP3      H2             23.9883933595      -35.7093022861      -28.5618996465  W2        2319            0.0000000000
      6958      2320  TIP3      OH2            22.2943733595      -35.1147022861      -32.7670896465  W2        2320            0.0000000000
      6959      2320  TIP3      H1             22.7334433595      -34.5036522861      -33.3587396465  W2        2320            0.0000000000
      6960      2320  TIP3      H2             21.6606133595      -34.5762922861      -32.2930896465  W2        2320            0.0000000000
      6961      2321  TIP3      OH2            28.0372933595      -34.9858022861      -28.7573896465  W2        2321            0.0000000000
      6962      2321  TIP3      H1             28.9116333595      -34.5973722861      -28.7869596465  W2        2321            0.0000000000
      6963      2321  TIP3      H2             27.9013733595      -35.2010222861      -27.8346696465  W2        2321            0.0000000000
      6964      2322  TIP3      OH2            33.5941333595      -34.9558222861      -27.1082196465  W2        2322            0.0000000000
      6965      2322  TIP3      H1             33.6702933595      -34.8606622861      -28.0576196465  W2        2322            0.0000000000
      6966      2322  TIP3      H2             33.3190533595      -35.8635322861      -26.9793096465  W2        2322            0.0000000000
      6967      2323  TIP3      OH2            34.9473933595      -34.9300422861      -31.4157196465  W2        2323            0.0000000000
      6968      2323  TIP3      H1             34.2445033595      -34.3151222861      -31.6255796465  W2        2323            0.0000000000
      6969      2323  TIP3      H2             34.5025333595      -35.7673722861      -31.2846296465  W2        2323            0.0000000000
      6970      2324  TIP3      OH2            22.1953233595      -19.1664822861      -31.8695796465  W2        2324            0.0000000000
      6971      2324  TIP3      H1             21.5103133595      -19.2045922861      -32.5370696465  W2        2324            0.0000000000
      6972      2324  TIP3      H2             22.1990433595      -18.2537222861      -31.5813696465  W2        2324            0.0000000000
      6973      2325  TIP3      OH2            24.1552833595      -33.1985522861      -34.3246796465  W2        2325            0.0000000000
      6974      2325  TIP3      H1             24.6466233595      -33.8283122861      -34.8521296465  W2        2325            0.0000000000
      6975      2325  TIP3      H2             24.7789133595      -32.9026122861      -33.6615596465  W2        2325            0.0000000000
      6976      2326  TIP3      OH2            29.1812933595      -32.9054022861      -31.8676296465  W2        2326            0.0000000000
      6977      2326  TIP3      H1             29.3594233595      -33.5520822861      -31.1847696465  W2        2326            0.0000000000
      6978      2326  TIP3      H2             29.1279133595      -32.0716322861      -31.4005196465  W2        2326            0.0000000000
      6979      2327  TIP3      OH2            31.0596733595      -17.9569922861      -33.4719596465  W2        2327            0.0000000000
      6980      2327  TIP3      H1             31.9256933595      -17.5902522861      -33.6501396465  W2        2327            0.0000000000
      6981      2327  TIP3      H2             30.8129533595      -18.3961922861      -34.2858796465  W2        2327            0.0000000000
      6982      2328  TIP3      OH2            37.7686333595      -18.3939622861      -30.7928496465  W2        2328            0.0000000000
      6983      2328  TIP3      H1             37.5743433595      -19.1417522861      -31.3578896465  W2        2328            0.0000000000
      6984      2328  TIP3      H2             37.7296433595      -17.6359522861      -31.3760596465  W2        2328            0.0000000000
      6985      2329  TIP3      OH2            23.4158333595      -34.3983222861      -19.0530796465  W2        2329            0.0000000000
      6986      2329  TIP3      H1             23.0496533595      -35.1640622861      -18.6106096465  W2        2329            0.0000000000
      6987      2329  TIP3      H2             24.3286833595      -34.3693022861      -18.7665696465  W2        2329            0.0000000000
      6988      2330  TIP3      OH2            25.3889133595      -35.0478822861      -17.5173696465  W2        2330            0.0000000000
      6989      2330  TIP3      H1             26.2872733595      -35.3218622861      -17.7020296465  W2        2330            0.0000000000
      6990      2330  TIP3      H2             25.0022233595      -35.7902822861      -17.0531096465  W2        2330            0.0000000000
      6991      2331  TIP3      OH2            24.0134433595      -18.2464022861      -34.8443696465  W2        2331            0.0000000000
      6992      2331  TIP3      H1             23.7459033595      -17.9601122861      -33.9710596465  W2        2331            0.0000000000
      6993      2331  TIP3      H2             24.7847033595      -18.7924822861      -34.6921196465  W2        2331            0.0000000000
      6994      2332  TIP3      OH2            33.8101433595      -35.7153522861      -17.3350896465  W2        2332            0.0000000000
      6995      2332  TIP3      H1             33.8868633595      -36.1412822861      -16.4813196465  W2        2332            0.0000000000
      6996      2332  TIP3      H2             34.7038033595      -35.7018822861      -17.6777396465  W2        2332            0.0000000000
      6997      2333  TIP3      OH2            36.9862533595      -19.6427222861      -18.6426696465  W2        2333            0.0000000000
      6998      2333  TIP3      H1             36.2044433595      -19.8289222861      -19.1626096465  W2        2333            0.0000000000
      6999      2333  TIP3      H2             36.9142433595      -18.7132922861      -18.4254196465  W2        2333            0.0000000000
      7000      2334  TIP3      OH2            51.3922933595      -25.7562822861      -28.6119496465  W2        2334            0.0000000000
      7001      2334  TIP3      H1             51.4814033595      -24.8124622861      -28.7442396465  W2        2334            0.0000000000
      7002      2334  TIP3      H2             50.7540533595      -26.0316422861      -29.2700096465  W2        2334            0.0000000000
      7003      2335  TIP3      OH2            50.3254233595      -26.5012122861      -25.1931296465  W2        2335            0.0000000000
      7004      2335  TIP3      H1             50.2871733595      -27.1475822861      -24.4881696465  W2        2335            0.0000000000
      7005      2335  TIP3      H2             50.0030733595      -26.9677722861      -25.9642596465  W2        2335            0.0000000000
      7006      2336  TIP3      OH2            42.6939233595      -26.8870022861      -23.6001396465  W2        2336            0.0000000000
      7007      2336  TIP3      H1             42.7351333595      -27.5126722861      -22.8768996465  W2        2336            0.0000000000
      7008      2336  TIP3      H2             43.3966933595      -26.2631422861      -23.4180996465  W2        2336            0.0000000000
      7009      2337  TIP3      OH2            54.0314433595      -23.5621722861      -26.8916196465  W2        2337            0.0000000000
      7010      2337  TIP3      H1             53.5907133595      -24.2825722861      -26.4410596465  W2        2337            0.0000000000
      7011      2337  TIP3      H2             54.0184133595      -22.8414522861      -26.2618496465  W2        2337            0.0000000000
      7012      2338  TIP3      OH2            43.6172333595      -22.4371122861      -25.0652296465  W2        2338            0.0000000000
      7013      2338  TIP3      H1             43.2477533595      -23.2390622861      -25.4347996465  W2        2338            0.0000000000
      7014      2338  TIP3      H2             44.5583433595      -22.6056222861      -25.0188896465  W2        2338            0.0000000000
      7015      2339  TIP3      OH2            40.2272833595      -28.7768522861      -29.6723496465  W2        2339            0.0000000000
      7016      2339  TIP3      H1             39.7796233595      -27.9309822861      -29.6906996465  W2        2339            0.0000000000
      7017      2339  TIP3      H2             39.6664033595      -29.3564322861      -30.1878396465  W2        2339            0.0000000000
      7018      2340  TIP3      OH2            40.9378933595      -26.6148922861      -27.5465496465  W2        2340            0.0000000000
      7019      2340  TIP3      H1             41.1512433595      -27.3847322861      -27.0192496465  W2        2340            0.0000000000
      7020      2340  TIP3      H2             41.6756533595      -26.5252222861      -28.1497896465  W2        2340            0.0000000000
      7021      2341  TIP3      OH2            51.1429933595      -18.4580022861      -26.6795796465  W2        2341            0.0000000000
      7022      2341  TIP3      H1             51.7626333595      -19.1345322861      -26.9526596465  W2        2341            0.0000000000
      7023      2341  TIP3      H2             50.9347333595      -18.6759222861      -25.7710896465  W2        2341            0.0000000000
      7024      2342  TIP3      OH2            48.7148633595      -24.0690722861      -24.7870296465  W2        2342            0.0000000000
      7025      2342  TIP3      H1             49.0186533595      -24.7549322861      -25.3816196465  W2        2342            0.0000000000
      7026      2342  TIP3      H2             49.4362633595      -23.9502022861      -24.1692296465  W2        2342            0.0000000000
      7027      2343  TIP3      OH2            51.8555633595      -29.6748322861      -24.4595496465  W2        2343            0.0000000000
      7028      2343  TIP3      H1             51.9981533595      -30.6211322861      -24.4393896465  W2        2343            0.0000000000
      7029      2343  TIP3      H2             51.7494633595      -29.4678522861      -25.3880596465  W2        2343            0.0000000000
      7030      2344  TIP3      OH2            45.0103933595      -31.5731922861      -27.1870696465  W2        2344            0.0000000000
      7031      2344  TIP3      H1             45.0535033595      -30.7133422861      -27.6054396465  W2        2344            0.0000000000
      7032      2344  TIP3      H2             44.5528033595      -32.1257222861      -27.8207496465  W2        2344            0.0000000000
      7033      2345  TIP3      OH2            52.7326633595      -31.4426322861      -28.7862396465  W2        2345            0.0000000000
      7034      2345  TIP3      H1             53.3790933595      -31.7713122861      -28.1614796465  W2        2345            0.0000000000
      7035      2345  TIP3      H2             53.2426033595      -30.9247322861      -29.4090996465  W2        2345            0.0000000000
      7036      2346  TIP3      OH2            41.6305433595      -29.1766122861      -26.4249296465  W2        2346            0.0000000000
      7037      2346  TIP3      H1             42.2842033595      -29.7264422861      -25.9929196465  W2        2346            0.0000000000
      7038      2346  TIP3      H2             41.6544733595      -29.4507122861      -27.3417296465  W2        2346            0.0000000000
      7039      2347  TIP3      OH2            46.7869933595      -27.6264822861      -27.2097796465  W2        2347            0.0000000000
      7040      2347  TIP3      H1             47.4030933595      -28.1529422861      -26.7003796465  W2        2347            0.0000000000
      7041      2347  TIP3      H2             46.2008733595      -28.2666122861      -27.6134196465  W2        2347            0.0000000000
      7042      2348  TIP3      OH2            43.8205833595      -32.6553522861      -23.1129896465  W2        2348            0.0000000000
      7043      2348  TIP3      H1             43.6017533595      -32.1252922861      -23.8793896465  W2        2348            0.0000000000
      7044      2348  TIP3      H2             43.1526733595      -32.4288022861      -22.4658496465  W2        2348            0.0000000000
      7045      2349  TIP3      OH2            51.1895633595      -23.1552422861      -29.5690796465  W2        2349            0.0000000000
      7046      2349  TIP3      H1             50.8940733595      -23.4780122861      -30.4203896465  W2        2349            0.0000000000
      7047      2349  TIP3      H2             50.8653433595      -22.2555722861      -29.5278196465  W2        2349            0.0000000000
      7048      2350  TIP3      OH2            46.3897233595      -24.9797822861      -22.8256196465  W2        2350            0.0000000000
      7049      2350  TIP3      H1             45.6496333595      -24.3816322861      -22.7220996465  W2        2350            0.0000000000
      7050      2350  TIP3      H2             47.1036733595      -24.4258222861      -23.1412596465  W2        2350            0.0000000000
      7051      2351  TIP3      OH2            54.4965033595      -32.1517022861      -26.8056496465  W2        2351            0.0000000000
      7052      2351  TIP3      H1             54.2813033595      -32.9173622861      -26.2730496465  W2        2351            0.0000000000
      7053      2351  TIP3      H2             55.1522433595      -31.6792422861      -26.2927996465  W2        2351            0.0000000000
      7054      2352  TIP3      OH2            43.4143133595      -30.7631722861      -25.1607696465  W2        2352            0.0000000000
      7055      2352  TIP3      H1             44.0279433595      -30.1304122861      -24.7875296465  W2        2352            0.0000000000
      7056      2352  TIP3      H2             43.9263833595      -31.2356722861      -25.8170796465  W2        2352            0.0000000000
      7057      2353  TIP3      OH2            44.7971533595      -23.0154822861      -22.0384696465  W2        2353            0.0000000000
      7058      2353  TIP3      H1             44.7919133595      -22.1361322861      -22.4165396465  W2        2353            0.0000000000
      7059      2353  TIP3      H2             43.9435633595      -23.0990722861      -21.6134796465  W2        2353            0.0000000000
      7060      2354  TIP3      OH2            40.9182433595      -23.3446922861      -31.2565396465  W2        2354            0.0000000000
      7061      2354  TIP3      H1             40.6463333595      -23.1155922861      -32.1452496465  W2        2354            0.0000000000
      7062      2354  TIP3      H2             40.9638133595      -22.5068122861      -30.7960096465  W2        2354            0.0000000000
      7063      2355  TIP3      OH2            54.5432133595      -21.7231022861      -24.5436896465  W2        2355            0.0000000000
      7064      2355  TIP3      H1             53.6015833595      -21.6647122861      -24.3819996465  W2        2355            0.0000000000
      7065      2355  TIP3      H2             54.8198233595      -20.8170522861      -24.6807196465  W2        2355            0.0000000000
      7066      2356  TIP3      OH2            47.8470533595      -35.3498422861      -25.6604996465  W2        2356            0.0000000000
      7067      2356  TIP3      H1             47.7294733595      -36.2982422861      -25.7146696465  W2        2356            0.0000000000
      7068      2356  TIP3      H2             46.9920633595      -35.0172322861      -25.3873896465  W2        2356            0.0000000000
      7069      2357  TIP3      OH2            52.7953333595      -19.9417522861      -27.9185296465  W2        2357            0.0000000000
      7070      2357  TIP3      H1             53.2205633595      -20.6489622861      -28.4035696465  W2        2357            0.0000000000
      7071      2357  TIP3      H2             53.1123333595      -19.1404822861      -28.3353096465  W2        2357            0.0000000000
      7072      2358  TIP3      OH2            53.9549833595      -22.0409022861      -29.4098696465  W2        2358            0.0000000000
      7073      2358  TIP3      H1             53.6974633595      -22.7308922861      -30.0212796465  W2        2358            0.0000000000
      7074      2358  TIP3      H2             54.0260633595      -22.4837822861      -28.5642796465  W2        2358            0.0000000000
      7075      2359  TIP3      OH2            50.1135433595      -26.5122822861      -31.1599196465  W2        2359            0.0000000000
      7076      2359  TIP3      H1             49.4020933595      -25.9773122861      -31.5118696465  W2        2359            0.0000000000
      7077      2359  TIP3      H2             50.8045033595      -26.4570722861      -31.8200296465  W2        2359            0.0000000000
      7078      2360  TIP3      OH2            50.1674633595      -28.0548522861      -34.1214196465  W2        2360            0.0000000000
      7079      2360  TIP3      H1             50.8684533595      -28.0321622861      -33.4700196465  W2        2360            0.0000000000
      7080      2360  TIP3      H2             50.4697533595      -28.6828822861      -34.7774896465  W2        2360            0.0000000000
      7081      2361  TIP3      OH2            53.5193133595      -26.3029522861      -30.2083296465  W2        2361            0.0000000000
      7082      2361  TIP3      H1             52.7874133595      -26.0745822861      -29.6352696465  W2        2361            0.0000000000
      7083      2361  TIP3      H2             53.9665333595      -27.0166822861      -29.7535796465  W2        2361            0.0000000000
      7084      2362  TIP3      OH2            53.4166633595      -28.1286922861      -21.1406296465  W2        2362            0.0000000000
      7085      2362  TIP3      H1             53.4965733595      -27.3652522861      -20.5687796465  W2        2362            0.0000000000
      7086      2362  TIP3      H2             52.8154333595      -27.8494522861      -21.8311196465  W2        2362            0.0000000000
      7087      2363  TIP3      OH2            45.1646833595      -25.6723322861      -28.3258296465  W2        2363            0.0000000000
      7088      2363  TIP3      H1             44.8342033595      -26.0429922861      -29.1441296465  W2        2363            0.0000000000
      7089      2363  TIP3      H2             45.7530933595      -26.3429322861      -27.9789996465  W2        2363            0.0000000000
      7090      2364  TIP3      OH2            46.5314333595      -22.2442722861      -25.6446096465  W2        2364            0.0000000000
      7091      2364  TIP3      H1             46.4365633595      -22.8229622861      -26.4011496465  W2        2364            0.0000000000
      7092      2364  TIP3      H2             47.2607933595      -22.6157022861      -25.1483296465  W2        2364            0.0000000000
      7093      2365  TIP3      OH2            45.5312333595      -26.9037722861      -24.6923296465  W2        2365            0.0000000000
      7094      2365  TIP3      H1             46.0964833595      -26.7823522861      -25.4552096465  W2        2365            0.0000000000
      7095      2365  TIP3      H2             45.8501233595      -26.2662722861      -24.0534796465  W2        2365            0.0000000000
      7096      2366  TIP3      OH2            51.8404533595      -21.4005822861      -23.9582796465  W2        2366            0.0000000000
      7097      2366  TIP3      H1             51.6001133595      -20.7382722861      -23.3103596465  W2        2366            0.0000000000
      7098      2366  TIP3      H2             51.6422733595      -22.2350622861      -23.5333196465  W2        2366            0.0000000000
      7099      2367  TIP3      OH2            46.4113033595      -22.5045022861      -19.9751396465  W2        2367            0.0000000000
      7100      2367  TIP3      H1             46.1000533595      -21.7221822861      -19.5198196465  W2        2367            0.0000000000
      7101      2367  TIP3      H2             45.7613233595      -22.6575922861      -20.6609396465  W2        2367            0.0000000000
      7102      2368  TIP3      OH2            52.3902633595      -27.1406622861      -32.5232096465  W2        2368            0.0000000000
      7103      2368  TIP3      H1             52.9698133595      -26.9906322861      -31.7763196465  W2        2368            0.0000000000
      7104      2368  TIP3      H2             52.8042633595      -26.6699222861      -33.2465696465  W2        2368            0.0000000000
      7105      2369  TIP3      OH2            43.3312933595      -26.3063922861      -20.7465696465  W2        2369            0.0000000000
      7106      2369  TIP3      H1             43.4016133595      -25.6557122861      -20.0480696465  W2        2369            0.0000000000
      7107      2369  TIP3      H2             42.4405133595      -26.2036422861      -21.0814796465  W2        2369            0.0000000000
      7108      2370  TIP3      OH2            50.1167533595      -20.4038122861      -29.0878996465  W2        2370            0.0000000000
      7109      2370  TIP3      H1             50.5905133595      -20.1081822861      -28.3104796465  W2        2370            0.0000000000
      7110      2370  TIP3      H2             49.5536833595      -19.6656522861      -29.3209396465  W2        2370            0.0000000000
      7111      2371  TIP3      OH2            44.6508933595      -20.4330022861      -19.2117596465  W2        2371            0.0000000000
      7112      2371  TIP3      H1             44.6584233595      -20.5690322861      -20.1592096465  W2        2371            0.0000000000
      7113      2371  TIP3      H2             43.7349333595      -20.5501922861      -18.9597596465  W2        2371            0.0000000000
      7114      2372  TIP3      OH2            44.1549533595      -26.6029022861      -30.7365496465  W2        2372            0.0000000000
      7115      2372  TIP3      H1             43.8630833595      -25.8347322861      -31.2274196465  W2        2372            0.0000000000
      7116      2372  TIP3      H2             43.4804733595      -27.2622822861      -30.8994096465  W2        2372            0.0000000000
      7117      2373  TIP3      OH2            40.2479633595      -24.2399822861      -21.9215696465  W2        2373            0.0000000000
      7118      2373  TIP3      H1             39.7468033595      -24.2680422861      -22.7365996465  W2        2373            0.0000000000
      7119      2373  TIP3      H2             40.2533333595      -25.1456622861      -21.6118396465  W2        2373            0.0000000000
      7120      2374  TIP3      OH2            39.9982333595      -21.4596022861      -25.0375496465  W2        2374            0.0000000000
      7121      2374  TIP3      H1             40.9442933595      -21.6039022861      -25.0565996465  W2        2374            0.0000000000
      7122      2374  TIP3      H2             39.8858633595      -20.6753222861      -24.5004296465  W2        2374            0.0000000000
      7123      2375  TIP3      OH2            49.1744833595      -21.2197122861      -20.4790396465  W2        2375            0.0000000000
      7124      2375  TIP3      H1             49.2619433595      -20.3932522861      -20.0041296465  W2        2375            0.0000000000
      7125      2375  TIP3      H2             48.3109933595      -21.5493322861      -20.2301096465  W2        2375            0.0000000000
      7126      2376  TIP3      OH2            49.5890633595      -17.4473422861      -30.6729796465  W2        2376            0.0000000000
      7127      2376  TIP3      H1             49.5136633595      -17.5686222861      -31.6194596465  W2        2376            0.0000000000
      7128      2376  TIP3      H2             49.6219333595      -16.4980722861      -30.5545196465  W2        2376            0.0000000000
      7129      2377  TIP3      OH2            43.2424433595      -18.6586422861      -28.8920796465  W2        2377            0.0000000000
      7130      2377  TIP3      H1             43.3944833595      -19.0066022861      -28.0134296465  W2        2377            0.0000000000
      7131      2377  TIP3      H2             42.3914833595      -19.0149122861      -29.1473596465  W2        2377            0.0000000000
      7132      2378  TIP3      OH2            52.6906633595      -18.2933222861      -33.6707396465  W2        2378            0.0000000000
      7133      2378  TIP3      H1             53.0655033595      -19.0377122861      -34.1414796465  W2        2378            0.0000000000
      7134      2378  TIP3      H2             52.6950333595      -18.5632622861      -32.7524096465  W2        2378            0.0000000000
      7135      2379  TIP3      OH2            52.3594733595      -18.3676122861      -30.9215196465  W2        2379            0.0000000000
      7136      2379  TIP3      H1             51.4244533595      -18.2674222861      -30.7428196465  W2        2379            0.0000000000
      7137      2379  TIP3      H2             52.6396633595      -19.0770122861      -30.3431996465  W2        2379            0.0000000000
      7138      2380  TIP3      OH2            42.4970133595      -22.9164422861      -20.8782896465  W2        2380            0.0000000000
      7139      2380  TIP3      H1             42.7131433595      -23.2778822861      -20.0187096465  W2        2380            0.0000000000
      7140      2380  TIP3      H2             41.6414833595      -23.2910622861      -21.0879396465  W2        2380            0.0000000000
      7141      2381  TIP3      OH2            45.1158133595      -34.4463922861      -24.8828696465  W2        2381            0.0000000000
      7142      2381  TIP3      H1             44.2541833595      -34.5335722861      -25.2905796465  W2        2381            0.0000000000
      7143      2381  TIP3      H2             45.0933833595      -33.5903822861      -24.4551096465  W2        2381            0.0000000000
      7144      2382  TIP3      OH2            49.7785933595      -34.7243522861      -21.5081696465  W2        2382            0.0000000000
      7145      2382  TIP3      H1             50.1989033595      -35.1396422861      -20.7551096465  W2        2382            0.0000000000
      7146      2382  TIP3      H2             48.8455533595      -34.9030222861      -21.3909696465  W2        2382            0.0000000000
      7147      2383  TIP3      OH2            53.1050833595      -30.9688322861      -20.6547196465  W2        2383            0.0000000000
      7148      2383  TIP3      H1             52.5910333595      -31.0946122861      -19.8571196465  W2        2383            0.0000000000
      7149      2383  TIP3      H2             52.9495533595      -30.0565222861      -20.8990996465  W2        2383            0.0000000000
      7150      2384  TIP3      OH2            53.8675733595      -26.1078322861      -34.8934196465  W2        2384            0.0000000000
      7151      2384  TIP3      H1             53.9096533595      -26.3304422861      -35.8234196465  W2        2384            0.0000000000
      7152      2384  TIP3      H2             54.7167833595      -25.7091222861      -34.7034296465  W2        2384            0.0000000000
      7153      2385  TIP3      OH2            49.4403233595      -32.2320122861      -34.2230896465  W2        2385            0.0000000000
      7154      2385  TIP3      H1             49.1868033595      -32.2128522861      -33.3002796465  W2        2385            0.0000000000
      7155      2385  TIP3      H2             49.1835333595      -33.1034722861      -34.5244696465  W2        2385            0.0000000000
      7156      2386  TIP3      OH2            45.2068233595      -29.4809422861      -23.7878496465  W2        2386            0.0000000000
      7157      2386  TIP3      H1             44.5650333595      -29.5212122861      -23.0788396465  W2        2386            0.0000000000
      7158      2386  TIP3      H2             45.2440233595      -28.5544722861      -24.0255496465  W2        2386            0.0000000000
      7159      2387  TIP3      OH2            45.2037333595      -29.2599322861      -28.8758496465  W2        2387            0.0000000000
      7160      2387  TIP3      H1             44.3110233595      -29.6003222861      -28.9344696465  W2        2387            0.0000000000
      7161      2387  TIP3      H2             45.6543933595      -29.6368422861      -29.6315296465  W2        2387            0.0000000000
      7162      2388  TIP3      OH2            50.7392833595      -28.8439022861      -30.0587696465  W2        2388            0.0000000000
      7163      2388  TIP3      H1             50.3303133595      -28.0290422861      -30.3502896465  W2        2388            0.0000000000
      7164      2388  TIP3      H2             51.4599033595      -28.9838922861      -30.6730596465  W2        2388            0.0000000000
      7165      2389  TIP3      OH2            49.8414433595      -28.6682622861      -18.5706996465  W2        2389            0.0000000000
      7166      2389  TIP3      H1             49.2788233595      -29.3731022861      -18.2499196465  W2        2389            0.0000000000
      7167      2389  TIP3      H2             50.6677833595      -28.7890722861      -18.1029396465  W2        2389            0.0000000000
      7168      2390  TIP3      OH2            51.7440533595      -29.3978622861      -27.2447996465  W2        2390            0.0000000000
      7169      2390  TIP3      H1             51.5485033595      -28.7921822861      -27.9597396465  W2        2390            0.0000000000
      7170      2390  TIP3      H2             51.9253133595      -30.2313422861      -27.6791696465  W2        2390            0.0000000000
      7171      2391  TIP3      OH2            42.9568733595      -29.1605922861      -21.9206496465  W2        2391            0.0000000000
      7172      2391  TIP3      H1             42.9188133595      -28.7604322861      -21.0519396465  W2        2391            0.0000000000
      7173      2391  TIP3      H2             42.4659833595      -29.9773522861      -21.8303596465  W2        2391            0.0000000000
      7174      2392  TIP3      OH2            46.3226133595      -31.7863622861      -35.1220496465  W2        2392            0.0000000000
      7175      2392  TIP3      H1             45.8916833595      -32.2313522861      -34.3923096465  W2        2392            0.0000000000
      7176      2392  TIP3      H2             45.6044833595      -31.4147322861      -35.6342996465  W2        2392            0.0000000000
      7177      2393  TIP3      OH2            39.5649533595      -32.0444122861      -28.0701796465  W2        2393            0.0000000000
      7178      2393  TIP3      H1             40.1957233595      -32.0732022861      -27.3507896465  W2        2393            0.0000000000
      7179      2393  TIP3      H2             40.0143833595      -32.4695422861      -28.8005896465  W2        2393            0.0000000000
      7180      2394  TIP3      OH2            40.8391633595      -31.2982122861      -32.6461396465  W2        2394            0.0000000000
      7181      2394  TIP3      H1             41.3133333595      -30.7072222861      -33.2310496465  W2        2394            0.0000000000
      7182      2394  TIP3      H2             40.1218033595      -30.7679222861      -32.2991296465  W2        2394            0.0000000000
      7183      2395  TIP3      OH2            51.0079733595      -27.7597322861      -22.5735596465  W2        2395            0.0000000000
      7184      2395  TIP3      H1             51.3314533595      -28.3907622861      -23.2165096465  W2        2395            0.0000000000
      7185      2395  TIP3      H2             50.5679033595      -28.2945122861      -21.9128196465  W2        2395            0.0000000000
      7186      2396  TIP3      OH2            47.7852633595      -31.8321822861      -27.7894396465  W2        2396            0.0000000000
      7187      2396  TIP3      H1             46.8743733595      -31.7755022861      -27.5008396465  W2        2396            0.0000000000
      7188      2396  TIP3      H2             48.2905533595      -31.8926322861      -26.9787196465  W2        2396            0.0000000000
      7189      2397  TIP3      OH2            42.6136033595      -30.2035522861      -28.9626796465  W2        2397            0.0000000000
      7190      2397  TIP3      H1             41.7244033595      -30.1040022861      -29.3027196465  W2        2397            0.0000000000
      7191      2397  TIP3      H2             42.9100933595      -31.0452522861      -29.3088896465  W2        2397            0.0000000000
      7192      2398  TIP3      OH2            46.2667833595      -30.2032922861      -31.3062196465  W2        2398            0.0000000000
      7193      2398  TIP3      H1             47.1983333595      -30.0742922861      -31.1279096465  W2        2398            0.0000000000
      7194      2398  TIP3      H2             46.0518133595      -29.5338622861      -31.9557496465  W2        2398            0.0000000000
      7195      2399  TIP3      OH2            52.1904533595      -32.5975522861      -24.5252596465  W2        2399            0.0000000000
      7196      2399  TIP3      H1             51.5136133595      -32.4662422861      -23.8612896465  W2        2399            0.0000000000
      7197      2399  TIP3      H2             51.7049433595      -32.7526022861      -25.3354896465  W2        2399            0.0000000000
      7198      2400  TIP3      OH2            44.9408033595      -29.0090722861      -33.7396096465  W2        2400            0.0000000000
      7199      2400  TIP3      H1             44.3983133595      -29.3886922861      -34.4308496465  W2        2400            0.0000000000
      7200      2400  TIP3      H2             45.7742933595      -28.8146022861      -34.1681996465  W2        2400            0.0000000000
      7201      2401  TIP3      OH2            43.0759433595      -24.4518822861      -18.6404496465  W2        2401            0.0000000000
      7202      2401  TIP3      H1             43.8081833595      -24.1972922861      -18.0789996465  W2        2401            0.0000000000
      7203      2401  TIP3      H2             42.2958133595      -24.2473422861      -18.1249096465  W2        2401            0.0000000000
      7204      2402  TIP3      OH2            49.1052333595      -29.0448822861      -25.9024796465  W2        2402            0.0000000000
      7205      2402  TIP3      H1             49.6695733595      -29.5912222861      -26.4495196465  W2        2402            0.0000000000
      7206      2402  TIP3      H2             48.9575733595      -29.5666922861      -25.1137196465  W2        2402            0.0000000000
      7207      2403  TIP3      OH2            44.1072033595      -32.9082722861      -29.4839996465  W2        2403            0.0000000000
      7208      2403  TIP3      H1             43.7901533595      -33.8107422861      -29.5194596465  W2        2403            0.0000000000
      7209      2403  TIP3      H2             44.8886133595      -32.9065322861      -30.0368396465  W2        2403            0.0000000000
      7210      2404  TIP3      OH2            47.7318233595      -30.6562722861      -23.4884396465  W2        2404            0.0000000000
      7211      2404  TIP3      H1             46.8963533595      -30.2023222861      -23.3781996465  W2        2404            0.0000000000
      7212      2404  TIP3      H2             48.2558833595      -30.3804222861      -22.7364496465  W2        2404            0.0000000000
      7213      2405  TIP3      OH2            48.2760833595      -24.4435022861      -31.8037996465  W2        2405            0.0000000000
      7214      2405  TIP3      H1             47.5311833595      -24.9509722861      -32.1260096465  W2        2405            0.0000000000
      7215      2405  TIP3      H2             48.1418033595      -24.3947022861      -30.8573196465  W2        2405            0.0000000000
      7216      2406  TIP3      OH2            52.1737633595      -31.6295122861      -33.6045396465  W2        2406            0.0000000000
      7217      2406  TIP3      H1             51.2351833595      -31.5179522861      -33.7556596465  W2        2406            0.0000000000
      7218      2406  TIP3      H2             52.4709733595      -30.7728222861      -33.2979696465  W2        2406            0.0000000000
      7219      2407  TIP3      OH2            49.7952933595      -24.2591722861      -20.5668896465  W2        2407            0.0000000000
      7220      2407  TIP3      H1             49.4499033595      -24.6409322861      -19.7599296465  W2        2407            0.0000000000
      7221      2407  TIP3      H2             49.5953033595      -23.3258122861      -20.4955996465  W2        2407            0.0000000000
      7222      2408  TIP3      OH2            52.8921133595      -29.7622422861      -31.9437996465  W2        2408            0.0000000000
      7223      2408  TIP3      H1             53.7840133595      -29.8997422861      -31.6246796465  W2        2408            0.0000000000
      7224      2408  TIP3      H2             52.9484733595      -28.9716322861      -32.4804496465  W2        2408            0.0000000000
      7225      2409  TIP3      OH2            43.4009133595      -25.1485022861      -26.0340096465  W2        2409            0.0000000000
      7226      2409  TIP3      H1             44.1456333595      -25.1509322861      -26.6353596465  W2        2409            0.0000000000
      7227      2409  TIP3      H2             43.4785733595      -25.9721222861      -25.5524996465  W2        2409            0.0000000000
      7228      2410  TIP3      OH2            50.4014933595      -22.9850722861      -32.7783396465  W2        2410            0.0000000000
      7229      2410  TIP3      H1             50.1063333595      -22.1582822861      -32.3968596465  W2        2410            0.0000000000
      7230      2410  TIP3      H2             49.6984933595      -23.6043822861      -32.5821996465  W2        2410            0.0000000000
      7231      2411  TIP3      OH2            40.4088833595      -26.6878122861      -20.7191596465  W2        2411            0.0000000000
      7232      2411  TIP3      H1             40.6317433595      -27.1058522861      -19.8874096465  W2        2411            0.0000000000
      7233      2411  TIP3      H2             39.8068933595      -27.3003122861      -21.1418796465  W2        2411            0.0000000000
      7234      2412  TIP3      OH2            47.4253733595      -27.1708222861      -18.5061896465  W2        2412            0.0000000000
      7235      2412  TIP3      H1             47.1294533595      -27.3365222861      -19.4012796465  W2        2412            0.0000000000
      7236      2412  TIP3      H2             48.3568933595      -27.3907922861      -18.5167996465  W2        2412            0.0000000000
      7237      2413  TIP3      OH2            52.0456533595      -21.7976222861      -20.6163896465  W2        2413            0.0000000000
      7238      2413  TIP3      H1             51.1450833595      -21.6143622861      -20.8839996465  W2        2413            0.0000000000
      7239      2413  TIP3      H2             52.0797633595      -21.5386922861      -19.6955096465  W2        2413            0.0000000000
      7240      2414  TIP3      OH2            53.2325433595      -25.9588422861      -24.7627296465  W2        2414            0.0000000000
      7241      2414  TIP3      H1             52.3042333595      -26.1906522861      -24.7897996465  W2        2414            0.0000000000
      7242      2414  TIP3      H2             53.6836533595      -26.7358622861      -25.0928496465  W2        2414            0.0000000000
      7243      2415  TIP3      OH2            45.7758533595      -21.6306822861      -28.6298596465  W2        2415            0.0000000000
      7244      2415  TIP3      H1             46.3030733595      -20.8572422861      -28.8299796465  W2        2415            0.0000000000
      7245      2415  TIP3      H2             44.8957033595      -21.4057622861      -28.9314596465  W2        2415            0.0000000000
      7246      2416  TIP3      OH2            41.5306233595      -26.7682722861      -34.0426196465  W2        2416            0.0000000000
      7247      2416  TIP3      H1             42.1466133595      -26.1415522861      -33.6631396465  W2        2416            0.0000000000
      7248      2416  TIP3      H2             40.6688833595      -26.4522922861      -33.7709696465  W2        2416            0.0000000000
      7249      2417  TIP3      OH2            47.2030833595      -23.9676922861      -29.0534296465  W2        2417            0.0000000000
      7250      2417  TIP3      H1             46.9620833595      -23.0422522861      -29.0118996465  W2        2417            0.0000000000
      7251      2417  TIP3      H2             46.4624433595      -24.4265622861      -28.6570396465  W2        2417            0.0000000000
      7252      2418  TIP3      OH2            47.7177433595      -19.8183322861      -22.7383196465  W2        2418            0.0000000000
      7253      2418  TIP3      H1             48.0802133595      -18.9637722861      -22.9718796465  W2        2418            0.0000000000
      7254      2418  TIP3      H2             48.2492633595      -20.1101722861      -21.9976896465  W2        2418            0.0000000000
      7255      2419  TIP3      OH2            45.8861633595      -18.9459322861      -29.5082096465  W2        2419            0.0000000000
      7256      2419  TIP3      H1             44.9362133595      -18.8401922861      -29.4568796465  W2        2419            0.0000000000
      7257      2419  TIP3      H2             46.2379733595      -18.1251922861      -29.1634596465  W2        2419            0.0000000000
      7258      2420  TIP3      OH2            51.2618233595      -23.7192622861      -23.0377596465  W2        2420            0.0000000000
      7259      2420  TIP3      H1             50.8359533595      -23.9470922861      -22.2113596465  W2        2420            0.0000000000
      7260      2420  TIP3      H2             51.8424033595      -24.4580822861      -23.2202296465  W2        2420            0.0000000000
      7261      2421  TIP3      OH2            53.4647133595      -22.7902122861      -33.9638596465  W2        2421            0.0000000000
      7262      2421  TIP3      H1             53.8180233595      -23.1702322861      -33.1595096465  W2        2421            0.0000000000
      7263      2421  TIP3      H2             52.5160633595      -22.8837322861      -33.8769296465  W2        2421            0.0000000000
      7264      2422  TIP3      OH2            53.9202433595      -19.1673122861      -20.5682796465  W2        2422            0.0000000000
      7265      2422  TIP3      H1             53.3185633595      -19.7230222861      -21.0636496465  W2        2422            0.0000000000
      7266      2422  TIP3      H2             54.2016133595      -18.5003322861      -21.1945396465  W2        2422            0.0000000000
      7267      2423  TIP3      OH2            42.0428333595      -31.9345422861      -21.1610196465  W2        2423            0.0000000000
      7268      2423  TIP3      H1             41.1500633595      -31.5960022861      -21.2286196465  W2        2423            0.0000000000
      7269      2423  TIP3      H2             41.9441133595      -32.7899322861      -20.7429396465  W2        2423            0.0000000000
      7270      2424  TIP3      OH2            54.3306433595      -24.1180122861      -31.7370696465  W2        2424            0.0000000000
      7271      2424  TIP3      H1             54.0534033595      -24.8460822861      -31.1809596465  W2        2424            0.0000000000
      7272      2424  TIP3      H2             55.2579433595      -23.9988122861      -31.5318096465  W2        2424            0.0000000000
      7273      2425  TIP3      OH2            41.6940333595      -20.1301022861      -22.7260796465  W2        2425            0.0000000000
      7274      2425  TIP3      H1             41.9110633595      -21.0618622861      -22.7571096465  W2        2425            0.0000000000
      7275      2425  TIP3      H2             41.9403833595      -19.8556022861      -21.8427996465  W2        2425            0.0000000000
      7276      2426  TIP3      OH2            47.5554933595      -21.6786022861      -35.5168596465  W2        2426            0.0000000000
      7277      2426  TIP3      H1             47.7944733595      -22.4267922861      -36.0639696465  W2        2426            0.0000000000
      7278      2426  TIP3      H2             47.2866233595      -22.0664322861      -34.6840796465  W2        2426            0.0000000000
      7279      2427  TIP3      OH2            46.4925533595      -22.1082222861      -33.0605996465  W2        2427            0.0000000000
      7280      2427  TIP3      H1             46.6393533595      -22.6282422861      -32.2705096465  W2        2427            0.0000000000
      7281      2427  TIP3      H2             46.4897233595      -21.2014622861      -32.7540096465  W2        2427            0.0000000000
      7282      2428  TIP3      OH2            42.9456633595      -24.8558922861      -32.5500596465  W2        2428            0.0000000000
      7283      2428  TIP3      H1             42.2595933595      -24.5036422861      -31.9830896465  W2        2428            0.0000000000
      7284      2428  TIP3      H2             43.4684533595      -24.0929322861      -32.7966296465  W2        2428            0.0000000000
      7285      2429  TIP3      OH2            50.7771733595      -32.1935122861      -22.2711596465  W2        2429            0.0000000000
      7286      2429  TIP3      H1             51.4759633595      -32.1196422861      -21.6211896465  W2        2429            0.0000000000
      7287      2429  TIP3      H2             50.3963133595      -33.0580122861      -22.1168696465  W2        2429            0.0000000000
      7288      2430  TIP3      OH2            51.5616633595      -32.5413422861      -31.1739296465  W2        2430            0.0000000000
      7289      2430  TIP3      H1             51.7814933595      -32.0698022861      -31.9773896465  W2        2430            0.0000000000
      7290      2430  TIP3      H2             52.1200633595      -32.1470822861      -30.5038696465  W2        2430            0.0000000000
      7291      2431  TIP3      OH2            49.2302733595      -20.4108622861      -32.3111796465  W2        2431            0.0000000000
      7292      2431  TIP3      H1             48.4138833595      -19.9138922861      -32.2587496465  W2        2431            0.0000000000
      7293      2431  TIP3      H2             49.7599033595      -19.9355122861      -32.9512996465  W2        2431            0.0000000000
      7294      2432  TIP3      OH2            48.7616533595      -30.8134622861      -30.3390896465  W2        2432            0.0000000000
      7295      2432  TIP3      H1             49.5739133595      -30.3091422861      -30.2929196465  W2        2432            0.0000000000
      7296      2432  TIP3      H2             48.5169533595      -30.9584922861      -29.4251296465  W2        2432            0.0000000000
      7297      2433  TIP3      OH2            49.2972933595      -29.8271922861      -21.1544296465  W2        2433            0.0000000000
      7298      2433  TIP3      H1             49.4163233595      -29.2536522861      -20.3973896465  W2        2433            0.0000000000
      7299      2433  TIP3      H2             49.9527533595      -30.5152522861      -21.0396496465  W2        2433            0.0000000000
      7300      2434  TIP3      OH2            49.6453233595      -33.7321622861      -29.4009796465  W2        2434            0.0000000000
      7301      2434  TIP3      H1             49.2986733595      -33.1151022861      -28.7565496465  W2        2434            0.0000000000
      7302      2434  TIP3      H2             50.3040133595      -33.2315922861      -29.8824296465  W2        2434            0.0000000000
      7303      2435  TIP3      OH2            46.5685833595      -19.3671422861      -32.3294896465  W2        2435            0.0000000000
      7304      2435  TIP3      H1             46.7294533595      -18.5673922861      -32.8302296465  W2        2435            0.0000000000
      7305      2435  TIP3      H2             46.3713633595      -19.0605422861      -31.4444296465  W2        2435            0.0000000000
      7306      2436  TIP3      OH2            45.3030233595      -32.6692222861      -32.7137296465  W2        2436            0.0000000000
      7307      2436  TIP3      H1             45.2195033595      -31.7809122861      -32.3670896465  W2        2436            0.0000000000
      7308      2436  TIP3      H2             46.1930533595      -32.9345522861      -32.4820496465  W2        2436            0.0000000000
      7309      2437  TIP3      OH2            54.1039733595      -28.1700622861      -26.2237296465  W2        2437            0.0000000000
      7310      2437  TIP3      H1             53.3064133595      -28.5850422861      -26.5522296465  W2        2437            0.0000000000
      7311      2437  TIP3      H2             54.5490833595      -28.8606922861      -25.7326796465  W2        2437            0.0000000000
      7312      2438  TIP3      OH2            43.5615533595      -22.2420022861      -33.6532796465  W2        2438            0.0000000000
      7313      2438  TIP3      H1             44.1537033595      -21.5425222861      -33.3770396465  W2        2438            0.0000000000
      7314      2438  TIP3      H2             44.0208533595      -22.6750522861      -34.3728196465  W2        2438            0.0000000000
      7315      2439  TIP3      OH2            41.8774733595      -29.5777022861      -34.5373396465  W2        2439            0.0000000000
      7316      2439  TIP3      H1             41.8327333595      -28.6383922861      -34.3586396465  W2        2439            0.0000000000
      7317      2439  TIP3      H2             40.9897933595      -29.8132122861      -34.8071296465  W2        2439            0.0000000000
      7318      2440  TIP3      OH2            42.6856733595      -34.7960422861      -25.8642396465  W2        2440            0.0000000000
      7319      2440  TIP3      H1             42.4566533595      -34.7367922861      -26.7917396465  W2        2440            0.0000000000
      7320      2440  TIP3      H2             42.2430133595      -35.5874922861      -25.5578296465  W2        2440            0.0000000000
      7321      2441  TIP3      OH2            41.6160033595      -20.8553322861      -29.7036596465  W2        2441            0.0000000000
      7322      2441  TIP3      H1             40.7838633595      -20.3830622861      -29.6765196465  W2        2441            0.0000000000
      7323      2441  TIP3      H2             42.1618333595      -20.3455722861      -30.3023496465  W2        2441            0.0000000000
      7324      2442  TIP3      OH2            40.9043733595      -18.2429622861      -18.3738596465  W2        2442            0.0000000000
      7325      2442  TIP3      H1             41.4445933595      -18.4595622861      -17.6139396465  W2        2442            0.0000000000
      7326      2442  TIP3      H2             40.4231733595      -19.0483622861      -18.5636096465  W2        2442            0.0000000000
      7327      2443  TIP3      OH2            45.5017133595      -19.3235222861      -16.7534396465  W2        2443            0.0000000000
      7328      2443  TIP3      H1             46.2694333595      -19.7824422861      -16.4125196465  W2        2443            0.0000000000
      7329      2443  TIP3      H2             45.4803333595      -19.5495422861      -17.6833196465  W2        2443            0.0000000000
      7330      2444  TIP3      OH2            49.5936733595      -19.8154622861      -35.3782596465  W2        2444            0.0000000000
      7331      2444  TIP3      H1             48.9497733595      -20.4466022861      -35.0568896465  W2        2444            0.0000000000
      7332      2444  TIP3      H2             50.3555033595      -20.3466622861      -35.6099096465  W2        2444            0.0000000000
      7333      2445  TIP3      OH2            52.0785833595      -20.9434122861      -18.0242896465  W2        2445            0.0000000000
      7334      2445  TIP3      H1             51.7275333595      -21.8001122861      -17.7812496465  W2        2445            0.0000000000
      7335      2445  TIP3      H2             52.8049033595      -20.8007422861      -17.4173896465  W2        2445            0.0000000000
      7336      2446  TIP3      OH2            54.1979633595      -19.9984722861      -35.1444596465  W2        2446            0.0000000000
      7337      2446  TIP3      H1             54.4810033595      -20.7929522861      -34.6917696465  W2        2446            0.0000000000
      7338      2446  TIP3      H2             54.9377533595      -19.7653722861      -35.7053496465  W2        2446            0.0000000000
      7339      2447  TIP3      OH2            40.8113233595      -24.4325522861      -17.4194296465  W2        2447            0.0000000000
      7340      2447  TIP3      H1             40.9553733595      -25.3344822861      -17.7057596465  W2        2447            0.0000000000
      7341      2447  TIP3      H2             40.0390633595      -24.1463422861      -17.9071996465  W2        2447            0.0000000000
      7342      2448  TIP3      OH2            45.1526933595      -24.0889822861      -35.2869696465  W2        2448            0.0000000000
      7343      2448  TIP3      H1             45.2171033595      -24.8830222861      -34.7563296465  W2        2448            0.0000000000
      7344      2448  TIP3      H2             45.8056133595      -24.2077022861      -35.9767696465  W2        2448            0.0000000000
      7345      2449  TIP3      OH2            47.4669333595      -24.4627422861      -17.9867896465  W2        2449            0.0000000000
      7346      2449  TIP3      H1             47.1383133595      -24.1919322861      -18.8440496465  W2        2449            0.0000000000
      7347      2449  TIP3      H2             47.6187533595      -25.4037622861      -18.0742896465  W2        2449            0.0000000000
      7348      2450  TIP3      OH2            50.5050333595      -23.0418122861      -35.5511696465  W2        2450            0.0000000000
      7349      2450  TIP3      H1             50.2364433595      -22.8616022861      -34.6502796465  W2        2450            0.0000000000
      7350      2450  TIP3      H2             50.2985933595      -23.9671922861      -35.6825896465  W2        2450            0.0000000000
      7351      2451  TIP3      OH2            53.2014533595      -24.5470122861      -20.6035596465  W2        2451            0.0000000000
      7352      2451  TIP3      H1             53.9469333595      -23.9586422861      -20.7231596465  W2        2451            0.0000000000
      7353      2451  TIP3      H2             52.4441333595      -23.9650422861      -20.5402496465  W2        2451            0.0000000000
      7354      2452  TIP3      OH2            41.6439733595      -27.2322222861      -17.9994996465  W2        2452            0.0000000000
      7355      2452  TIP3      H1             42.0520933595      -28.0895622861      -18.1204396465  W2        2452            0.0000000000
      7356      2452  TIP3      H2             41.3837333595      -27.2180922861      -17.0784696465  W2        2452            0.0000000000
      7357      2453  TIP3      OH2            46.3020733595      -26.1163622861      -32.9811696465  W2        2453            0.0000000000
      7358      2453  TIP3      H1             45.8422733595      -26.6005322861      -32.2953196465  W2        2453            0.0000000000
      7359      2453  TIP3      H2             46.5569433595      -26.7848222861      -33.6171196465  W2        2453            0.0000000000
      7360      2454  TIP3      OH2            45.5910033595      -28.2236522861      -20.6252096465  W2        2454            0.0000000000
      7361      2454  TIP3      H1             44.9726133595      -27.5489922861      -20.3447396465  W2        2454            0.0000000000
      7362      2454  TIP3      H2             45.9351233595      -27.9022622861      -21.4585896465  W2        2454            0.0000000000
      7363      2455  TIP3      OH2            47.3731133595      -27.8731822861      -34.7188496465  W2        2455            0.0000000000
      7364      2455  TIP3      H1             47.1926133595      -28.0280622861      -35.6460196465  W2        2455            0.0000000000
      7365      2455  TIP3      H2             48.3231633595      -27.7653122861      -34.6740596465  W2        2455            0.0000000000
      7366      2456  TIP3      OH2            50.6108233595      -25.7521222861      -17.3477296465  W2        2456            0.0000000000
      7367      2456  TIP3      H1             51.5639433595      -25.6682122861      -17.3751296465  W2        2456            0.0000000000
      7368      2456  TIP3      H2             50.4502833595      -26.4639422861      -16.7282396465  W2        2456            0.0000000000
      7369      2457  TIP3      OH2            45.9303733595      -30.8685722861      -19.5428996465  W2        2457            0.0000000000
      7370      2457  TIP3      H1             46.0804633595      -31.5974422861      -20.1449296465  W2        2457            0.0000000000
      7371      2457  TIP3      H2             45.9326133595      -30.0914022861      -20.1016796465  W2        2457            0.0000000000
      7372      2458  TIP3      OH2            46.3429433595      -32.4989922861      -22.0501596465  W2        2458            0.0000000000
      7373      2458  TIP3      H1             46.8786933595      -32.0473222861      -22.7022296465  W2        2458            0.0000000000
      7374      2458  TIP3      H2             45.4909033595      -32.6070122861      -22.4727496465  W2        2458            0.0000000000
      7375      2459  TIP3      OH2            47.9247833595      -27.0593722861      -21.8106396465  W2        2459            0.0000000000
      7376      2459  TIP3      H1             48.6752633595      -27.2156222861      -22.3838596465  W2        2459            0.0000000000
      7377      2459  TIP3      H2             47.5856133595      -26.2077122861      -22.0860896465  W2        2459            0.0000000000
      7378      2460  TIP3      OH2            52.3404033595      -29.2441922861      -16.7821096465  W2        2460            0.0000000000
      7379      2460  TIP3      H1             52.5325333595      -30.1752522861      -16.8936596465  W2        2460            0.0000000000
      7380      2460  TIP3      H2             53.1980333595      -28.8192422861      -16.7925696465  W2        2460            0.0000000000
      7381      2461  TIP3      OH2            53.6571233595      -26.4556722861      -18.7048396465  W2        2461            0.0000000000
      7382      2461  TIP3      H1             53.3756233595      -25.7462122861      -19.2824596465  W2        2461            0.0000000000
      7383      2461  TIP3      H2             54.5995533595      -26.5283722861      -18.8557196465  W2        2461            0.0000000000
      7384      2462  TIP3      OH2            44.4090033595      -29.6702222861      -17.6313396465  W2        2462            0.0000000000
      7385      2462  TIP3      H1             43.6419033595      -30.2027422861      -17.8415796465  W2        2462            0.0000000000
      7386      2462  TIP3      H2             45.0879033595      -29.9801822861      -18.2307096465  W2        2462            0.0000000000
      7387      2463  TIP3      OH2            47.1484933595      -35.0424222861      -21.6187996465  W2        2463            0.0000000000
      7388      2463  TIP3      H1             47.0504533595      -34.0961022861      -21.7241796465  W2        2463            0.0000000000
      7389      2463  TIP3      H2             46.4061133595      -35.4150422861      -22.0944496465  W2        2463            0.0000000000
      7390      2464  TIP3      OH2            48.4125433595      -30.7208822861      -18.0549596465  W2        2464            0.0000000000
      7391      2464  TIP3      H1             48.1770833595      -30.9402122861      -17.1534696465  W2        2464            0.0000000000
      7392      2464  TIP3      H2             47.6292333595      -30.9277622861      -18.5647096465  W2        2464            0.0000000000
      7393      2465  TIP3      OH2            51.1282033595      -31.5935322861      -18.9796096465  W2        2465            0.0000000000
      7394      2465  TIP3      H1             50.1807433595      -31.5615622861      -18.8472796465  W2        2465            0.0000000000
      7395      2465  TIP3      H2             51.4408733595      -32.2188222861      -18.3257896465  W2        2465            0.0000000000
      7396      2466  TIP3      OH2            52.7623533595      -32.9594222861      -16.9744196465  W2        2466            0.0000000000
      7397      2466  TIP3      H1             52.6655333595      -33.9116922861      -16.9802296465  W2        2466            0.0000000000
      7398      2466  TIP3      H2             52.4406633595      -32.6907422861      -16.1138696465  W2        2466            0.0000000000
      7399      2467  TIP3      OH2            42.5892833595      -31.7498422861      -17.9268696465  W2        2467            0.0000000000
      7400      2467  TIP3      H1             42.8010233595      -32.4562322861      -18.5371196465  W2        2467            0.0000000000
      7401      2467  TIP3      H2             42.4780333595      -32.1872422861      -17.0827496465  W2        2467            0.0000000000
      7402      2468  TIP3      OH2            47.3703033595      -35.7486822861      -18.9475196465  W2        2468            0.0000000000
      7403      2468  TIP3      H1             48.0821433595      -36.3884622861      -18.9616096465  W2        2468            0.0000000000
      7404      2468  TIP3      H2             47.2693433595      -35.4818522861      -19.8612096465  W2        2468            0.0000000000
      7405      2469  TIP3      OH2            47.7240533595      -34.0658422861      -16.8938896465  W2        2469            0.0000000000
      7406      2469  TIP3      H1             47.5922733595      -34.5414622861      -17.7140396465  W2        2469            0.0000000000
      7407      2469  TIP3      H2             47.1247933595      -33.3214822861      -16.9491796465  W2        2469            0.0000000000
      7408      2470  TIP3      OH2            47.2702833595      -17.1828122861      -33.7174896465  W2        2470            0.0000000000
      7409      2470  TIP3      H1             48.2033533595      -17.0249422861      -33.5736496465  W2        2470            0.0000000000
      7410      2470  TIP3      H2             47.0061633595      -16.5075122861      -34.3423396465  W2        2470            0.0000000000
      7411      2471  TIP3      OH2            40.8387733595      -22.5464322861      -34.2346796465  W2        2471            0.0000000000
      7412      2471  TIP3      H1             41.7526933595      -22.4675422861      -33.9612896465  W2        2471            0.0000000000
      7413      2471  TIP3      H2             40.8460833595      -23.2334722861      -34.9011196465  W2        2471            0.0000000000
      7414      2472  TIP3      OH2            39.4878333595      -17.1535822861      -29.1572896465  W2        2472            0.0000000000
      7415      2472  TIP3      H1             38.8405433595      -17.6154122861      -29.6901696465  W2        2472            0.0000000000
      7416      2472  TIP3      H2             39.8422933595      -17.8252522861      -28.5746696465  W2        2472            0.0000000000
      7417      2473  TIP3      OH2            40.3577533595      -19.0728822861      -27.3526696465  W2        2473            0.0000000000
      7418      2473  TIP3      H1             40.0234333595      -19.9531522861      -27.1806496465  W2        2473            0.0000000000
      7419      2473  TIP3      H2             40.5799933595      -18.7273822861      -26.4881096465  W2        2473            0.0000000000
      7420      2474  TIP3      OH2            40.4377033595      -25.9973422861      -24.9011796465  W2        2474            0.0000000000
      7421      2474  TIP3      H1             40.6219933595      -26.0791722861      -25.8368896465  W2        2474            0.0000000000
      7422      2474  TIP3      H2             41.2869933595      -26.1216422861      -24.4775396465  W2        2474            0.0000000000
      7423      2475  TIP3      OH2            40.0351833595      -30.7268422861      -18.7602996465  W2        2475            0.0000000000
      7424      2475  TIP3      H1             40.9546733595      -30.8490122861      -18.5239896465  W2        2475            0.0000000000
      7425      2475  TIP3      H2             39.5856333595      -31.4768722861      -18.3709496465  W2        2475            0.0000000000
      7426      2476  TIP3      OH2            41.2564333595      -32.4146822861      -25.8690096465  W2        2476            0.0000000000
      7427      2476  TIP3      H1             41.7015933595      -33.2064322861      -25.5670396465  W2        2476            0.0000000000
      7428      2476  TIP3      H2             41.7227333595      -31.6981622861      -25.4384496465  W2        2476            0.0000000000
      7429      2477  TIP3      OH2            39.5604633595      -29.4153822861      -24.7999896465  W2        2477            0.0000000000
      7430      2477  TIP3      H1             40.0524433595      -29.6363322861      -25.5907896465  W2        2477            0.0000000000
      7431      2477  TIP3      H2             39.9225533595      -28.5750422861      -24.5190396465  W2        2477            0.0000000000
      7432      2478  TIP3      OH2            39.8741133595      -33.1574722861      -30.7457496465  W2        2478            0.0000000000
      7433      2478  TIP3      H1             38.9489533595      -32.9488122861      -30.8751996465  W2        2478            0.0000000000
      7434      2478  TIP3      H2             40.3281033595      -32.6733922861      -31.4355196465  W2        2478            0.0000000000
      7435      2479  TIP3      OH2            54.6448333595      -18.1733022861      -28.8000096465  W2        2479            0.0000000000
      7436      2479  TIP3      H1             55.2971233595      -18.5210922861      -29.4080996465  W2        2479            0.0000000000
      7437      2479  TIP3      H2             55.1552133595      -17.6849822861      -28.1540396465  W2        2479            0.0000000000
      7438      2480  TIP3      OH2            39.8376533595      -34.4195722861      -22.4014996465  W2        2480            0.0000000000
      7439      2480  TIP3      H1             39.1727033595      -34.6655422861      -21.7584096465  W2        2480            0.0000000000
      7440      2480  TIP3      H2             39.3947833595      -33.7975322861      -22.9786996465  W2        2480            0.0000000000
      7441      2481  TIP3      OH2            42.0295833595      -21.2441622861      -18.2569196465  W2        2481            0.0000000000
      7442      2481  TIP3      H1             41.2088333595      -21.0695122861      -18.7174496465  W2        2481            0.0000000000
      7443      2481  TIP3      H2             41.7773633595      -21.3176922861      -17.3364796465  W2        2481            0.0000000000
      7444      2482  TIP3      OH2            44.9838733595      -20.2700422861      -21.9985196465  W2        2482            0.0000000000
      7445      2482  TIP3      H1             44.5589833595      -19.4601922861      -22.2810596465  W2        2482            0.0000000000
      7446      2482  TIP3      H2             45.8881533595      -20.1846322861      -22.3005396465  W2        2482            0.0000000000
      7447      2483  TIP3      OH2            49.2950133595      -18.8710422861      -19.0391496465  W2        2483            0.0000000000
      7448      2483  TIP3      H1             49.4797633595      -19.2044322861      -18.1611196465  W2        2483            0.0000000000
      7449      2483  TIP3      H2             50.1414633595      -18.5611822861      -19.3612296465  W2        2483            0.0000000000
      7450      2484  TIP3      OH2            51.6400533595      -17.5851522861      -19.7950096465  W2        2484            0.0000000000
      7451      2484  TIP3      H1             52.3169433595      -18.2179222861      -20.0350896465  W2        2484            0.0000000000
      7452      2484  TIP3      H2             51.9619333595      -17.1841022861      -18.9876796465  W2        2484            0.0000000000
      7453      2485  TIP3      OH2            42.3855433595      -17.0136522861      -21.9509896465  W2        2485            0.0000000000
      7454      2485  TIP3      H1             41.6651833595      -16.5735522861      -22.4022196465  W2        2485            0.0000000000
      7455      2485  TIP3      H2             42.0199433595      -17.2641822861      -21.1025896465  W2        2485            0.0000000000
      7456      2486  TIP3      OH2            44.8528033595      -17.4132622861      -22.9212696465  W2        2486            0.0000000000
      7457      2486  TIP3      H1             43.9880233595      -17.3414122861      -22.5172596465  W2        2486            0.0000000000
      7458      2486  TIP3      H2             44.7977033595      -16.8665322861      -23.7050196465  W2        2486            0.0000000000
      7459      2487  TIP3      OH2            49.5633633595      -17.5253722861      -23.7456696465  W2        2487            0.0000000000
      7460      2487  TIP3      H1             49.1067633595      -16.9964022861      -24.3998296465  W2        2487            0.0000000000
      7461      2487  TIP3      H2             49.7261633595      -16.9222322861      -23.0204396465  W2        2487            0.0000000000
      7462      2488  TIP3      OH2            51.8909933595      -18.6474122861      -22.8006396465  W2        2488            0.0000000000
      7463      2488  TIP3      H1             50.9863633595      -18.4823922861      -23.0664296465  W2        2488            0.0000000000
      7464      2488  TIP3      H2             52.3198533595      -17.7941922861      -22.8662996465  W2        2488            0.0000000000
      7465      2489  TIP3      OH2            54.4951833595      -17.0775022861      -22.5058596465  W2        2489            0.0000000000
      7466      2489  TIP3      H1             54.3133833595      -16.1616122861      -22.7163696465  W2        2489            0.0000000000
      7467      2489  TIP3      H2             54.6719633595      -17.4877922861      -23.3523996465  W2        2489            0.0000000000
      7468      2490  TIP3      OH2            41.8003533595      -18.3904022861      -25.0408096465  W2        2490            0.0000000000
      7469      2490  TIP3      H1             41.7819533595      -18.8158922861      -24.1835796465  W2        2490            0.0000000000
      7470      2490  TIP3      H2             42.6051433595      -18.7089022861      -25.4495896465  W2        2490            0.0000000000
      7471      2491  TIP3      OH2            43.9416633595      -19.6805322861      -26.3858196465  W2        2491            0.0000000000
      7472      2491  TIP3      H1             43.7227333595      -20.5967922861      -26.2162196465  W2        2491            0.0000000000
      7473      2491  TIP3      H2             44.7658833595      -19.5404922861      -25.9196796465  W2        2491            0.0000000000
      7474      2492  TIP3      OH2            46.4789133595      -19.2106022861      -25.5370196465  W2        2492            0.0000000000
      7475      2492  TIP3      H1             46.6914833595      -20.0987022861      -25.8239296465  W2        2492            0.0000000000
      7476      2492  TIP3      H2             46.5434233595      -19.2448322861      -24.5826196465  W2        2492            0.0000000000
      7477      2493  TIP3      OH2            49.9872833595      -33.5465422861      -26.3926896465  W2        2493            0.0000000000
      7478      2493  TIP3      H1             49.3129633595      -34.1759822861      -26.1371096465  W2        2493            0.0000000000
      7479      2493  TIP3      H2             50.5512033595      -34.0306522861      -26.9958996465  W2        2493            0.0000000000
      7480      2494  TIP3      OH2            42.3140333595      -34.9125122861      -28.5706996465  W2        2494            0.0000000000
      7481      2494  TIP3      H1             41.5370133595      -35.1470222861      -29.0781096465  W2        2494            0.0000000000
      7482      2494  TIP3      H2             42.8443933595      -35.7093022861      -28.5618996465  W2        2494            0.0000000000
      7483      2495  TIP3      OH2            41.1503733595      -35.1147022861      -32.7670896465  W2        2495            0.0000000000
      7484      2495  TIP3      H1             41.5894433595      -34.5036522861      -33.3587396465  W2        2495            0.0000000000
      7485      2495  TIP3      H2             40.5166133595      -34.5762922861      -32.2930896465  W2        2495            0.0000000000
      7486      2496  TIP3      OH2            46.8932933595      -34.9858022861      -28.7573896465  W2        2496            0.0000000000
      7487      2496  TIP3      H1             47.7676333595      -34.5973722861      -28.7869596465  W2        2496            0.0000000000
      7488      2496  TIP3      H2             46.7573733595      -35.2010222861      -27.8346696465  W2        2496            0.0000000000
      7489      2497  TIP3      OH2            52.4501333595      -34.9558222861      -27.1082196465  W2        2497            0.0000000000
      7490      2497  TIP3      H1             52.5262933595      -34.8606622861      -28.0576196465  W2        2497            0.0000000000
      7491      2497  TIP3      H2             52.1750533595      -35.8635322861      -26.9793096465  W2        2497            0.0000000000
      7492      2498  TIP3      OH2            53.8033933595      -34.9300422861      -31.4157196465  W2        2498            0.0000000000
      7493      2498  TIP3      H1             53.1005033595      -34.3151222861      -31.6255796465  W2        2498            0.0000000000
      7494      2498  TIP3      H2             53.3585333595      -35.7673722861      -31.2846296465  W2        2498            0.0000000000
      7495      2499  TIP3      OH2            41.0513233595      -19.1664822861      -31.8695796465  W2        2499            0.0000000000
      7496      2499  TIP3      H1             40.3663133595      -19.2045922861      -32.5370696465  W2        2499            0.0000000000
      7497      2499  TIP3      H2             41.0550433595      -18.2537222861      -31.5813696465  W2        2499            0.0000000000
      7498      2500  TIP3      OH2            43.0112833595      -33.1985522861      -34.3246796465  W2        2500            0.0000000000
      7499      2500  TIP3      H1             43.5026233595      -33.8283122861      -34.8521296465  W2        2500            0.0000000000
      7500      2500  TIP3      H2             43.6349133595      -32.9026122861      -33.6615596465  W2        2500            0.0000000000
      7501      2501  TIP3      OH2            48.0372933595      -32.9054022861      -31.8676296465  W2        2501            0.0000000000
      7502      2501  TIP3      H1             48.2154233595      -33.5520822861      -31.1847696465  W2        2501            0.0000000000
      7503      2501  TIP3      H2             47.9839133595      -32.0716322861      -31.4005196465  W2        2501            0.0000000000
      7504      2502  TIP3      OH2            49.9156733595      -17.9569922861      -33.4719596465  W2        2502            0.0000000000
      7505      2502  TIP3      H1             50.7816933595      -17.5902522861      -33.6501396465  W2        2502            0.0000000000
      7506      2502  TIP3      H2             49.6689533595      -18.3961922861      -34.2858796465  W2        2502            0.0000000000
      7507      2503  TIP3      OH2            42.2718333595      -34.3983222861      -19.0530796465  W2        2503            0.0000000000
      7508      2503  TIP3      H1             41.9056533595      -35.1640622861      -18.6106096465  W2        2503            0.0000000000
      7509      2503  TIP3      H2             43.1846833595      -34.3693022861      -18.7665696465  W2        2503            0.0000000000
      7510      2504  TIP3      OH2            44.2449133595      -35.0478822861      -17.5173696465  W2        2504            0.0000000000
      7511      2504  TIP3      H1             45.1432733595      -35.3218622861      -17.7020296465  W2        2504            0.0000000000
      7512      2504  TIP3      H2             43.8582233595      -35.7902822861      -17.0531096465  W2        2504            0.0000000000
      7513      2505  TIP3      OH2            42.8694433595      -18.2464022861      -34.8443696465  W2        2505            0.0000000000
      7514      2505  TIP3      H1             42.6019033595      -17.9601122861      -33.9710596465  W2        2505            0.0000000000
      7515      2505  TIP3      H2             43.6407033595      -18.7924822861      -34.6921196465  W2        2505            0.0000000000
      7516      2506  TIP3      OH2            52.6661433595      -35.7153522861      -17.3350896465  W2        2506            0.0000000000
      7517      2506  TIP3      H1             52.7428633595      -36.1412822861      -16.4813196465  W2        2506            0.0000000000
      7518      2506  TIP3      H2             53.5598033595      -35.7018822861      -17.6777396465  W2        2506            0.0000000000
      7519      2507  TIP3      OH2           -42.8877066405       -6.9002822861      -28.6119496465  W2        2507            0.0000000000
      7520      2507  TIP3      H1            -42.7985966405       -5.9564622861      -28.7442396465  W2        2507            0.0000000000
      7521      2507  TIP3      H2            -43.5259466405       -7.1756422861      -29.2700096465  W2        2507            0.0000000000
      7522      2508  TIP3      OH2           -43.9545766405       -7.6452122861      -25.1931296465  W2        2508            0.0000000000
      7523      2508  TIP3      H1            -43.9928266405       -8.2915822861      -24.4881696465  W2        2508            0.0000000000
      7524      2508  TIP3      H2            -44.2769266405       -8.1117722861      -25.9642596465  W2        2508            0.0000000000
      7525      2509  TIP3      OH2           -51.5860766405       -8.0310022861      -23.6001396465  W2        2509            0.0000000000
      7526      2509  TIP3      H1            -51.5448666405       -8.6566722861      -22.8768996465  W2        2509            0.0000000000
      7527      2509  TIP3      H2            -50.8833066405       -7.4071422861      -23.4180996465  W2        2509            0.0000000000
      7528      2510  TIP3      OH2           -40.2485566405       -4.7061722861      -26.8916196465  W2        2510            0.0000000000
      7529      2510  TIP3      H1            -40.6892866405       -5.4265722861      -26.4410596465  W2        2510            0.0000000000
      7530      2510  TIP3      H2            -40.2615866405       -3.9854522861      -26.2618496465  W2        2510            0.0000000000
      7531      2511  TIP3      OH2           -50.6627666405       -3.5811122861      -25.0652296465  W2        2511            0.0000000000
      7532      2511  TIP3      H1            -51.0322466405       -4.3830622861      -25.4347996465  W2        2511            0.0000000000
      7533      2511  TIP3      H2            -49.7216566405       -3.7496222861      -25.0188896465  W2        2511            0.0000000000
      7534      2512  TIP3      OH2           -54.0527166405       -9.9208522861      -29.6723496465  W2        2512            0.0000000000
      7535      2512  TIP3      H1            -54.5003766405       -9.0749822861      -29.6906996465  W2        2512            0.0000000000
      7536      2512  TIP3      H2            -54.6135966405      -10.5004322861      -30.1878396465  W2        2512            0.0000000000
      7537      2513  TIP3      OH2           -53.3421066405       -7.7588922861      -27.5465496465  W2        2513            0.0000000000
      7538      2513  TIP3      H1            -53.1287566405       -8.5287322861      -27.0192496465  W2        2513            0.0000000000
      7539      2513  TIP3      H2            -52.6043466405       -7.6692222861      -28.1497896465  W2        2513            0.0000000000
      7540      2514  TIP3      OH2           -43.1370066405        0.3979977139      -26.6795796465  W2        2514            0.0000000000
      7541      2514  TIP3      H1            -42.5173666405       -0.2785322861      -26.9526596465  W2        2514            0.0000000000
      7542      2514  TIP3      H2            -43.3452666405        0.1800777139      -25.7710896465  W2        2514            0.0000000000
      7543      2515  TIP3      OH2           -45.5651366405       -5.2130722861      -24.7870296465  W2        2515            0.0000000000
      7544      2515  TIP3      H1            -45.2613466405       -5.8989322861      -25.3816196465  W2        2515            0.0000000000
      7545      2515  TIP3      H2            -44.8437366405       -5.0942022861      -24.1692296465  W2        2515            0.0000000000
      7546      2516  TIP3      OH2           -36.9021566405      -13.6115422861      -23.9264096465  W2        2516            0.0000000000
      7547      2516  TIP3      H1            -36.8529366405      -13.0014222861      -23.1904996465  W2        2516            0.0000000000
      7548      2516  TIP3      H2            -36.4766466405      -13.1504522861      -24.6492996465  W2        2516            0.0000000000
      7549      2517  TIP3      OH2           -42.4244366405      -10.8188322861      -24.4595496465  W2        2517            0.0000000000
      7550      2517  TIP3      H1            -42.2818466405      -11.7651322861      -24.4393896465  W2        2517            0.0000000000
      7551      2517  TIP3      H2            -42.5305366405      -10.6118522861      -25.3880596465  W2        2517            0.0000000000
      7552      2518  TIP3      OH2           -49.2696066405      -12.7171922861      -27.1870696465  W2        2518            0.0000000000
      7553      2518  TIP3      H1            -49.2264966405      -11.8573422861      -27.6054396465  W2        2518            0.0000000000
      7554      2518  TIP3      H2            -49.7271966405      -13.2697222861      -27.8207496465  W2        2518            0.0000000000
      7555      2519  TIP3      OH2           -41.5473366405      -12.5866322861      -28.7862396465  W2        2519            0.0000000000
      7556      2519  TIP3      H1            -40.9009066405      -12.9153122861      -28.1614796465  W2        2519            0.0000000000
      7557      2519  TIP3      H2            -41.0373966405      -12.0687322861      -29.4090996465  W2        2519            0.0000000000
      7558      2520  TIP3      OH2           -52.6494566405      -10.3206122861      -26.4249296465  W2        2520            0.0000000000
      7559      2520  TIP3      H1            -51.9957966405      -10.8704422861      -25.9929196465  W2        2520            0.0000000000
      7560      2520  TIP3      H2            -52.6255266405      -10.5947122861      -27.3417296465  W2        2520            0.0000000000
      7561      2521  TIP3      OH2           -47.4930066405       -8.7704822861      -27.2097796465  W2        2521            0.0000000000
      7562      2521  TIP3      H1            -46.8769066405       -9.2969422861      -26.7003796465  W2        2521            0.0000000000
      7563      2521  TIP3      H2            -48.0791266405       -9.4106122861      -27.6134196465  W2        2521            0.0000000000
      7564      2522  TIP3      OH2           -36.5106966405      -12.1336222861      -21.6904296465  W2        2522            0.0000000000
      7565      2522  TIP3      H1            -37.1992366405      -11.4755522861      -21.7857696465  W2        2522            0.0000000000
      7566      2522  TIP3      H2            -36.4952366405      -12.3308322861      -20.7538896465  W2        2522            0.0000000000
      7567      2523  TIP3      OH2           -50.4594166405      -13.7993522861      -23.1129896465  W2        2523            0.0000000000
      7568      2523  TIP3      H1            -50.6782466405      -13.2692922861      -23.8793896465  W2        2523            0.0000000000
      7569      2523  TIP3      H2            -51.1273266405      -13.5728022861      -22.4658496465  W2        2523            0.0000000000
      7570      2524  TIP3      OH2           -43.0904366405       -4.2992422861      -29.5690796465  W2        2524            0.0000000000
      7571      2524  TIP3      H1            -43.3859266405       -4.6220122861      -30.4203896465  W2        2524            0.0000000000
      7572      2524  TIP3      H2            -43.4146566405       -3.3995722861      -29.5278196465  W2        2524            0.0000000000
      7573      2525  TIP3      OH2           -47.8902766405       -6.1237822861      -22.8256196465  W2        2525            0.0000000000
      7574      2525  TIP3      H1            -48.6303666405       -5.5256322861      -22.7220996465  W2        2525            0.0000000000
      7575      2525  TIP3      H2            -47.1763266405       -5.5698222861      -23.1412596465  W2        2525            0.0000000000
      7576      2526  TIP3      OH2           -39.7834966405      -13.2957022861      -26.8056496465  W2        2526            0.0000000000
      7577      2526  TIP3      H1            -39.9986966405      -14.0613622861      -26.2730496465  W2        2526            0.0000000000
      7578      2526  TIP3      H2            -39.1277566405      -12.8232422861      -26.2927996465  W2        2526            0.0000000000
      7579      2527  TIP3      OH2           -50.8656866405      -11.9071722861      -25.1607696465  W2        2527            0.0000000000
      7580      2527  TIP3      H1            -50.2520566405      -11.2744122861      -24.7875296465  W2        2527            0.0000000000
      7581      2527  TIP3      H2            -50.3536166405      -12.3796722861      -25.8170796465  W2        2527            0.0000000000
      7582      2528  TIP3      OH2           -49.4828466405       -4.1594822861      -22.0384696465  W2        2528            0.0000000000
      7583      2528  TIP3      H1            -49.4880866405       -3.2801322861      -22.4165396465  W2        2528            0.0000000000
      7584      2528  TIP3      H2            -50.3364366405       -4.2430722861      -21.6134796465  W2        2528            0.0000000000
      7585      2529  TIP3      OH2           -53.3617566405       -4.4886922861      -31.2565396465  W2        2529            0.0000000000
      7586      2529  TIP3      H1            -53.6336666405       -4.2595922861      -32.1452496465  W2        2529            0.0000000000
      7587      2529  TIP3      H2            -53.3161866405       -3.6508122861      -30.7960096465  W2        2529            0.0000000000
      7588      2530  TIP3      OH2           -39.7367866405       -2.8671022861      -24.5436896465  W2        2530            0.0000000000
      7589      2530  TIP3      H1            -40.6784166405       -2.8087122861      -24.3819996465  W2        2530            0.0000000000
      7590      2530  TIP3      H2            -39.4601766405       -1.9610522861      -24.6807196465  W2        2530            0.0000000000
      7591      2531  TIP3      OH2           -39.4360866405      -14.5805722861      -23.1262996465  W2        2531            0.0000000000
      7592      2531  TIP3      H1            -40.1721666405      -13.9698622861      -23.1641696465  W2        2531            0.0000000000
      7593      2531  TIP3      H2            -38.7526866405      -14.1656722861      -23.6526596465  W2        2531            0.0000000000
      7594      2532  TIP3      OH2           -46.4329466405      -16.4938422861      -25.6604996465  W2        2532            0.0000000000
      7595      2532  TIP3      H1            -46.5505266405      -17.4422422861      -25.7146696465  W2        2532            0.0000000000
      7596      2532  TIP3      H2            -47.2879366405      -16.1612322861      -25.3873896465  W2        2532            0.0000000000
      7597      2533  TIP3      OH2           -41.4846666405       -1.0857522861      -27.9185296465  W2        2533            0.0000000000
      7598      2533  TIP3      H1            -41.0594366405       -1.7929622861      -28.4035696465  W2        2533            0.0000000000
      7599      2533  TIP3      H2            -41.1676666405       -0.2844822861      -28.3353096465  W2        2533            0.0000000000
      7600      2534  TIP3      OH2           -40.3250166405       -3.1849022861      -29.4098696465  W2        2534            0.0000000000
      7601      2534  TIP3      H1            -40.5825366405       -3.8748922861      -30.0212796465  W2        2534            0.0000000000
      7602      2534  TIP3      H2            -40.2539366405       -3.6277822861      -28.5642796465  W2        2534            0.0000000000
      7603      2535  TIP3      OH2           -38.6389966405       -4.6182322861      -20.9325196465  W2        2535            0.0000000000
      7604      2535  TIP3      H1            -38.4993666405       -5.2099822861      -21.6718196465  W2        2535            0.0000000000
      7605      2535  TIP3      H2            -38.4717166405       -3.7456422861      -21.2886396465  W2        2535            0.0000000000
      7606      2536  TIP3      OH2           -44.1664566405       -7.6562822861      -31.1599196465  W2        2536            0.0000000000
      7607      2536  TIP3      H1            -44.8779066405       -7.1213122861      -31.5118696465  W2        2536            0.0000000000
      7608      2536  TIP3      H2            -43.4754966405       -7.6010722861      -31.8200296465  W2        2536            0.0000000000
      7609      2537  TIP3      OH2           -44.1125366405       -9.1988522861      -34.1214196465  W2        2537            0.0000000000
      7610      2537  TIP3      H1            -43.4115466405       -9.1761622861      -33.4700196465  W2        2537            0.0000000000
      7611      2537  TIP3      H2            -43.8102466405       -9.8268822861      -34.7774896465  W2        2537            0.0000000000
      7612      2538  TIP3      OH2           -36.7970666405       -8.2784322861      -22.8664796465  W2        2538            0.0000000000
      7613      2538  TIP3      H1            -37.4496566405       -7.5838722861      -22.7773896465  W2        2538            0.0000000000
      7614      2538  TIP3      H2            -36.3320366405       -8.0683422861      -23.6763196465  W2        2538            0.0000000000
      7615      2539  TIP3      OH2           -40.7606866405       -7.4469522861      -30.2083296465  W2        2539            0.0000000000
      7616      2539  TIP3      H1            -41.4925866405       -7.2185822861      -29.6352696465  W2        2539            0.0000000000
      7617      2539  TIP3      H2            -40.3134666405       -8.1606822861      -29.7535796465  W2        2539            0.0000000000
      7618      2540  TIP3      OH2           -40.8633366405       -9.2726922861      -21.1406296465  W2        2540            0.0000000000
      7619      2540  TIP3      H1            -40.7834266405       -8.5092522861      -20.5687796465  W2        2540            0.0000000000
      7620      2540  TIP3      H2            -41.4645666405       -8.9934522861      -21.8311196465  W2        2540            0.0000000000
      7621      2541  TIP3      OH2           -49.1153166405       -6.8163322861      -28.3258296465  W2        2541            0.0000000000
      7622      2541  TIP3      H1            -49.4457966405       -7.1869922861      -29.1441296465  W2        2541            0.0000000000
      7623      2541  TIP3      H2            -48.5269066405       -7.4869322861      -27.9789996465  W2        2541            0.0000000000
      7624      2542  TIP3      OH2           -47.7485666405       -3.3882722861      -25.6446096465  W2        2542            0.0000000000
      7625      2542  TIP3      H1            -47.8434366405       -3.9669622861      -26.4011496465  W2        2542            0.0000000000
      7626      2542  TIP3      H2            -47.0192066405       -3.7597022861      -25.1483296465  W2        2542            0.0000000000
      7627      2543  TIP3      OH2           -48.7487666405       -8.0477722861      -24.6923296465  W2        2543            0.0000000000
      7628      2543  TIP3      H1            -48.1835166405       -7.9263522861      -25.4552096465  W2        2543            0.0000000000
      7629      2543  TIP3      H2            -48.4298766405       -7.4102722861      -24.0534796465  W2        2543            0.0000000000
      7630      2544  TIP3      OH2           -42.4395466405       -2.5445822861      -23.9582796465  W2        2544            0.0000000000
      7631      2544  TIP3      H1            -42.6798866405       -1.8822722861      -23.3103596465  W2        2544            0.0000000000
      7632      2544  TIP3      H2            -42.6377266405       -3.3790622861      -23.5333196465  W2        2544            0.0000000000
      7633      2545  TIP3      OH2           -47.8686966405       -3.6485022861      -19.9751396465  W2        2545            0.0000000000
      7634      2545  TIP3      H1            -48.1799466405       -2.8661822861      -19.5198196465  W2        2545            0.0000000000
      7635      2545  TIP3      H2            -48.5186766405       -3.8015922861      -20.6609396465  W2        2545            0.0000000000
      7636      2546  TIP3      OH2           -41.8897366405       -8.2846622861      -32.5232096465  W2        2546            0.0000000000
      7637      2546  TIP3      H1            -41.3101866405       -8.1346322861      -31.7763196465  W2        2546            0.0000000000
      7638      2546  TIP3      H2            -41.4757366405       -7.8139222861      -33.2465696465  W2        2546            0.0000000000
      7639      2547  TIP3      OH2           -50.9487066405       -7.4503922861      -20.7465696465  W2        2547            0.0000000000
      7640      2547  TIP3      H1            -50.8783866405       -6.7997122861      -20.0480696465  W2        2547            0.0000000000
      7641      2547  TIP3      H2            -51.8394866405       -7.3476422861      -21.0814796465  W2        2547            0.0000000000
      7642      2548  TIP3      OH2           -44.1632466405       -1.5478122861      -29.0878996465  W2        2548            0.0000000000
      7643      2548  TIP3      H1            -43.6894866405       -1.2521822861      -28.3104796465  W2        2548            0.0000000000
      7644      2548  TIP3      H2            -44.7263166405       -0.8096522861      -29.3209396465  W2        2548            0.0000000000
      7645      2549  TIP3      OH2           -49.6291066405       -1.5770022861      -19.2117596465  W2        2549            0.0000000000
      7646      2549  TIP3      H1            -49.6215766405       -1.7130322861      -20.1592096465  W2        2549            0.0000000000
      7647      2549  TIP3      H2            -50.5450666405       -1.6941922861      -18.9597596465  W2        2549            0.0000000000
      7648      2550  TIP3      OH2           -38.1908966405      -16.5346222861      -32.7102396465  W2        2550            0.0000000000
      7649      2550  TIP3      H1            -39.0908266405      -16.3957222861      -32.4151796465  W2        2550            0.0000000000
      7650      2550  TIP3      H2            -37.9390566405      -15.7031622861      -33.1120696465  W2        2550            0.0000000000
      7651      2551  TIP3      OH2           -50.1250466405       -7.7469022861      -30.7365496465  W2        2551            0.0000000000
      7652      2551  TIP3      H1            -50.4169166405       -6.9787322861      -31.2274196465  W2        2551            0.0000000000
      7653      2551  TIP3      H2            -50.7995266405       -8.4062822861      -30.8994096465  W2        2551            0.0000000000
      7654      2552  TIP3      OH2           -37.0017566405       -2.1683822861      -34.3338496465  W2        2552            0.0000000000
      7655      2552  TIP3      H1            -36.9284066405       -1.2293622861      -34.1633196465  W2        2552            0.0000000000
      7656      2552  TIP3      H2            -36.0962466405       -2.4735222861      -34.3901196465  W2        2552            0.0000000000
      7657      2553  TIP3      OH2           -54.0320366405       -5.3839822861      -21.9215696465  W2        2553            0.0000000000
      7658      2553  TIP3      H1            -54.5331966405       -5.4120422861      -22.7365996465  W2        2553            0.0000000000
      7659      2553  TIP3      H2            -54.0266666405       -6.2896622861      -21.6118396465  W2        2553            0.0000000000
      7660      2554  TIP3      OH2           -54.2817666405       -2.6036022861      -25.0375496465  W2        2554            0.0000000000
      7661      2554  TIP3      H1            -53.3357066405       -2.7479022861      -25.0565996465  W2        2554            0.0000000000
      7662      2554  TIP3      H2            -54.3941366405       -1.8193222861      -24.5004296465  W2        2554            0.0000000000
      7663      2555  TIP3      OH2           -36.0839166405       -1.9376322861      -19.3551796465  W2        2555            0.0000000000
      7664      2555  TIP3      H1            -36.1332366405       -2.8928222861      -19.3924196465  W2        2555            0.0000000000
      7665      2555  TIP3      H2            -36.9106866405       -1.6701022861      -18.9537996465  W2        2555            0.0000000000
      7666      2556  TIP3      OH2           -45.1055166405       -2.3637122861      -20.4790396465  W2        2556            0.0000000000
      7667      2556  TIP3      H1            -45.0180566405       -1.5372522861      -20.0041296465  W2        2556            0.0000000000
      7668      2556  TIP3      H2            -45.9690066405       -2.6933322861      -20.2301096465  W2        2556            0.0000000000
      7669      2557  TIP3      OH2           -44.6909366405        1.4086577139      -30.6729796465  W2        2557            0.0000000000
      7670      2557  TIP3      H1            -44.7663366405        1.2873777139      -31.6194596465  W2        2557            0.0000000000
      7671      2557  TIP3      H2            -44.6580666405        2.3579277139      -30.5545196465  W2        2557            0.0000000000
      7672      2558  TIP3      OH2           -51.0375566405        0.1973577139      -28.8920796465  W2        2558            0.0000000000
      7673      2558  TIP3      H1            -50.8855166405       -0.1506022861      -28.0134296465  W2        2558            0.0000000000
      7674      2558  TIP3      H2            -51.8885166405       -0.1589122861      -29.1473596465  W2        2558            0.0000000000
      7675      2559  TIP3      OH2           -41.5893366405        0.5626777139      -33.6707396465  W2        2559            0.0000000000
      7676      2559  TIP3      H1            -41.2144966405       -0.1817122861      -34.1414796465  W2        2559            0.0000000000
      7677      2559  TIP3      H2            -41.5849666405        0.2927377139      -32.7524096465  W2        2559            0.0000000000
      7678      2560  TIP3      OH2           -41.9205266405        0.4883877139      -30.9215196465  W2        2560            0.0000000000
      7679      2560  TIP3      H1            -42.8555466405        0.5885777139      -30.7428196465  W2        2560            0.0000000000
      7680      2560  TIP3      H2            -41.6403366405       -0.2210122861      -30.3431996465  W2        2560            0.0000000000
      7681      2561  TIP3      OH2           -38.9319366405      -10.4443822861      -18.8749596465  W2        2561            0.0000000000
      7682      2561  TIP3      H1            -39.3392566405       -9.9638222861      -19.5956296465  W2        2561            0.0000000000
      7683      2561  TIP3      H2            -38.8913666405      -11.3497822861      -19.1828796465  W2        2561            0.0000000000
      7684      2562  TIP3      OH2           -51.7829866405       -4.0604422861      -20.8782896465  W2        2562            0.0000000000
      7685      2562  TIP3      H1            -51.5668566405       -4.4218822861      -20.0187096465  W2        2562            0.0000000000
      7686      2562  TIP3      H2            -52.6385166405       -4.4350622861      -21.0879396465  W2        2562            0.0000000000
      7687      2563  TIP3      OH2           -49.1641866405      -15.5903922861      -24.8828696465  W2        2563            0.0000000000
      7688      2563  TIP3      H1            -50.0258166405      -15.6775722861      -25.2905796465  W2        2563            0.0000000000
      7689      2563  TIP3      H2            -49.1866166405      -14.7343822861      -24.4551096465  W2        2563            0.0000000000
      7690      2564  TIP3      OH2           -44.5014066405      -15.8683522861      -21.5081696465  W2        2564            0.0000000000
      7691      2564  TIP3      H1            -44.0810966405      -16.2836422861      -20.7551096465  W2        2564            0.0000000000
      7692      2564  TIP3      H2            -45.4344466405      -16.0470222861      -21.3909696465  W2        2564            0.0000000000
      7693      2565  TIP3      OH2           -41.1749166405      -12.1128322861      -20.6547196465  W2        2565            0.0000000000
      7694      2565  TIP3      H1            -41.6889666405      -12.2386122861      -19.8571196465  W2        2565            0.0000000000
      7695      2565  TIP3      H2            -41.3304466405      -11.2005222861      -20.8990996465  W2        2565            0.0000000000
      7696      2566  TIP3      OH2           -40.4124266405       -7.2518322861      -34.8934196465  W2        2566            0.0000000000
      7697      2566  TIP3      H1            -40.3703466405       -7.4744422861      -35.8234196465  W2        2566            0.0000000000
      7698      2566  TIP3      H2            -39.5632166405       -6.8531222861      -34.7034296465  W2        2566            0.0000000000
      7699      2567  TIP3      OH2           -44.8396766405      -13.3760122861      -34.2230896465  W2        2567            0.0000000000
      7700      2567  TIP3      H1            -45.0931966405      -13.3568522861      -33.3002796465  W2        2567            0.0000000000
      7701      2567  TIP3      H2            -45.0964666405      -14.2474722861      -34.5244696465  W2        2567            0.0000000000
      7702      2568  TIP3      OH2           -49.0731766405      -10.6249422861      -23.7878496465  W2        2568            0.0000000000
      7703      2568  TIP3      H1            -49.7149666405      -10.6652122861      -23.0788396465  W2        2568            0.0000000000
      7704      2568  TIP3      H2            -49.0359766405       -9.6984722861      -24.0255496465  W2        2568            0.0000000000
      7705      2569  TIP3      OH2           -49.0762666405      -10.4039322861      -28.8758496465  W2        2569            0.0000000000
      7706      2569  TIP3      H1            -49.9689766405      -10.7443222861      -28.9344696465  W2        2569            0.0000000000
      7707      2569  TIP3      H2            -48.6256066405      -10.7808422861      -29.6315296465  W2        2569            0.0000000000
      7708      2570  TIP3      OH2           -43.5407166405       -9.9879022861      -30.0587696465  W2        2570            0.0000000000
      7709      2570  TIP3      H1            -43.9496866405       -9.1730422861      -30.3502896465  W2        2570            0.0000000000
      7710      2570  TIP3      H2            -42.8200966405      -10.1278922861      -30.6730596465  W2        2570            0.0000000000
      7711      2571  TIP3      OH2           -44.4385566405       -9.8122622861      -18.5706996465  W2        2571            0.0000000000
      7712      2571  TIP3      H1            -45.0011766405      -10.5171022861      -18.2499196465  W2        2571            0.0000000000
      7713      2571  TIP3      H2            -43.6122166405       -9.9330722861      -18.1029396465  W2        2571            0.0000000000
      7714      2572  TIP3      OH2           -42.5359466405      -10.5418622861      -27.2447996465  W2        2572            0.0000000000
      7715      2572  TIP3      H1            -42.7314966405       -9.9361822861      -27.9597396465  W2        2572            0.0000000000
      7716      2572  TIP3      H2            -42.3546866405      -11.3753422861      -27.6791696465  W2        2572            0.0000000000
      7717      2573  TIP3      OH2           -51.3231266405      -10.3045922861      -21.9206496465  W2        2573            0.0000000000
      7718      2573  TIP3      H1            -51.3611866405       -9.9044322861      -21.0519396465  W2        2573            0.0000000000
      7719      2573  TIP3      H2            -51.8140166405      -11.1213522861      -21.8303596465  W2        2573            0.0000000000
      7720      2574  TIP3      OH2           -47.9573866405      -12.9303622861      -35.1220496465  W2        2574            0.0000000000
      7721      2574  TIP3      H1            -48.3883166405      -13.3753522861      -34.3923096465  W2        2574            0.0000000000
      7722      2574  TIP3      H2            -48.6755166405      -12.5587322861      -35.6342996465  W2        2574            0.0000000000
      7723      2575  TIP3      OH2           -54.7150466405      -13.1884122861      -28.0701796465  W2        2575            0.0000000000
      7724      2575  TIP3      H1            -54.0842766405      -13.2172022861      -27.3507896465  W2        2575            0.0000000000
      7725      2575  TIP3      H2            -54.2656166405      -13.6135422861      -28.8005896465  W2        2575            0.0000000000
      7726      2576  TIP3      OH2           -53.4408366405      -12.4422122861      -32.6461396465  W2        2576            0.0000000000
      7727      2576  TIP3      H1            -52.9666666405      -11.8512222861      -33.2310496465  W2        2576            0.0000000000
      7728      2576  TIP3      H2            -54.1581966405      -11.9119222861      -32.2991296465  W2        2576            0.0000000000
      7729      2577  TIP3      OH2           -43.2720266405       -8.9037322861      -22.5735596465  W2        2577            0.0000000000
      7730      2577  TIP3      H1            -42.9485466405       -9.5347622861      -23.2165096465  W2        2577            0.0000000000
      7731      2577  TIP3      H2            -43.7120966405       -9.4385122861      -21.9128196465  W2        2577            0.0000000000
      7732      2578  TIP3      OH2           -46.4947366405      -12.9761822861      -27.7894396465  W2        2578            0.0000000000
      7733      2578  TIP3      H1            -47.4056266405      -12.9195022861      -27.5008396465  W2        2578            0.0000000000
      7734      2578  TIP3      H2            -45.9894466405      -13.0366322861      -26.9787196465  W2        2578            0.0000000000
      7735      2579  TIP3      OH2           -51.6663966405      -11.3475522861      -28.9626796465  W2        2579            0.0000000000
      7736      2579  TIP3      H1            -52.5555966405      -11.2480022861      -29.3027196465  W2        2579            0.0000000000
      7737      2579  TIP3      H2            -51.3699066405      -12.1892522861      -29.3088896465  W2        2579            0.0000000000
      7738      2580  TIP3      OH2           -48.0132166405      -11.3472922861      -31.3062196465  W2        2580            0.0000000000
      7739      2580  TIP3      H1            -47.0816666405      -11.2182922861      -31.1279096465  W2        2580            0.0000000000
      7740      2580  TIP3      H2            -48.2281866405      -10.6778622861      -31.9557496465  W2        2580            0.0000000000
      7741      2581  TIP3      OH2           -42.0895466405      -13.7415522861      -24.5252596465  W2        2581            0.0000000000
      7742      2581  TIP3      H1            -42.7663866405      -13.6102422861      -23.8612896465  W2        2581            0.0000000000
      7743      2581  TIP3      H2            -42.5750566405      -13.8966022861      -25.3354896465  W2        2581            0.0000000000
      7744      2582  TIP3      OH2           -49.3391966405      -10.1530722861      -33.7396096465  W2        2582            0.0000000000
      7745      2582  TIP3      H1            -49.8816866405      -10.5326922861      -34.4308496465  W2        2582            0.0000000000
      7746      2582  TIP3      H2            -48.5057066405       -9.9586022861      -34.1681996465  W2        2582            0.0000000000
      7747      2583  TIP3      OH2           -38.8020366405        1.9299877139      -18.2484996465  W2        2583            0.0000000000
      7748      2583  TIP3      H1            -38.6021666405        2.3541777139      -19.0829696465  W2        2583            0.0000000000
      7749      2583  TIP3      H2            -38.1466666405        2.2738077139      -17.6414596465  W2        2583            0.0000000000
      7750      2584  TIP3      OH2           -51.2040566405       -5.5958822861      -18.6404496465  W2        2584            0.0000000000
      7751      2584  TIP3      H1            -50.4718166405       -5.3412922861      -18.0789996465  W2        2584            0.0000000000
      7752      2584  TIP3      H2            -51.9841866405       -5.3913422861      -18.1249096465  W2        2584            0.0000000000
      7753      2585  TIP3      OH2           -45.1747666405      -10.1888822861      -25.9024796465  W2        2585            0.0000000000
      7754      2585  TIP3      H1            -44.6104266405      -10.7352222861      -26.4495196465  W2        2585            0.0000000000
      7755      2585  TIP3      H2            -45.3224266405      -10.7106922861      -25.1137196465  W2        2585            0.0000000000
      7756      2586  TIP3      OH2           -50.1727966405      -14.0522722861      -29.4839996465  W2        2586            0.0000000000
      7757      2586  TIP3      H1            -50.4898466405      -14.9547422861      -29.5194596465  W2        2586            0.0000000000
      7758      2586  TIP3      H2            -49.3913866405      -14.0505322861      -30.0368396465  W2        2586            0.0000000000
      7759      2587  TIP3      OH2           -46.5481766405      -11.8002722861      -23.4884396465  W2        2587            0.0000000000
      7760      2587  TIP3      H1            -47.3836466405      -11.3463222861      -23.3781996465  W2        2587            0.0000000000
      7761      2587  TIP3      H2            -46.0241166405      -11.5244222861      -22.7364496465  W2        2587            0.0000000000
      7762      2588  TIP3      OH2           -46.0039166405       -5.5875022861      -31.8037996465  W2        2588            0.0000000000
      7763      2588  TIP3      H1            -46.7488166405       -6.0949722861      -32.1260096465  W2        2588            0.0000000000
      7764      2588  TIP3      H2            -46.1381966405       -5.5387022861      -30.8573196465  W2        2588            0.0000000000
      7765      2589  TIP3      OH2           -38.8540266405       -6.4546822861      -23.0170396465  W2        2589            0.0000000000
      7766      2589  TIP3      H1            -38.2121466405       -5.9980522861      -23.5608196465  W2        2589            0.0000000000
      7767      2589  TIP3      H2            -39.6843366405       -6.3414422861      -23.4796296465  W2        2589            0.0000000000
      7768      2590  TIP3      OH2           -42.1062366405      -12.7735122861      -33.6045396465  W2        2590            0.0000000000
      7769      2590  TIP3      H1            -43.0448166405      -12.6619522861      -33.7556596465  W2        2590            0.0000000000
      7770      2590  TIP3      H2            -41.8090266405      -11.9168222861      -33.2979696465  W2        2590            0.0000000000
      7771      2591  TIP3      OH2           -44.4847066405       -5.4031722861      -20.5668896465  W2        2591            0.0000000000
      7772      2591  TIP3      H1            -44.8300966405       -5.7849322861      -19.7599296465  W2        2591            0.0000000000
      7773      2591  TIP3      H2            -44.6846966405       -4.4698122861      -20.4955996465  W2        2591            0.0000000000
      7774      2592  TIP3      OH2           -41.3878866405      -10.9062422861      -31.9437996465  W2        2592            0.0000000000
      7775      2592  TIP3      H1            -40.4959866405      -11.0437422861      -31.6246796465  W2        2592            0.0000000000
      7776      2592  TIP3      H2            -41.3315266405      -10.1156322861      -32.4804496465  W2        2592            0.0000000000
      7777      2593  TIP3      OH2           -50.8790866405       -6.2925022861      -26.0340096465  W2        2593            0.0000000000
      7778      2593  TIP3      H1            -50.1343666405       -6.2949322861      -26.6353596465  W2        2593            0.0000000000
      7779      2593  TIP3      H2            -50.8014266405       -7.1161222861      -25.5524996465  W2        2593            0.0000000000
      7780      2594  TIP3      OH2           -43.8785066405       -4.1290722861      -32.7783396465  W2        2594            0.0000000000
      7781      2594  TIP3      H1            -44.1736666405       -3.3022822861      -32.3968596465  W2        2594            0.0000000000
      7782      2594  TIP3      H2            -44.5815066405       -4.7483822861      -32.5821996465  W2        2594            0.0000000000
      7783      2595  TIP3      OH2           -53.8711166405       -7.8318122861      -20.7191596465  W2        2595            0.0000000000
      7784      2595  TIP3      H1            -53.6482566405       -8.2498522861      -19.8874096465  W2        2595            0.0000000000
      7785      2595  TIP3      H2            -54.4731066405       -8.4443122861      -21.1418796465  W2        2595            0.0000000000
      7786      2596  TIP3      OH2           -46.8546266405       -8.3148222861      -18.5061896465  W2        2596            0.0000000000
      7787      2596  TIP3      H1            -47.1505466405       -8.4805222861      -19.4012796465  W2        2596            0.0000000000
      7788      2596  TIP3      H2            -45.9231066405       -8.5347922861      -18.5167996465  W2        2596            0.0000000000
      7789      2597  TIP3      OH2           -42.2343466405       -2.9416222861      -20.6163896465  W2        2597            0.0000000000
      7790      2597  TIP3      H1            -43.1349166405       -2.7583622861      -20.8839996465  W2        2597            0.0000000000
      7791      2597  TIP3      H2            -42.2002366405       -2.6826922861      -19.6955096465  W2        2597            0.0000000000
      7792      2598  TIP3      OH2           -36.5030166405      -10.6968322861      -32.2491296465  W2        2598            0.0000000000
      7793      2598  TIP3      H1            -37.0573866405      -11.0930322861      -32.9213796465  W2        2598            0.0000000000
      7794      2598  TIP3      H2            -36.4026566405       -9.7863122861      -32.5267996465  W2        2598            0.0000000000
      7795      2599  TIP3      OH2           -36.5398166405       -4.8966622861      -19.4119796465  W2        2599            0.0000000000
      7796      2599  TIP3      H1            -37.3909666405       -4.6582822861      -19.7793396465  W2        2599            0.0000000000
      7797      2599  TIP3      H2            -35.9494766405       -4.9133422861      -20.1652696465  W2        2599            0.0000000000
      7798      2600  TIP3      OH2           -38.2078466405       -1.9107922861      -31.7839196465  W2        2600            0.0000000000
      7799      2600  TIP3      H1            -38.5807366405       -2.7364122861      -31.4748596465  W2        2600            0.0000000000
      7800      2600  TIP3      H2            -37.9304966405       -2.0938522861      -32.6815796465  W2        2600            0.0000000000
      7801      2601  TIP3      OH2           -41.0474566405       -7.1028422861      -24.7627296465  W2        2601            0.0000000000
      7802      2601  TIP3      H1            -41.9757666405       -7.3346522861      -24.7897996465  W2        2601            0.0000000000
      7803      2601  TIP3      H2            -40.5963466405       -7.8798622861      -25.0928496465  W2        2601            0.0000000000
      7804      2602  TIP3      OH2           -48.5041466405       -2.7746822861      -28.6298596465  W2        2602            0.0000000000
      7805      2602  TIP3      H1            -47.9769266405       -2.0012422861      -28.8299796465  W2        2602            0.0000000000
      7806      2602  TIP3      H2            -49.3842966405       -2.5497622861      -28.9314596465  W2        2602            0.0000000000
      7807      2603  TIP3      OH2           -52.7493766405       -7.9122722861      -34.0426196465  W2        2603            0.0000000000
      7808      2603  TIP3      H1            -52.1333866405       -7.2855522861      -33.6631396465  W2        2603            0.0000000000
      7809      2603  TIP3      H2            -53.6111166405       -7.5962922861      -33.7709696465  W2        2603            0.0000000000
      7810      2604  TIP3      OH2           -47.0769166405       -5.1116922861      -29.0534296465  W2        2604            0.0000000000
      7811      2604  TIP3      H1            -47.3179166405       -4.1862522861      -29.0118996465  W2        2604            0.0000000000
      7812      2604  TIP3      H2            -47.8175566405       -5.5705622861      -28.6570396465  W2        2604            0.0000000000
      7813      2605  TIP3      OH2           -46.5622566405       -0.9623322861      -22.7383196465  W2        2605            0.0000000000
      7814      2605  TIP3      H1            -46.1997866405       -0.1077722861      -22.9718796465  W2        2605            0.0000000000
      7815      2605  TIP3      H2            -46.0307366405       -1.2541722861      -21.9976896465  W2        2605            0.0000000000
      7816      2606  TIP3      OH2           -48.3938366405       -0.0899322861      -29.5082096465  W2        2606            0.0000000000
      7817      2606  TIP3      H1            -49.3437866405        0.0158077139      -29.4568796465  W2        2606            0.0000000000
      7818      2606  TIP3      H2            -48.0420266405        0.7308077139      -29.1634596465  W2        2606            0.0000000000
      7819      2607  TIP3      OH2           -43.0181766405       -4.8632622861      -23.0377596465  W2        2607            0.0000000000
      7820      2607  TIP3      H1            -43.4440466405       -5.0910922861      -22.2113596465  W2        2607            0.0000000000
      7821      2607  TIP3      H2            -42.4375966405       -5.6020822861      -23.2202296465  W2        2607            0.0000000000
      7822      2608  TIP3      OH2           -40.8152866405       -3.9342122861      -33.9638596465  W2        2608            0.0000000000
      7823      2608  TIP3      H1            -40.4619766405       -4.3142322861      -33.1595096465  W2        2608            0.0000000000
      7824      2608  TIP3      H2            -41.7639366405       -4.0277322861      -33.8769296465  W2        2608            0.0000000000
      7825      2609  TIP3      OH2           -40.3597566405       -0.3113122861      -20.5682796465  W2        2609            0.0000000000
      7826      2609  TIP3      H1            -40.9614366405       -0.8670222861      -21.0636496465  W2        2609            0.0000000000
      7827      2609  TIP3      H2            -40.0783866405        0.3556677139      -21.1945396465  W2        2609            0.0000000000
      7828      2610  TIP3      OH2           -36.3118466405        0.5450377139      -33.7628396465  W2        2610            0.0000000000
      7829      2610  TIP3      H1            -35.5680566405        1.1310877139      -33.9026796465  W2        2610            0.0000000000
      7830      2610  TIP3      H2            -37.0060366405        1.1136177139      -33.4295996465  W2        2610            0.0000000000
      7831      2611  TIP3      OH2           -52.2371666405      -13.0785422861      -21.1610196465  W2        2611            0.0000000000
      7832      2611  TIP3      H1            -53.1299366405      -12.7400022861      -21.2286196465  W2        2611            0.0000000000
      7833      2611  TIP3      H2            -52.3358866405      -13.9339322861      -20.7429396465  W2        2611            0.0000000000
      7834      2612  TIP3      OH2           -39.9493566405       -5.2620122861      -31.7370696465  W2        2612            0.0000000000
      7835      2612  TIP3      H1            -40.2265966405       -5.9900822861      -31.1809596465  W2        2612            0.0000000000
      7836      2612  TIP3      H2            -39.0220566405       -5.1428122861      -31.5318096465  W2        2612            0.0000000000
      7837      2613  TIP3      OH2           -52.5859666405       -1.2741022861      -22.7260796465  W2        2613            0.0000000000
      7838      2613  TIP3      H1            -52.3689366405       -2.2058622861      -22.7571096465  W2        2613            0.0000000000
      7839      2613  TIP3      H2            -52.3396166405       -0.9996022861      -21.8427996465  W2        2613            0.0000000000
      7840      2614  TIP3      OH2           -46.7245066405       -2.8226022861      -35.5168596465  W2        2614            0.0000000000
      7841      2614  TIP3      H1            -46.4855266405       -3.5707922861      -36.0639696465  W2        2614            0.0000000000
      7842      2614  TIP3      H2            -46.9933766405       -3.2104322861      -34.6840796465  W2        2614            0.0000000000
      7843      2615  TIP3      OH2           -47.7874466405       -3.2522222861      -33.0605996465  W2        2615            0.0000000000
      7844      2615  TIP3      H1            -47.6406466405       -3.7722422861      -32.2705096465  W2        2615            0.0000000000
      7845      2615  TIP3      H2            -47.7902766405       -2.3454622861      -32.7540096465  W2        2615            0.0000000000
      7846      2616  TIP3      OH2           -51.3343366405       -5.9998922861      -32.5500596465  W2        2616            0.0000000000
      7847      2616  TIP3      H1            -52.0204066405       -5.6476422861      -31.9830896465  W2        2616            0.0000000000
      7848      2616  TIP3      H2            -50.8115466405       -5.2369322861      -32.7966296465  W2        2616            0.0000000000
      7849      2617  TIP3      OH2           -43.5028266405      -13.3375122861      -22.2711596465  W2        2617            0.0000000000
      7850      2617  TIP3      H1            -42.8040366405      -13.2636422861      -21.6211896465  W2        2617            0.0000000000
      7851      2617  TIP3      H2            -43.8836866405      -14.2020122861      -22.1168696465  W2        2617            0.0000000000
      7852      2618  TIP3      OH2           -42.7183366405      -13.6853422861      -31.1739296465  W2        2618            0.0000000000
      7853      2618  TIP3      H1            -42.4985066405      -13.2138022861      -31.9773896465  W2        2618            0.0000000000
      7854      2618  TIP3      H2            -42.1599366405      -13.2910822861      -30.5038696465  W2        2618            0.0000000000
      7855      2619  TIP3      OH2           -45.0497266405       -1.5548622861      -32.3111796465  W2        2619            0.0000000000
      7856      2619  TIP3      H1            -45.8661166405       -1.0578922861      -32.2587496465  W2        2619            0.0000000000
      7857      2619  TIP3      H2            -44.5200966405       -1.0795122861      -32.9512996465  W2        2619            0.0000000000
      7858      2620  TIP3      OH2           -45.5183466405      -11.9574622861      -30.3390896465  W2        2620            0.0000000000
      7859      2620  TIP3      H1            -44.7060866405      -11.4531422861      -30.2929196465  W2        2620            0.0000000000
      7860      2620  TIP3      H2            -45.7630466405      -12.1024922861      -29.4251296465  W2        2620            0.0000000000
      7861      2621  TIP3      OH2           -44.9827066405      -10.9711922861      -21.1544296465  W2        2621            0.0000000000
      7862      2621  TIP3      H1            -44.8636766405      -10.3976522861      -20.3973896465  W2        2621            0.0000000000
      7863      2621  TIP3      H2            -44.3272466405      -11.6592522861      -21.0396496465  W2        2621            0.0000000000
      7864      2622  TIP3      OH2           -44.6346766405      -14.8761622861      -29.4009796465  W2        2622            0.0000000000
      7865      2622  TIP3      H1            -44.9813266405      -14.2591022861      -28.7565496465  W2        2622            0.0000000000
      7866      2622  TIP3      H2            -43.9759866405      -14.3755922861      -29.8824296465  W2        2622            0.0000000000
      7867      2623  TIP3      OH2           -47.7114166405       -0.5111422861      -32.3294896465  W2        2623            0.0000000000
      7868      2623  TIP3      H1            -47.5505466405        0.2886077139      -32.8302296465  W2        2623            0.0000000000
      7869      2623  TIP3      H2            -47.9086366405       -0.2045422861      -31.4444296465  W2        2623            0.0000000000
      7870      2624  TIP3      OH2           -48.9769766405      -13.8132222861      -32.7137296465  W2        2624            0.0000000000
      7871      2624  TIP3      H1            -49.0604966405      -12.9249122861      -32.3670896465  W2        2624            0.0000000000
      7872      2624  TIP3      H2            -48.0869466405      -14.0785522861      -32.4820496465  W2        2624            0.0000000000
      7873      2625  TIP3      OH2           -38.7781266405      -13.0641622861      -20.3194596465  W2        2625            0.0000000000
      7874      2625  TIP3      H1            -39.6945466405      -12.8019922861      -20.4070896465  W2        2625            0.0000000000
      7875      2625  TIP3      H2            -38.4426266405      -13.0672622861      -21.2159296465  W2        2625            0.0000000000
      7876      2626  TIP3      OH2           -40.1760266405       -9.3140622861      -26.2237296465  W2        2626            0.0000000000
      7877      2626  TIP3      H1            -40.9735866405       -9.7290422861      -26.5522296465  W2        2626            0.0000000000
      7878      2626  TIP3      H2            -39.7309166405      -10.0046922861      -25.7326796465  W2        2626            0.0000000000
      7879      2627  TIP3      OH2           -50.7184466405       -3.3860022861      -33.6532796465  W2        2627            0.0000000000
      7880      2627  TIP3      H1            -50.1262966405       -2.6865222861      -33.3770396465  W2        2627            0.0000000000
      7881      2627  TIP3      H2            -50.2591466405       -3.8190522861      -34.3728196465  W2        2627            0.0000000000
      7882      2628  TIP3      OH2           -52.4025266405      -10.7217022861      -34.5373396465  W2        2628            0.0000000000
      7883      2628  TIP3      H1            -52.4472666405       -9.7823922861      -34.3586396465  W2        2628            0.0000000000
      7884      2628  TIP3      H2            -53.2902066405      -10.9572122861      -34.8071296465  W2        2628            0.0000000000
      7885      2629  TIP3      OH2           -39.0895666405       -0.0578122861      -24.6013796465  W2        2629            0.0000000000
      7886      2629  TIP3      H1            -39.2451366405        0.6206277139      -25.2584496465  W2        2629            0.0000000000
      7887      2629  TIP3      H2            -38.1569266405        0.0141177139      -24.3983196465  W2        2629            0.0000000000
      7888      2630  TIP3      OH2           -51.5943266405      -15.9400422861      -25.8642396465  W2        2630            0.0000000000
      7889      2630  TIP3      H1            -51.8233466405      -15.8807922861      -26.7917396465  W2        2630            0.0000000000
      7890      2630  TIP3      H2            -52.0369866405      -16.7314922861      -25.5578296465  W2        2630            0.0000000000
      7891      2631  TIP3      OH2           -52.6639966405       -1.9993322861      -29.7036596465  W2        2631            0.0000000000
      7892      2631  TIP3      H1            -53.4961366405       -1.5270622861      -29.6765196465  W2        2631            0.0000000000
      7893      2631  TIP3      H2            -52.1181666405       -1.4895722861      -30.3023496465  W2        2631            0.0000000000
      7894      2632  TIP3      OH2           -53.3756266405        0.6130377139      -18.3738596465  W2        2632            0.0000000000
      7895      2632  TIP3      H1            -52.8354066405        0.3964377139      -17.6139396465  W2        2632            0.0000000000
      7896      2632  TIP3      H2            -53.8568266405       -0.1923622861      -18.5636096465  W2        2632            0.0000000000
      7897      2633  TIP3      OH2           -48.7782866405       -0.4675222861      -16.7534396465  W2        2633            0.0000000000
      7898      2633  TIP3      H1            -48.0105666405       -0.9264422861      -16.4125196465  W2        2633            0.0000000000
      7899      2633  TIP3      H2            -48.7996666405       -0.6935422861      -17.6833196465  W2        2633            0.0000000000
      7900      2634  TIP3      OH2           -44.6863266405       -0.9594622861      -35.3782596465  W2        2634            0.0000000000
      7901      2634  TIP3      H1            -45.3302266405       -1.5906022861      -35.0568896465  W2        2634            0.0000000000
      7902      2634  TIP3      H2            -43.9244966405       -1.4906622861      -35.6099096465  W2        2634            0.0000000000
      7903      2635  TIP3      OH2           -42.2014166405       -2.0874122861      -18.0242896465  W2        2635            0.0000000000
      7904      2635  TIP3      H1            -42.5524666405       -2.9441122861      -17.7812496465  W2        2635            0.0000000000
      7905      2635  TIP3      H2            -41.4750966405       -1.9447422861      -17.4173896465  W2        2635            0.0000000000
      7906      2636  TIP3      OH2           -40.0820366405       -1.1424722861      -35.1444596465  W2        2636            0.0000000000
      7907      2636  TIP3      H1            -39.7989966405       -1.9369522861      -34.6917696465  W2        2636            0.0000000000
      7908      2636  TIP3      H2            -39.3422466405       -0.9093722861      -35.7053496465  W2        2636            0.0000000000
      7909      2637  TIP3      OH2           -53.4686766405       -5.5765522861      -17.4194296465  W2        2637            0.0000000000
      7910      2637  TIP3      H1            -53.3246266405       -6.4784822861      -17.7057596465  W2        2637            0.0000000000
      7911      2637  TIP3      H2            -54.2409366405       -5.2903422861      -17.9071996465  W2        2637            0.0000000000
      7912      2638  TIP3      OH2           -49.1273066405       -5.2329822861      -35.2869696465  W2        2638            0.0000000000
      7913      2638  TIP3      H1            -49.0628966405       -6.0270222861      -34.7563296465  W2        2638            0.0000000000
      7914      2638  TIP3      H2            -48.4743866405       -5.3517022861      -35.9767696465  W2        2638            0.0000000000
      7915      2639  TIP3      OH2           -46.8130666405       -5.6067422861      -17.9867896465  W2        2639            0.0000000000
      7916      2639  TIP3      H1            -47.1416866405       -5.3359322861      -18.8440496465  W2        2639            0.0000000000
      7917      2639  TIP3      H2            -46.6612466405       -6.5477622861      -18.0742896465  W2        2639            0.0000000000
      7918      2640  TIP3      OH2           -43.7749666405       -4.1858122861      -35.5511696465  W2        2640            0.0000000000
      7919      2640  TIP3      H1            -44.0435566405       -4.0056022861      -34.6502796465  W2        2640            0.0000000000
      7920      2640  TIP3      H2            -43.9814066405       -5.1111922861      -35.6825896465  W2        2640            0.0000000000
      7921      2641  TIP3      OH2           -41.0785466405       -5.6910122861      -20.6035596465  W2        2641            0.0000000000
      7922      2641  TIP3      H1            -40.3330666405       -5.1026422861      -20.7231596465  W2        2641            0.0000000000
      7923      2641  TIP3      H2            -41.8358666405       -5.1090422861      -20.5402496465  W2        2641            0.0000000000
      7924      2642  TIP3      OH2           -52.6360266405       -8.3762222861      -17.9994996465  W2        2642            0.0000000000
      7925      2642  TIP3      H1            -52.2279066405       -9.2335622861      -18.1204396465  W2        2642            0.0000000000
      7926      2642  TIP3      H2            -52.8962666405       -8.3620922861      -17.0784696465  W2        2642            0.0000000000
      7927      2643  TIP3      OH2           -47.9779266405       -7.2603622861      -32.9811696465  W2        2643            0.0000000000
      7928      2643  TIP3      H1            -48.4377266405       -7.7445322861      -32.2953196465  W2        2643            0.0000000000
      7929      2643  TIP3      H2            -47.7230566405       -7.9288222861      -33.6171196465  W2        2643            0.0000000000
      7930      2644  TIP3      OH2           -48.6889966405       -9.3676522861      -20.6252096465  W2        2644            0.0000000000
      7931      2644  TIP3      H1            -49.3073866405       -8.6929922861      -20.3447396465  W2        2644            0.0000000000
      7932      2644  TIP3      H2            -48.3448766405       -9.0462622861      -21.4585896465  W2        2644            0.0000000000
      7933      2645  TIP3      OH2           -46.9068866405       -9.0171822861      -34.7188496465  W2        2645            0.0000000000
      7934      2645  TIP3      H1            -47.0873866405       -9.1720622861      -35.6460196465  W2        2645            0.0000000000
      7935      2645  TIP3      H2            -45.9568366405       -8.9093122861      -34.6740596465  W2        2645            0.0000000000
      7936      2646  TIP3      OH2           -43.6691766405       -6.8961222861      -17.3477296465  W2        2646            0.0000000000
      7937      2646  TIP3      H1            -42.7160566405       -6.8122122861      -17.3751296465  W2        2646            0.0000000000
      7938      2646  TIP3      H2            -43.8297166405       -7.6079422861      -16.7282396465  W2        2646            0.0000000000
      7939      2647  TIP3      OH2           -37.5170566405       -6.6627622861      -35.2730396465  W2        2647            0.0000000000
      7940      2647  TIP3      H1            -37.7905766405       -7.0872122861      -36.0862096465  W2        2647            0.0000000000
      7941      2647  TIP3      H2            -37.4776466405       -5.7313122861      -35.4899996465  W2        2647            0.0000000000
      7942      2648  TIP3      OH2           -48.3496266405      -12.0125722861      -19.5428996465  W2        2648            0.0000000000
      7943      2648  TIP3      H1            -48.1995366405      -12.7414422861      -20.1449296465  W2        2648            0.0000000000
      7944      2648  TIP3      H2            -48.3473866405      -11.2354022861      -20.1016796465  W2        2648            0.0000000000
      7945      2649  TIP3      OH2           -47.9370566405      -13.6429922861      -22.0501596465  W2        2649            0.0000000000
      7946      2649  TIP3      H1            -47.4013066405      -13.1913222861      -22.7022296465  W2        2649            0.0000000000
      7947      2649  TIP3      H2            -48.7890966405      -13.7510122861      -22.4727496465  W2        2649            0.0000000000
      7948      2650  TIP3      OH2           -46.3552166405       -8.2033722861      -21.8106396465  W2        2650            0.0000000000
      7949      2650  TIP3      H1            -45.6047366405       -8.3596222861      -22.3838596465  W2        2650            0.0000000000
      7950      2650  TIP3      H2            -46.6943866405       -7.3517122861      -22.0860896465  W2        2650            0.0000000000
      7951      2651  TIP3      OH2           -41.9395966405      -10.3881922861      -16.7821096465  W2        2651            0.0000000000
      7952      2651  TIP3      H1            -41.7474666405      -11.3192522861      -16.8936596465  W2        2651            0.0000000000
      7953      2651  TIP3      H2            -41.0819666405       -9.9632422861      -16.7925696465  W2        2651            0.0000000000
      7954      2652  TIP3      OH2           -40.6228766405       -7.5996722861      -18.7048396465  W2        2652            0.0000000000
      7955      2652  TIP3      H1            -40.9043766405       -6.8902122861      -19.2824596465  W2        2652            0.0000000000
      7956      2652  TIP3      H2            -39.6804466405       -7.6723722861      -18.8557196465  W2        2652            0.0000000000
      7957      2653  TIP3      OH2           -49.8709966405      -10.8142222861      -17.6313396465  W2        2653            0.0000000000
      7958      2653  TIP3      H1            -50.6380966405      -11.3467422861      -17.8415796465  W2        2653            0.0000000000
      7959      2653  TIP3      H2            -49.1920966405      -11.1241822861      -18.2307096465  W2        2653            0.0000000000
      7960      2654  TIP3      OH2           -47.1315066405      -16.1864222861      -21.6187996465  W2        2654            0.0000000000
      7961      2654  TIP3      H1            -47.2295466405      -15.2401022861      -21.7241796465  W2        2654            0.0000000000
      7962      2654  TIP3      H2            -47.8738866405      -16.5590422861      -22.0944496465  W2        2654            0.0000000000
      7963      2655  TIP3      OH2           -45.8674566405      -11.8648822861      -18.0549596465  W2        2655            0.0000000000
      7964      2655  TIP3      H1            -46.1029166405      -12.0842122861      -17.1534696465  W2        2655            0.0000000000
      7965      2655  TIP3      H2            -46.6507666405      -12.0717622861      -18.5647096465  W2        2655            0.0000000000
      7966      2656  TIP3      OH2           -43.1517966405      -12.7375322861      -18.9796096465  W2        2656            0.0000000000
      7967      2656  TIP3      H1            -44.0992566405      -12.7055622861      -18.8472796465  W2        2656            0.0000000000
      7968      2656  TIP3      H2            -42.8391266405      -13.3628222861      -18.3257896465  W2        2656            0.0000000000
      7969      2657  TIP3      OH2           -41.5176466405      -14.1034222861      -16.9744196465  W2        2657            0.0000000000
      7970      2657  TIP3      H1            -41.6144666405      -15.0556922861      -16.9802296465  W2        2657            0.0000000000
      7971      2657  TIP3      H2            -41.8393366405      -13.8347422861      -16.1138696465  W2        2657            0.0000000000
      7972      2658  TIP3      OH2           -51.6907166405      -12.8938422861      -17.9268696465  W2        2658            0.0000000000
      7973      2658  TIP3      H1            -51.4789766405      -13.6002322861      -18.5371196465  W2        2658            0.0000000000
      7974      2658  TIP3      H2            -51.8019666405      -13.3312422861      -17.0827496465  W2        2658            0.0000000000
      7975      2659  TIP3      OH2           -46.9096966405      -16.8926822861      -18.9475196465  W2        2659            0.0000000000
      7976      2659  TIP3      H1            -46.1978566405      -17.5324622861      -18.9616096465  W2        2659            0.0000000000
      7977      2659  TIP3      H2            -47.0106566405      -16.6258522861      -19.8612096465  W2        2659            0.0000000000
      7978      2660  TIP3      OH2           -46.5559466405      -15.2098422861      -16.8938896465  W2        2660            0.0000000000
      7979      2660  TIP3      H1            -46.6877266405      -15.6854622861      -17.7140396465  W2        2660            0.0000000000
      7980      2660  TIP3      H2            -47.1552066405      -14.4654822861      -16.9491796465  W2        2660            0.0000000000
      7981      2661  TIP3      OH2           -47.0097166405        1.6731877139      -33.7174896465  W2        2661            0.0000000000
      7982      2661  TIP3      H1            -46.0766466405        1.8310577139      -33.5736496465  W2        2661            0.0000000000
      7983      2661  TIP3      H2            -47.2738366405        2.3484877139      -34.3423396465  W2        2661            0.0000000000
      7984      2662  TIP3      OH2           -53.4412266405       -3.6904322861      -34.2346796465  W2        2662            0.0000000000
      7985      2662  TIP3      H1            -52.5273066405       -3.6115422861      -33.9612896465  W2        2662            0.0000000000
      7986      2662  TIP3      H2            -53.4339166405       -4.3774722861      -34.9011196465  W2        2662            0.0000000000
      7987      2663  TIP3      OH2           -54.7921666405        1.7024177139      -29.1572896465  W2        2663            0.0000000000
      7988      2663  TIP3      H1            -55.4394566405        1.2405877139      -29.6901696465  W2        2663            0.0000000000
      7989      2663  TIP3      H2            -54.4377066405        1.0307477139      -28.5746696465  W2        2663            0.0000000000
      7990      2664  TIP3      OH2           -53.9222466405       -0.2168822861      -27.3526696465  W2        2664            0.0000000000
      7991      2664  TIP3      H1            -54.2565666405       -1.0971522861      -27.1806496465  W2        2664            0.0000000000
      7992      2664  TIP3      H2            -53.7000066405        0.1286177139      -26.4881096465  W2        2664            0.0000000000
      7993      2665  TIP3      OH2           -36.3737666405        0.5927577139      -24.3721896465  W2        2665            0.0000000000
      7994      2665  TIP3      H1            -36.3950966405        0.7775977139      -23.4332496465  W2        2665            0.0000000000
      7995      2665  TIP3      H2            -35.6831466405        1.1611577139      -24.7130496465  W2        2665            0.0000000000
      7996      2666  TIP3      OH2           -36.8104766405        0.1598677139      -21.4502796465  W2        2666            0.0000000000
      7997      2666  TIP3      H1            -37.2976066405       -0.5757222861      -21.8215396465  W2        2666            0.0000000000
      7998      2666  TIP3      H2            -36.2612066405       -0.2337422861      -20.7723396465  W2        2666            0.0000000000
      7999      2667  TIP3      OH2           -38.3597466405       -4.0503222861      -16.8122496465  W2        2667            0.0000000000
      8000      2667  TIP3      H1            -39.2256366405       -4.1553522861      -16.4180196465  W2        2667            0.0000000000
      8001      2667  TIP3      H2            -37.9831566405       -3.2919922861      -16.3657796465  W2        2667            0.0000000000
      8002      2668  TIP3      OH2           -37.0587766405       -5.7939522861      -31.2979996465  W2        2668            0.0000000000
      8003      2668  TIP3      H1            -36.2086366405       -5.3728622861      -31.1708396465  W2        2668            0.0000000000
      8004      2668  TIP3      H2            -37.0532666405       -6.5339422861      -30.6908596465  W2        2668            0.0000000000
      8005      2669  TIP3      OH2           -36.6642166405       -7.7402122861      -29.4744296465  W2        2669            0.0000000000
      8006      2669  TIP3      H1            -37.3907566405       -8.2199522861      -29.0766696465  W2        2669            0.0000000000
      8007      2669  TIP3      H2            -36.0828866405       -7.5347422861      -28.7422696465  W2        2669            0.0000000000
      8008      2670  TIP3      OH2           -36.9050966405       -4.9554622861      -24.5266696465  W2        2670            0.0000000000
      8009      2670  TIP3      H1            -36.0716766405       -5.3334622861      -24.8073096465  W2        2670            0.0000000000
      8010      2670  TIP3      H2            -36.7930666405       -4.0123422861      -24.6457596465  W2        2670            0.0000000000
      8011      2671  TIP3      OH2           -38.4188666405       -2.0777122861      -22.2198296465  W2        2671            0.0000000000
      8012      2671  TIP3      H1            -39.0663366405       -1.7525622861      -21.5943096465  W2        2671            0.0000000000
      8013      2671  TIP3      H2            -38.9364666405       -2.5179422861      -22.8939996465  W2        2671            0.0000000000
      8014      2672  TIP3      OH2           -36.3959066405       -7.8393622861      -33.0832996465  W2        2672            0.0000000000
      8015      2672  TIP3      H1            -36.9177966405       -7.4829522861      -33.8022096465  W2        2672            0.0000000000
      8016      2672  TIP3      H2            -36.4289866405       -7.1645822861      -32.4052096465  W2        2672            0.0000000000
      8017      2673  TIP3      OH2           -38.0470066405      -10.5998022861      -34.5325896465  W2        2673            0.0000000000
      8018      2673  TIP3      H1            -37.9505666405       -9.9331022861      -35.2126196465  W2        2673            0.0000000000
      8019      2673  TIP3      H2            -38.1870466405      -11.4151722861      -35.0140396465  W2        2673            0.0000000000
      8020      2674  TIP3      OH2           -38.8775366405       -9.2195622861      -28.9115596465  W2        2674            0.0000000000
      8021      2674  TIP3      H1            -39.0276566405      -10.1647022861      -28.9317796465  W2        2674            0.0000000000
      8022      2674  TIP3      H2            -39.2310866405       -8.9384222861      -28.0676496465  W2        2674            0.0000000000
      8023      2675  TIP3      OH2           -53.8422966405       -7.1413422861      -24.9011796465  W2        2675            0.0000000000
      8024      2675  TIP3      H1            -53.6580066405       -7.2231722861      -25.8368896465  W2        2675            0.0000000000
      8025      2675  TIP3      H2            -52.9930066405       -7.2656422861      -24.4775396465  W2        2675            0.0000000000
      8026      2676  TIP3      OH2           -38.0212466405       -7.2492322861      -19.2727296465  W2        2676            0.0000000000
      8027      2676  TIP3      H1            -37.4385166405       -7.9840022861      -19.0810096465  W2        2676            0.0000000000
      8028      2676  TIP3      H2            -37.4573166405       -6.4772022861      -19.2261496465  W2        2676            0.0000000000
      8029      2677  TIP3      OH2           -36.5245366405       -9.3466522861      -18.5881896465  W2        2677            0.0000000000
      8030      2677  TIP3      H1            -37.3878666405       -9.7254422861      -18.7537196465  W2        2677            0.0000000000
      8031      2677  TIP3      H2            -35.9201666405      -10.0851722861      -18.6626096465  W2        2677            0.0000000000
      8032      2678  TIP3      OH2           -38.7996266405      -13.1918222861      -35.4150396465  W2        2678            0.0000000000
      8033      2678  TIP3      H1            -38.1890466405      -13.5631422861      -34.7782196465  W2        2678            0.0000000000
      8034      2678  TIP3      H2            -39.6364766405      -13.6131322861      -35.2190396465  W2        2678            0.0000000000
      8035      2679  TIP3      OH2           -39.1670566405      -11.6369822861      -30.4490496465  W2        2679            0.0000000000
      8036      2679  TIP3      H1            -38.8873466405      -12.5439422861      -30.3248796465  W2        2679            0.0000000000
      8037      2679  TIP3      H2            -38.4078866405      -11.2028322861      -30.8381296465  W2        2679            0.0000000000
      8038      2680  TIP3      OH2           -38.5552266405      -11.0552422861      -25.0131596465  W2        2680            0.0000000000
      8039      2680  TIP3      H1            -37.6224266405      -10.8432522861      -25.0475596465  W2        2680            0.0000000000
      8040      2680  TIP3      H2            -38.7904766405      -10.9540322861      -24.0908596465  W2        2680            0.0000000000
      8041      2681  TIP3      OH2           -38.5260366405      -10.3187122861      -22.2372196465  W2        2681            0.0000000000
      8042      2681  TIP3      H1            -39.3689066405      -10.0506722861      -21.8712396465  W2        2681            0.0000000000
      8043      2681  TIP3      H2            -38.0836066405       -9.4965222861      -22.4481096465  W2        2681            0.0000000000
      8044      2682  TIP3      OH2           -54.2448166405      -11.8708422861      -18.7602996465  W2        2682            0.0000000000
      8045      2682  TIP3      H1            -53.3253266405      -11.9930122861      -18.5239896465  W2        2682            0.0000000000
      8046      2682  TIP3      H2            -54.6943666405      -12.6208722861      -18.3709496465  W2        2682            0.0000000000
      8047      2683  TIP3      OH2           -36.2428766405      -16.3386922861      -16.8837196465  W2        2683            0.0000000000
      8048      2683  TIP3      H1            -35.8931766405      -16.9923422861      -17.4892496465  W2        2683            0.0000000000
      8049      2683  TIP3      H2            -36.0959266405      -15.5012822861      -17.3234596465  W2        2683            0.0000000000
      8050      2684  TIP3      OH2           -38.5535766405      -14.3740522861      -30.4008496465  W2        2684            0.0000000000
      8051      2684  TIP3      H1            -38.3710766405      -14.8229022861      -29.5753496465  W2        2684            0.0000000000
      8052      2684  TIP3      H2            -39.1532866405      -14.9586122861      -30.8643896465  W2        2684            0.0000000000
      8053      2685  TIP3      OH2           -53.0235666405      -13.5586822861      -25.8690096465  W2        2685            0.0000000000
      8054      2685  TIP3      H1            -52.5784066405      -14.3504322861      -25.5670396465  W2        2685            0.0000000000
      8055      2685  TIP3      H2            -52.5572666405      -12.8421622861      -25.4384496465  W2        2685            0.0000000000
      8056      2686  TIP3      OH2           -54.7195366405      -10.5593822861      -24.7999896465  W2        2686            0.0000000000
      8057      2686  TIP3      H1            -54.2275566405      -10.7803322861      -25.5907896465  W2        2686            0.0000000000
      8058      2686  TIP3      H2            -54.3574466405       -9.7190422861      -24.5190396465  W2        2686            0.0000000000
      8059      2687  TIP3      OH2           -36.7231566405      -14.2292322861      -18.5345896465  W2        2687            0.0000000000
      8060      2687  TIP3      H1            -37.6405866405      -13.9585222861      -18.5702396465  W2        2687            0.0000000000
      8061      2687  TIP3      H2            -36.6002166405      -14.7643922861      -19.3186196465  W2        2687            0.0000000000
      8062      2688  TIP3      OH2           -36.6869566405      -14.3062422861      -33.8728196465  W2        2688            0.0000000000
      8063      2688  TIP3      H1            -36.2746966405      -15.0276722861      -34.3480196465  W2        2688            0.0000000000
      8064      2688  TIP3      H2            -36.0053066405      -13.6367822861      -33.8143896465  W2        2688            0.0000000000
      8065      2689  TIP3      OH2           -54.4058866405      -14.3014722861      -30.7457496465  W2        2689            0.0000000000
      8066      2689  TIP3      H1            -55.3310466405      -14.0928122861      -30.8751996465  W2        2689            0.0000000000
      8067      2689  TIP3      H2            -53.9518966405      -13.8173922861      -31.4355196465  W2        2689            0.0000000000
      8068      2690  TIP3      OH2           -39.6351666405        0.6826977139      -28.8000096465  W2        2690            0.0000000000
      8069      2690  TIP3      H1            -38.9828766405        0.3349077139      -29.4080996465  W2        2690            0.0000000000
      8070      2690  TIP3      H2            -39.1247866405        1.1710177139      -28.1540396465  W2        2690            0.0000000000
      8071      2691  TIP3      OH2           -54.4423466405      -15.5635722861      -22.4014996465  W2        2691            0.0000000000
      8072      2691  TIP3      H1            -55.1072966405      -15.8095422861      -21.7584096465  W2        2691            0.0000000000
      8073      2691  TIP3      H2            -54.8852166405      -14.9415322861      -22.9786996465  W2        2691            0.0000000000
      8074      2692  TIP3      OH2           -52.2504166405       -2.3881622861      -18.2569196465  W2        2692            0.0000000000
      8075      2692  TIP3      H1            -53.0711666405       -2.2135122861      -18.7174496465  W2        2692            0.0000000000
      8076      2692  TIP3      H2            -52.5026366405       -2.4616922861      -17.3364796465  W2        2692            0.0000000000
      8077      2693  TIP3      OH2           -49.2961266405       -1.4140422861      -21.9985196465  W2        2693            0.0000000000
      8078      2693  TIP3      H1            -49.7210166405       -0.6041922861      -22.2810596465  W2        2693            0.0000000000
      8079      2693  TIP3      H2            -48.3918466405       -1.3286322861      -22.3005396465  W2        2693            0.0000000000
      8080      2694  TIP3      OH2           -44.9849866405       -0.0150422861      -19.0391496465  W2        2694            0.0000000000
      8081      2694  TIP3      H1            -44.8002366405       -0.3484322861      -18.1611196465  W2        2694            0.0000000000
      8082      2694  TIP3      H2            -44.1385366405        0.2948177139      -19.3612296465  W2        2694            0.0000000000
      8083      2695  TIP3      OH2           -42.6399466405        1.2708477139      -19.7950096465  W2        2695            0.0000000000
      8084      2695  TIP3      H1            -41.9630566405        0.6380777139      -20.0350896465  W2        2695            0.0000000000
      8085      2695  TIP3      H2            -42.3180666405        1.6718977139      -18.9876796465  W2        2695            0.0000000000
      8086      2696  TIP3      OH2           -37.7225666405      -16.1396022861      -20.7155096465  W2        2696            0.0000000000
      8087      2696  TIP3      H1            -38.5352166405      -15.8145722861      -21.1030396465  W2        2696            0.0000000000
      8088      2696  TIP3      H2            -37.4897166405      -16.8997522861      -21.2485996465  W2        2696            0.0000000000
      8089      2697  TIP3      OH2           -51.8944566405        1.8423477139      -21.9509896465  W2        2697            0.0000000000
      8090      2697  TIP3      H1            -52.6148166405        2.2824477139      -22.4022196465  W2        2697            0.0000000000
      8091      2697  TIP3      H2            -52.2600566405        1.5918177139      -21.1025896465  W2        2697            0.0000000000
      8092      2698  TIP3      OH2           -49.4271966405        1.4427377139      -22.9212696465  W2        2698            0.0000000000
      8093      2698  TIP3      H1            -50.2919766405        1.5145877139      -22.5172596465  W2        2698            0.0000000000
      8094      2698  TIP3      H2            -49.4822966405        1.9894677139      -23.7050196465  W2        2698            0.0000000000
      8095      2699  TIP3      OH2           -44.7166366405        1.3306277139      -23.7456696465  W2        2699            0.0000000000
      8096      2699  TIP3      H1            -45.1732366405        1.8595977139      -24.3998296465  W2        2699            0.0000000000
      8097      2699  TIP3      H2            -44.5538366405        1.9337677139      -23.0204396465  W2        2699            0.0000000000
      8098      2700  TIP3      OH2           -42.3890066405        0.2085877139      -22.8006396465  W2        2700            0.0000000000
      8099      2700  TIP3      H1            -43.2936366405        0.3736077139      -23.0664296465  W2        2700            0.0000000000
      8100      2700  TIP3      H2            -41.9601466405        1.0618077139      -22.8662996465  W2        2700            0.0000000000
      8101      2701  TIP3      OH2           -39.7848166405        1.7784977139      -22.5058596465  W2        2701            0.0000000000
      8102      2701  TIP3      H1            -39.9666166405        2.6943877139      -22.7163696465  W2        2701            0.0000000000
      8103      2701  TIP3      H2            -39.6080366405        1.3682077139      -23.3523996465  W2        2701            0.0000000000
      8104      2702  TIP3      OH2           -52.4796466405        0.4655977139      -25.0408096465  W2        2702            0.0000000000
      8105      2702  TIP3      H1            -52.4980466405        0.0401077139      -24.1835796465  W2        2702            0.0000000000
      8106      2702  TIP3      H2            -51.6748566405        0.1470977139      -25.4495896465  W2        2702            0.0000000000
      8107      2703  TIP3      OH2           -50.3383366405       -0.8245322861      -26.3858196465  W2        2703            0.0000000000
      8108      2703  TIP3      H1            -50.5572666405       -1.7407922861      -26.2162196465  W2        2703            0.0000000000
      8109      2703  TIP3      H2            -49.5141166405       -0.6844922861      -25.9196796465  W2        2703            0.0000000000
      8110      2704  TIP3      OH2           -47.8010866405       -0.3546022861      -25.5370196465  W2        2704            0.0000000000
      8111      2704  TIP3      H1            -47.5885166405       -1.2427022861      -25.8239296465  W2        2704            0.0000000000
      8112      2704  TIP3      H2            -47.7365766405       -0.3888322861      -24.5826196465  W2        2704            0.0000000000
      8113      2705  TIP3      OH2           -44.2927166405      -14.6905422861      -26.3926896465  W2        2705            0.0000000000
      8114      2705  TIP3      H1            -44.9670366405      -15.3199822861      -26.1371096465  W2        2705            0.0000000000
      8115      2705  TIP3      H2            -43.7287966405      -15.1746522861      -26.9958996465  W2        2705            0.0000000000
      8116      2706  TIP3      OH2           -39.1499966405      -16.5831422861      -26.2799796465  W2        2706            0.0000000000
      8117      2706  TIP3      H1            -38.5462366405      -16.0356022861      -26.7818796465  W2        2706            0.0000000000
      8118      2706  TIP3      H2            -40.0197966405      -16.2641022861      -26.5205696465  W2        2706            0.0000000000
      8119      2707  TIP3      OH2           -37.4229566405      -15.4442722861      -27.9468896465  W2        2707            0.0000000000
      8120      2707  TIP3      H1            -36.8112066405      -15.9587022861      -28.4735296465  W2        2707            0.0000000000
      8121      2707  TIP3      H2            -37.0406166405      -14.5670622861      -27.9234496465  W2        2707            0.0000000000
      8122      2708  TIP3      OH2           -51.9659666405      -16.0565122861      -28.5706996465  W2        2708            0.0000000000
      8123      2708  TIP3      H1            -52.7429866405      -16.2910222861      -29.0781096465  W2        2708            0.0000000000
      8124      2708  TIP3      H2            -51.4356066405      -16.8533022861      -28.5618996465  W2        2708            0.0000000000
      8125      2709  TIP3      OH2           -53.1296266405      -16.2587022861      -32.7670896465  W2        2709            0.0000000000
      8126      2709  TIP3      H1            -52.6905566405      -15.6476522861      -33.3587396465  W2        2709            0.0000000000
      8127      2709  TIP3      H2            -53.7633866405      -15.7202922861      -32.2930896465  W2        2709            0.0000000000
      8128      2710  TIP3      OH2           -47.3867066405      -16.1298022861      -28.7573896465  W2        2710            0.0000000000
      8129      2710  TIP3      H1            -46.5123666405      -15.7413722861      -28.7869596465  W2        2710            0.0000000000
      8130      2710  TIP3      H2            -47.5226266405      -16.3450222861      -27.8346696465  W2        2710            0.0000000000
      8131      2711  TIP3      OH2           -41.8298666405      -16.0998222861      -27.1082196465  W2        2711            0.0000000000
      8132      2711  TIP3      H1            -41.7537066405      -16.0046622861      -28.0576196465  W2        2711            0.0000000000
      8133      2711  TIP3      H2            -42.1049466405      -17.0075322861      -26.9793096465  W2        2711            0.0000000000
      8134      2712  TIP3      OH2           -40.4766066405      -16.0740422861      -31.4157196465  W2        2712            0.0000000000
      8135      2712  TIP3      H1            -41.1794966405      -15.4591222861      -31.6255796465  W2        2712            0.0000000000
      8136      2712  TIP3      H2            -40.9214666405      -16.9113722861      -31.2846296465  W2        2712            0.0000000000
      8137      2713  TIP3      OH2           -53.2286766405       -0.3104822861      -31.8695796465  W2        2713            0.0000000000
      8138      2713  TIP3      H1            -53.9136866405       -0.3485922861      -32.5370696465  W2        2713            0.0000000000
      8139      2713  TIP3      H2            -53.2249566405        0.6022777139      -31.5813696465  W2        2713            0.0000000000
      8140      2714  TIP3      OH2           -51.2687166405      -14.3425522861      -34.3246796465  W2        2714            0.0000000000
      8141      2714  TIP3      H1            -50.7773766405      -14.9723122861      -34.8521296465  W2        2714            0.0000000000
      8142      2714  TIP3      H2            -50.6450866405      -14.0466122861      -33.6615596465  W2        2714            0.0000000000
      8143      2715  TIP3      OH2           -46.2427066405      -14.0494022861      -31.8676296465  W2        2715            0.0000000000
      8144      2715  TIP3      H1            -46.0645766405      -14.6960822861      -31.1847696465  W2        2715            0.0000000000
      8145      2715  TIP3      H2            -46.2960866405      -13.2156322861      -31.4005196465  W2        2715            0.0000000000
      8146      2716  TIP3      OH2           -44.3643266405        0.8990077139      -33.4719596465  W2        2716            0.0000000000
      8147      2716  TIP3      H1            -43.4983066405        1.2657477139      -33.6501396465  W2        2716            0.0000000000
      8148      2716  TIP3      H2            -44.6110466405        0.4598077139      -34.2858796465  W2        2716            0.0000000000
      8149      2717  TIP3      OH2           -37.6553666405        0.4620377139      -30.7928496465  W2        2717            0.0000000000
      8150      2717  TIP3      H1            -37.8496566405       -0.2857522861      -31.3578896465  W2        2717            0.0000000000
      8151      2717  TIP3      H2            -37.6943566405        1.2200477139      -31.3760596465  W2        2717            0.0000000000
      8152      2718  TIP3      OH2           -52.0081666405      -15.5423222861      -19.0530796465  W2        2718            0.0000000000
      8153      2718  TIP3      H1            -52.3743466405      -16.3080622861      -18.6106096465  W2        2718            0.0000000000
      8154      2718  TIP3      H2            -51.0953166405      -15.5133022861      -18.7665696465  W2        2718            0.0000000000
      8155      2719  TIP3      OH2           -50.0350866405      -16.1918822861      -17.5173696465  W2        2719            0.0000000000
      8156      2719  TIP3      H1            -49.1367266405      -16.4658622861      -17.7020296465  W2        2719            0.0000000000
      8157      2719  TIP3      H2            -50.4217766405      -16.9342822861      -17.0531096465  W2        2719            0.0000000000
      8158      2720  TIP3      OH2           -51.4105566405        0.6095977139      -34.8443696465  W2        2720            0.0000000000
      8159      2720  TIP3      H1            -51.6780966405        0.8958877139      -33.9710596465  W2        2720            0.0000000000
      8160      2720  TIP3      H2            -50.6392966405        0.0635177139      -34.6921196465  W2        2720            0.0000000000
      8161      2721  TIP3      OH2           -41.6138566405      -16.8593522861      -17.3350896465  W2        2721            0.0000000000
      8162      2721  TIP3      H1            -41.5371366405      -17.2852822861      -16.4813196465  W2        2721            0.0000000000
      8163      2721  TIP3      H2            -40.7201966405      -16.8458822861      -17.6777396465  W2        2721            0.0000000000
      8164      2722  TIP3      OH2           -38.4377466405       -0.7867222861      -18.6426696465  W2        2722            0.0000000000
      8165      2722  TIP3      H1            -39.2195566405       -0.9729222861      -19.1626096465  W2        2722            0.0000000000
      8166      2722  TIP3      H2            -38.5097566405        0.1427077139      -18.4254196465  W2        2722            0.0000000000
      8167      2723  TIP3      OH2           -24.0317066405       -6.9002822861      -28.6119496465  W2        2723            0.0000000000
      8168      2723  TIP3      H1            -23.9425966405       -5.9564622861      -28.7442396465  W2        2723            0.0000000000
      8169      2723  TIP3      H2            -24.6699466405       -7.1756422861      -29.2700096465  W2        2723            0.0000000000
      8170      2724  TIP3      OH2           -25.0985766405       -7.6452122861      -25.1931296465  W2        2724            0.0000000000
      8171      2724  TIP3      H1            -25.1368266405       -8.2915822861      -24.4881696465  W2        2724            0.0000000000
      8172      2724  TIP3      H2            -25.4209266405       -8.1117722861      -25.9642596465  W2        2724            0.0000000000
      8173      2725  TIP3      OH2           -32.7300766405       -8.0310022861      -23.6001396465  W2        2725            0.0000000000
      8174      2725  TIP3      H1            -32.6888666405       -8.6566722861      -22.8768996465  W2        2725            0.0000000000
      8175      2725  TIP3      H2            -32.0273066405       -7.4071422861      -23.4180996465  W2        2725            0.0000000000
      8176      2726  TIP3      OH2           -21.3925566405       -4.7061722861      -26.8916196465  W2        2726            0.0000000000
      8177      2726  TIP3      H1            -21.8332866405       -5.4265722861      -26.4410596465  W2        2726            0.0000000000
      8178      2726  TIP3      H2            -21.4055866405       -3.9854522861      -26.2618496465  W2        2726            0.0000000000
      8179      2727  TIP3      OH2           -31.8067666405       -3.5811122861      -25.0652296465  W2        2727            0.0000000000
      8180      2727  TIP3      H1            -32.1762466405       -4.3830622861      -25.4347996465  W2        2727            0.0000000000
      8181      2727  TIP3      H2            -30.8656566405       -3.7496222861      -25.0188896465  W2        2727            0.0000000000
      8182      2728  TIP3      OH2           -35.1967166405       -9.9208522861      -29.6723496465  W2        2728            0.0000000000
      8183      2728  TIP3      H1            -35.6443766405       -9.0749822861      -29.6906996465  W2        2728            0.0000000000
      8184      2728  TIP3      H2            -35.7575966405      -10.5004322861      -30.1878396465  W2        2728            0.0000000000
      8185      2729  TIP3      OH2           -34.4861066405       -7.7588922861      -27.5465496465  W2        2729            0.0000000000
      8186      2729  TIP3      H1            -34.2727566405       -8.5287322861      -27.0192496465  W2        2729            0.0000000000
      8187      2729  TIP3      H2            -33.7483466405       -7.6692222861      -28.1497896465  W2        2729            0.0000000000
      8188      2730  TIP3      OH2           -24.2810066405        0.3979977139      -26.6795796465  W2        2730            0.0000000000
      8189      2730  TIP3      H1            -23.6613666405       -0.2785322861      -26.9526596465  W2        2730            0.0000000000
      8190      2730  TIP3      H2            -24.4892666405        0.1800777139      -25.7710896465  W2        2730            0.0000000000
      8191      2731  TIP3      OH2           -26.7091366405       -5.2130722861      -24.7870296465  W2        2731            0.0000000000
      8192      2731  TIP3      H1            -26.4053466405       -5.8989322861      -25.3816196465  W2        2731            0.0000000000
      8193      2731  TIP3      H2            -25.9877366405       -5.0942022861      -24.1692296465  W2        2731            0.0000000000
      8194      2732  TIP3      OH2           -18.0461566405      -13.6115422861      -23.9264096465  W2        2732            0.0000000000
      8195      2732  TIP3      H1            -17.9969366405      -13.0014222861      -23.1904996465  W2        2732            0.0000000000
      8196      2732  TIP3      H2            -17.6206466405      -13.1504522861      -24.6492996465  W2        2732            0.0000000000
      8197      2733  TIP3      OH2           -23.5684366405      -10.8188322861      -24.4595496465  W2        2733            0.0000000000
      8198      2733  TIP3      H1            -23.4258466405      -11.7651322861      -24.4393896465  W2        2733            0.0000000000
      8199      2733  TIP3      H2            -23.6745366405      -10.6118522861      -25.3880596465  W2        2733            0.0000000000
      8200      2734  TIP3      OH2           -30.4136066405      -12.7171922861      -27.1870696465  W2        2734            0.0000000000
      8201      2734  TIP3      H1            -30.3704966405      -11.8573422861      -27.6054396465  W2        2734            0.0000000000
      8202      2734  TIP3      H2            -30.8711966405      -13.2697222861      -27.8207496465  W2        2734            0.0000000000
      8203      2735  TIP3      OH2           -22.6913366405      -12.5866322861      -28.7862396465  W2        2735            0.0000000000
      8204      2735  TIP3      H1            -22.0449066405      -12.9153122861      -28.1614796465  W2        2735            0.0000000000
      8205      2735  TIP3      H2            -22.1813966405      -12.0687322861      -29.4090996465  W2        2735            0.0000000000
      8206      2736  TIP3      OH2           -33.7934566405      -10.3206122861      -26.4249296465  W2        2736            0.0000000000
      8207      2736  TIP3      H1            -33.1397966405      -10.8704422861      -25.9929196465  W2        2736            0.0000000000
      8208      2736  TIP3      H2            -33.7695266405      -10.5947122861      -27.3417296465  W2        2736            0.0000000000
      8209      2737  TIP3      OH2           -28.6370066405       -8.7704822861      -27.2097796465  W2        2737            0.0000000000
      8210      2737  TIP3      H1            -28.0209066405       -9.2969422861      -26.7003796465  W2        2737            0.0000000000
      8211      2737  TIP3      H2            -29.2231266405       -9.4106122861      -27.6134196465  W2        2737            0.0000000000
      8212      2738  TIP3      OH2           -17.6546966405      -12.1336222861      -21.6904296465  W2        2738            0.0000000000
      8213      2738  TIP3      H1            -18.3432366405      -11.4755522861      -21.7857696465  W2        2738            0.0000000000
      8214      2738  TIP3      H2            -17.6392366405      -12.3308322861      -20.7538896465  W2        2738            0.0000000000
      8215      2739  TIP3      OH2           -31.6034166405      -13.7993522861      -23.1129896465  W2        2739            0.0000000000
      8216      2739  TIP3      H1            -31.8222466405      -13.2692922861      -23.8793896465  W2        2739            0.0000000000
      8217      2739  TIP3      H2            -32.2713266405      -13.5728022861      -22.4658496465  W2        2739            0.0000000000
      8218      2740  TIP3      OH2           -24.2344366405       -4.2992422861      -29.5690796465  W2        2740            0.0000000000
      8219      2740  TIP3      H1            -24.5299266405       -4.6220122861      -30.4203896465  W2        2740            0.0000000000
      8220      2740  TIP3      H2            -24.5586566405       -3.3995722861      -29.5278196465  W2        2740            0.0000000000
      8221      2741  TIP3      OH2           -29.0342766405       -6.1237822861      -22.8256196465  W2        2741            0.0000000000
      8222      2741  TIP3      H1            -29.7743666405       -5.5256322861      -22.7220996465  W2        2741            0.0000000000
      8223      2741  TIP3      H2            -28.3203266405       -5.5698222861      -23.1412596465  W2        2741            0.0000000000
      8224      2742  TIP3      OH2           -20.9274966405      -13.2957022861      -26.8056496465  W2        2742            0.0000000000
      8225      2742  TIP3      H1            -21.1426966405      -14.0613622861      -26.2730496465  W2        2742            0.0000000000
      8226      2742  TIP3      H2            -20.2717566405      -12.8232422861      -26.2927996465  W2        2742            0.0000000000
      8227      2743  TIP3      OH2           -32.0096866405      -11.9071722861      -25.1607696465  W2        2743            0.0000000000
      8228      2743  TIP3      H1            -31.3960566405      -11.2744122861      -24.7875296465  W2        2743            0.0000000000
      8229      2743  TIP3      H2            -31.4976166405      -12.3796722861      -25.8170796465  W2        2743            0.0000000000
      8230      2744  TIP3      OH2           -30.6268466405       -4.1594822861      -22.0384696465  W2        2744            0.0000000000
      8231      2744  TIP3      H1            -30.6320866405       -3.2801322861      -22.4165396465  W2        2744            0.0000000000
      8232      2744  TIP3      H2            -31.4804366405       -4.2430722861      -21.6134796465  W2        2744            0.0000000000
      8233      2745  TIP3      OH2           -34.5057566405       -4.4886922861      -31.2565396465  W2        2745            0.0000000000
      8234      2745  TIP3      H1            -34.7776666405       -4.2595922861      -32.1452496465  W2        2745            0.0000000000
      8235      2745  TIP3      H2            -34.4601866405       -3.6508122861      -30.7960096465  W2        2745            0.0000000000
      8236      2746  TIP3      OH2           -20.8807866405       -2.8671022861      -24.5436896465  W2        2746            0.0000000000
      8237      2746  TIP3      H1            -21.8224166405       -2.8087122861      -24.3819996465  W2        2746            0.0000000000
      8238      2746  TIP3      H2            -20.6041766405       -1.9610522861      -24.6807196465  W2        2746            0.0000000000
      8239      2747  TIP3      OH2           -20.5800866405      -14.5805722861      -23.1262996465  W2        2747            0.0000000000
      8240      2747  TIP3      H1            -21.3161666405      -13.9698622861      -23.1641696465  W2        2747            0.0000000000
      8241      2747  TIP3      H2            -19.8966866405      -14.1656722861      -23.6526596465  W2        2747            0.0000000000
      8242      2748  TIP3      OH2           -27.5769466405      -16.4938422861      -25.6604996465  W2        2748            0.0000000000
      8243      2748  TIP3      H1            -27.6945266405      -17.4422422861      -25.7146696465  W2        2748            0.0000000000
      8244      2748  TIP3      H2            -28.4319366405      -16.1612322861      -25.3873896465  W2        2748            0.0000000000
      8245      2749  TIP3      OH2           -22.6286666405       -1.0857522861      -27.9185296465  W2        2749            0.0000000000
      8246      2749  TIP3      H1            -22.2034366405       -1.7929622861      -28.4035696465  W2        2749            0.0000000000
      8247      2749  TIP3      H2            -22.3116666405       -0.2844822861      -28.3353096465  W2        2749            0.0000000000
      8248      2750  TIP3      OH2           -21.4690166405       -3.1849022861      -29.4098696465  W2        2750            0.0000000000
      8249      2750  TIP3      H1            -21.7265366405       -3.8748922861      -30.0212796465  W2        2750            0.0000000000
      8250      2750  TIP3      H2            -21.3979366405       -3.6277822861      -28.5642796465  W2        2750            0.0000000000
      8251      2751  TIP3      OH2           -19.7829966405       -4.6182322861      -20.9325196465  W2        2751            0.0000000000
      8252      2751  TIP3      H1            -19.6433666405       -5.2099822861      -21.6718196465  W2        2751            0.0000000000
      8253      2751  TIP3      H2            -19.6157166405       -3.7456422861      -21.2886396465  W2        2751            0.0000000000
      8254      2752  TIP3      OH2           -25.3104566405       -7.6562822861      -31.1599196465  W2        2752            0.0000000000
      8255      2752  TIP3      H1            -26.0219066405       -7.1213122861      -31.5118696465  W2        2752            0.0000000000
      8256      2752  TIP3      H2            -24.6194966405       -7.6010722861      -31.8200296465  W2        2752            0.0000000000
      8257      2753  TIP3      OH2           -25.2565366405       -9.1988522861      -34.1214196465  W2        2753            0.0000000000
      8258      2753  TIP3      H1            -24.5555466405       -9.1761622861      -33.4700196465  W2        2753            0.0000000000
      8259      2753  TIP3      H2            -24.9542466405       -9.8268822861      -34.7774896465  W2        2753            0.0000000000
      8260      2754  TIP3      OH2           -17.9410666405       -8.2784322861      -22.8664796465  W2        2754            0.0000000000
      8261      2754  TIP3      H1            -18.5936566405       -7.5838722861      -22.7773896465  W2        2754            0.0000000000
      8262      2754  TIP3      H2            -17.4760366405       -8.0683422861      -23.6763196465  W2        2754            0.0000000000
      8263      2755  TIP3      OH2           -21.9046866405       -7.4469522861      -30.2083296465  W2        2755            0.0000000000
      8264      2755  TIP3      H1            -22.6365866405       -7.2185822861      -29.6352696465  W2        2755            0.0000000000
      8265      2755  TIP3      H2            -21.4574666405       -8.1606822861      -29.7535796465  W2        2755            0.0000000000
      8266      2756  TIP3      OH2           -22.0073366405       -9.2726922861      -21.1406296465  W2        2756            0.0000000000
      8267      2756  TIP3      H1            -21.9274266405       -8.5092522861      -20.5687796465  W2        2756            0.0000000000
      8268      2756  TIP3      H2            -22.6085666405       -8.9934522861      -21.8311196465  W2        2756            0.0000000000
      8269      2757  TIP3      OH2           -30.2593166405       -6.8163322861      -28.3258296465  W2        2757            0.0000000000
      8270      2757  TIP3      H1            -30.5897966405       -7.1869922861      -29.1441296465  W2        2757            0.0000000000
      8271      2757  TIP3      H2            -29.6709066405       -7.4869322861      -27.9789996465  W2        2757            0.0000000000
      8272      2758  TIP3      OH2           -28.8925666405       -3.3882722861      -25.6446096465  W2        2758            0.0000000000
      8273      2758  TIP3      H1            -28.9874366405       -3.9669622861      -26.4011496465  W2        2758            0.0000000000
      8274      2758  TIP3      H2            -28.1632066405       -3.7597022861      -25.1483296465  W2        2758            0.0000000000
      8275      2759  TIP3      OH2           -29.8927666405       -8.0477722861      -24.6923296465  W2        2759            0.0000000000
      8276      2759  TIP3      H1            -29.3275166405       -7.9263522861      -25.4552096465  W2        2759            0.0000000000
      8277      2759  TIP3      H2            -29.5738766405       -7.4102722861      -24.0534796465  W2        2759            0.0000000000
      8278      2760  TIP3      OH2           -23.5835466405       -2.5445822861      -23.9582796465  W2        2760            0.0000000000
      8279      2760  TIP3      H1            -23.8238866405       -1.8822722861      -23.3103596465  W2        2760            0.0000000000
      8280      2760  TIP3      H2            -23.7817266405       -3.3790622861      -23.5333196465  W2        2760            0.0000000000
      8281      2761  TIP3      OH2           -29.0126966405       -3.6485022861      -19.9751396465  W2        2761            0.0000000000
      8282      2761  TIP3      H1            -29.3239466405       -2.8661822861      -19.5198196465  W2        2761            0.0000000000
      8283      2761  TIP3      H2            -29.6626766405       -3.8015922861      -20.6609396465  W2        2761            0.0000000000
      8284      2762  TIP3      OH2           -23.0337366405       -8.2846622861      -32.5232096465  W2        2762            0.0000000000
      8285      2762  TIP3      H1            -22.4541866405       -8.1346322861      -31.7763196465  W2        2762            0.0000000000
      8286      2762  TIP3      H2            -22.6197366405       -7.8139222861      -33.2465696465  W2        2762            0.0000000000
      8287      2763  TIP3      OH2           -32.0927066405       -7.4503922861      -20.7465696465  W2        2763            0.0000000000
      8288      2763  TIP3      H1            -32.0223866405       -6.7997122861      -20.0480696465  W2        2763            0.0000000000
      8289      2763  TIP3      H2            -32.9834866405       -7.3476422861      -21.0814796465  W2        2763            0.0000000000
      8290      2764  TIP3      OH2           -25.3072466405       -1.5478122861      -29.0878996465  W2        2764            0.0000000000
      8291      2764  TIP3      H1            -24.8334866405       -1.2521822861      -28.3104796465  W2        2764            0.0000000000
      8292      2764  TIP3      H2            -25.8703166405       -0.8096522861      -29.3209396465  W2        2764            0.0000000000
      8293      2765  TIP3      OH2           -30.7731066405       -1.5770022861      -19.2117596465  W2        2765            0.0000000000
      8294      2765  TIP3      H1            -30.7655766405       -1.7130322861      -20.1592096465  W2        2765            0.0000000000
      8295      2765  TIP3      H2            -31.6890666405       -1.6941922861      -18.9597596465  W2        2765            0.0000000000
      8296      2766  TIP3      OH2           -19.3348966405      -16.5346222861      -32.7102396465  W2        2766            0.0000000000
      8297      2766  TIP3      H1            -20.2348266405      -16.3957222861      -32.4151796465  W2        2766            0.0000000000
      8298      2766  TIP3      H2            -19.0830566405      -15.7031622861      -33.1120696465  W2        2766            0.0000000000
      8299      2767  TIP3      OH2           -31.2690466405       -7.7469022861      -30.7365496465  W2        2767            0.0000000000
      8300      2767  TIP3      H1            -31.5609166405       -6.9787322861      -31.2274196465  W2        2767            0.0000000000
      8301      2767  TIP3      H2            -31.9435266405       -8.4062822861      -30.8994096465  W2        2767            0.0000000000
      8302      2768  TIP3      OH2           -18.1457566405       -2.1683822861      -34.3338496465  W2        2768            0.0000000000
      8303      2768  TIP3      H1            -18.0724066405       -1.2293622861      -34.1633196465  W2        2768            0.0000000000
      8304      2768  TIP3      H2            -17.2402466405       -2.4735222861      -34.3901196465  W2        2768            0.0000000000
      8305      2769  TIP3      OH2           -35.1760366405       -5.3839822861      -21.9215696465  W2        2769            0.0000000000
      8306      2769  TIP3      H1            -35.6771966405       -5.4120422861      -22.7365996465  W2        2769            0.0000000000
      8307      2769  TIP3      H2            -35.1706666405       -6.2896622861      -21.6118396465  W2        2769            0.0000000000
      8308      2770  TIP3      OH2           -35.4257666405       -2.6036022861      -25.0375496465  W2        2770            0.0000000000
      8309      2770  TIP3      H1            -34.4797066405       -2.7479022861      -25.0565996465  W2        2770            0.0000000000
      8310      2770  TIP3      H2            -35.5381366405       -1.8193222861      -24.5004296465  W2        2770            0.0000000000
      8311      2771  TIP3      OH2           -17.2279166405       -1.9376322861      -19.3551796465  W2        2771            0.0000000000
      8312      2771  TIP3      H1            -17.2772366405       -2.8928222861      -19.3924196465  W2        2771            0.0000000000
      8313      2771  TIP3      H2            -18.0546866405       -1.6701022861      -18.9537996465  W2        2771            0.0000000000
      8314      2772  TIP3      OH2           -26.2495166405       -2.3637122861      -20.4790396465  W2        2772            0.0000000000
      8315      2772  TIP3      H1            -26.1620566405       -1.5372522861      -20.0041296465  W2        2772            0.0000000000
      8316      2772  TIP3      H2            -27.1130066405       -2.6933322861      -20.2301096465  W2        2772            0.0000000000
      8317      2773  TIP3      OH2           -25.8349366405        1.4086577139      -30.6729796465  W2        2773            0.0000000000
      8318      2773  TIP3      H1            -25.9103366405        1.2873777139      -31.6194596465  W2        2773            0.0000000000
      8319      2773  TIP3      H2            -25.8020666405        2.3579277139      -30.5545196465  W2        2773            0.0000000000
      8320      2774  TIP3      OH2           -32.1815566405        0.1973577139      -28.8920796465  W2        2774            0.0000000000
      8321      2774  TIP3      H1            -32.0295166405       -0.1506022861      -28.0134296465  W2        2774            0.0000000000
      8322      2774  TIP3      H2            -33.0325166405       -0.1589122861      -29.1473596465  W2        2774            0.0000000000
      8323      2775  TIP3      OH2           -22.7333366405        0.5626777139      -33.6707396465  W2        2775            0.0000000000
      8324      2775  TIP3      H1            -22.3584966405       -0.1817122861      -34.1414796465  W2        2775            0.0000000000
      8325      2775  TIP3      H2            -22.7289666405        0.2927377139      -32.7524096465  W2        2775            0.0000000000
      8326      2776  TIP3      OH2           -23.0645266405        0.4883877139      -30.9215196465  W2        2776            0.0000000000
      8327      2776  TIP3      H1            -23.9995466405        0.5885777139      -30.7428196465  W2        2776            0.0000000000
      8328      2776  TIP3      H2            -22.7843366405       -0.2210122861      -30.3431996465  W2        2776            0.0000000000
      8329      2777  TIP3      OH2           -20.0759366405      -10.4443822861      -18.8749596465  W2        2777            0.0000000000
      8330      2777  TIP3      H1            -20.4832566405       -9.9638222861      -19.5956296465  W2        2777            0.0000000000
      8331      2777  TIP3      H2            -20.0353666405      -11.3497822861      -19.1828796465  W2        2777            0.0000000000
      8332      2778  TIP3      OH2           -32.9269866405       -4.0604422861      -20.8782896465  W2        2778            0.0000000000
      8333      2778  TIP3      H1            -32.7108566405       -4.4218822861      -20.0187096465  W2        2778            0.0000000000
      8334      2778  TIP3      H2            -33.7825166405       -4.4350622861      -21.0879396465  W2        2778            0.0000000000
      8335      2779  TIP3      OH2           -30.3081866405      -15.5903922861      -24.8828696465  W2        2779            0.0000000000
      8336      2779  TIP3      H1            -31.1698166405      -15.6775722861      -25.2905796465  W2        2779            0.0000000000
      8337      2779  TIP3      H2            -30.3306166405      -14.7343822861      -24.4551096465  W2        2779            0.0000000000
      8338      2780  TIP3      OH2           -25.6454066405      -15.8683522861      -21.5081696465  W2        2780            0.0000000000
      8339      2780  TIP3      H1            -25.2250966405      -16.2836422861      -20.7551096465  W2        2780            0.0000000000
      8340      2780  TIP3      H2            -26.5784466405      -16.0470222861      -21.3909696465  W2        2780            0.0000000000
      8341      2781  TIP3      OH2           -22.3189166405      -12.1128322861      -20.6547196465  W2        2781            0.0000000000
      8342      2781  TIP3      H1            -22.8329666405      -12.2386122861      -19.8571196465  W2        2781            0.0000000000
      8343      2781  TIP3      H2            -22.4744466405      -11.2005222861      -20.8990996465  W2        2781            0.0000000000
      8344      2782  TIP3      OH2           -21.5564266405       -7.2518322861      -34.8934196465  W2        2782            0.0000000000
      8345      2782  TIP3      H1            -21.5143466405       -7.4744422861      -35.8234196465  W2        2782            0.0000000000
      8346      2782  TIP3      H2            -20.7072166405       -6.8531222861      -34.7034296465  W2        2782            0.0000000000
      8347      2783  TIP3      OH2           -25.9836766405      -13.3760122861      -34.2230896465  W2        2783            0.0000000000
      8348      2783  TIP3      H1            -26.2371966405      -13.3568522861      -33.3002796465  W2        2783            0.0000000000
      8349      2783  TIP3      H2            -26.2404666405      -14.2474722861      -34.5244696465  W2        2783            0.0000000000
      8350      2784  TIP3      OH2           -30.2171766405      -10.6249422861      -23.7878496465  W2        2784            0.0000000000
      8351      2784  TIP3      H1            -30.8589666405      -10.6652122861      -23.0788396465  W2        2784            0.0000000000
      8352      2784  TIP3      H2            -30.1799766405       -9.6984722861      -24.0255496465  W2        2784            0.0000000000
      8353      2785  TIP3      OH2           -30.2202666405      -10.4039322861      -28.8758496465  W2        2785            0.0000000000
      8354      2785  TIP3      H1            -31.1129766405      -10.7443222861      -28.9344696465  W2        2785            0.0000000000
      8355      2785  TIP3      H2            -29.7696066405      -10.7808422861      -29.6315296465  W2        2785            0.0000000000
      8356      2786  TIP3      OH2           -24.6847166405       -9.9879022861      -30.0587696465  W2        2786            0.0000000000
      8357      2786  TIP3      H1            -25.0936866405       -9.1730422861      -30.3502896465  W2        2786            0.0000000000
      8358      2786  TIP3      H2            -23.9640966405      -10.1278922861      -30.6730596465  W2        2786            0.0000000000
      8359      2787  TIP3      OH2           -25.5825566405       -9.8122622861      -18.5706996465  W2        2787            0.0000000000
      8360      2787  TIP3      H1            -26.1451766405      -10.5171022861      -18.2499196465  W2        2787            0.0000000000
      8361      2787  TIP3      H2            -24.7562166405       -9.9330722861      -18.1029396465  W2        2787            0.0000000000
      8362      2788  TIP3      OH2           -23.6799466405      -10.5418622861      -27.2447996465  W2        2788            0.0000000000
      8363      2788  TIP3      H1            -23.8754966405       -9.9361822861      -27.9597396465  W2        2788            0.0000000000
      8364      2788  TIP3      H2            -23.4986866405      -11.3753422861      -27.6791696465  W2        2788            0.0000000000
      8365      2789  TIP3      OH2           -32.4671266405      -10.3045922861      -21.9206496465  W2        2789            0.0000000000
      8366      2789  TIP3      H1            -32.5051866405       -9.9044322861      -21.0519396465  W2        2789            0.0000000000
      8367      2789  TIP3      H2            -32.9580166405      -11.1213522861      -21.8303596465  W2        2789            0.0000000000
      8368      2790  TIP3      OH2           -29.1013866405      -12.9303622861      -35.1220496465  W2        2790            0.0000000000
      8369      2790  TIP3      H1            -29.5323166405      -13.3753522861      -34.3923096465  W2        2790            0.0000000000
      8370      2790  TIP3      H2            -29.8195166405      -12.5587322861      -35.6342996465  W2        2790            0.0000000000
      8371      2791  TIP3      OH2           -35.8590466405      -13.1884122861      -28.0701796465  W2        2791            0.0000000000
      8372      2791  TIP3      H1            -35.2282766405      -13.2172022861      -27.3507896465  W2        2791            0.0000000000
      8373      2791  TIP3      H2            -35.4096166405      -13.6135422861      -28.8005896465  W2        2791            0.0000000000
      8374      2792  TIP3      OH2           -34.5848366405      -12.4422122861      -32.6461396465  W2        2792            0.0000000000
      8375      2792  TIP3      H1            -34.1106666405      -11.8512222861      -33.2310496465  W2        2792            0.0000000000
      8376      2792  TIP3      H2            -35.3021966405      -11.9119222861      -32.2991296465  W2        2792            0.0000000000
      8377      2793  TIP3      OH2           -24.4160266405       -8.9037322861      -22.5735596465  W2        2793            0.0000000000
      8378      2793  TIP3      H1            -24.0925466405       -9.5347622861      -23.2165096465  W2        2793            0.0000000000
      8379      2793  TIP3      H2            -24.8560966405       -9.4385122861      -21.9128196465  W2        2793            0.0000000000
      8380      2794  TIP3      OH2           -27.6387366405      -12.9761822861      -27.7894396465  W2        2794            0.0000000000
      8381      2794  TIP3      H1            -28.5496266405      -12.9195022861      -27.5008396465  W2        2794            0.0000000000
      8382      2794  TIP3      H2            -27.1334466405      -13.0366322861      -26.9787196465  W2        2794            0.0000000000
      8383      2795  TIP3      OH2           -32.8103966405      -11.3475522861      -28.9626796465  W2        2795            0.0000000000
      8384      2795  TIP3      H1            -33.6995966405      -11.2480022861      -29.3027196465  W2        2795            0.0000000000
      8385      2795  TIP3      H2            -32.5139066405      -12.1892522861      -29.3088896465  W2        2795            0.0000000000
      8386      2796  TIP3      OH2           -29.1572166405      -11.3472922861      -31.3062196465  W2        2796            0.0000000000
      8387      2796  TIP3      H1            -28.2256666405      -11.2182922861      -31.1279096465  W2        2796            0.0000000000
      8388      2796  TIP3      H2            -29.3721866405      -10.6778622861      -31.9557496465  W2        2796            0.0000000000
      8389      2797  TIP3      OH2           -23.2335466405      -13.7415522861      -24.5252596465  W2        2797            0.0000000000
      8390      2797  TIP3      H1            -23.9103866405      -13.6102422861      -23.8612896465  W2        2797            0.0000000000
      8391      2797  TIP3      H2            -23.7190566405      -13.8966022861      -25.3354896465  W2        2797            0.0000000000
      8392      2798  TIP3      OH2           -30.4831966405      -10.1530722861      -33.7396096465  W2        2798            0.0000000000
      8393      2798  TIP3      H1            -31.0256866405      -10.5326922861      -34.4308496465  W2        2798            0.0000000000
      8394      2798  TIP3      H2            -29.6497066405       -9.9586022861      -34.1681996465  W2        2798            0.0000000000
      8395      2799  TIP3      OH2           -19.9460366405        1.9299877139      -18.2484996465  W2        2799            0.0000000000
      8396      2799  TIP3      H1            -19.7461666405        2.3541777139      -19.0829696465  W2        2799            0.0000000000
      8397      2799  TIP3      H2            -19.2906666405        2.2738077139      -17.6414596465  W2        2799            0.0000000000
      8398      2800  TIP3      OH2           -32.3480566405       -5.5958822861      -18.6404496465  W2        2800            0.0000000000
      8399      2800  TIP3      H1            -31.6158166405       -5.3412922861      -18.0789996465  W2        2800            0.0000000000
      8400      2800  TIP3      H2            -33.1281866405       -5.3913422861      -18.1249096465  W2        2800            0.0000000000
      8401      2801  TIP3      OH2           -26.3187666405      -10.1888822861      -25.9024796465  W2        2801            0.0000000000
      8402      2801  TIP3      H1            -25.7544266405      -10.7352222861      -26.4495196465  W2        2801            0.0000000000
      8403      2801  TIP3      H2            -26.4664266405      -10.7106922861      -25.1137196465  W2        2801            0.0000000000
      8404      2802  TIP3      OH2           -31.3167966405      -14.0522722861      -29.4839996465  W2        2802            0.0000000000
      8405      2802  TIP3      H1            -31.6338466405      -14.9547422861      -29.5194596465  W2        2802            0.0000000000
      8406      2802  TIP3      H2            -30.5353866405      -14.0505322861      -30.0368396465  W2        2802            0.0000000000
      8407      2803  TIP3      OH2           -27.6921766405      -11.8002722861      -23.4884396465  W2        2803            0.0000000000
      8408      2803  TIP3      H1            -28.5276466405      -11.3463222861      -23.3781996465  W2        2803            0.0000000000
      8409      2803  TIP3      H2            -27.1681166405      -11.5244222861      -22.7364496465  W2        2803            0.0000000000
      8410      2804  TIP3      OH2           -27.1479166405       -5.5875022861      -31.8037996465  W2        2804            0.0000000000
      8411      2804  TIP3      H1            -27.8928166405       -6.0949722861      -32.1260096465  W2        2804            0.0000000000
      8412      2804  TIP3      H2            -27.2821966405       -5.5387022861      -30.8573196465  W2        2804            0.0000000000
      8413      2805  TIP3      OH2           -19.9980266405       -6.4546822861      -23.0170396465  W2        2805            0.0000000000
      8414      2805  TIP3      H1            -19.3561466405       -5.9980522861      -23.5608196465  W2        2805            0.0000000000
      8415      2805  TIP3      H2            -20.8283366405       -6.3414422861      -23.4796296465  W2        2805            0.0000000000
      8416      2806  TIP3      OH2           -23.2502366405      -12.7735122861      -33.6045396465  W2        2806            0.0000000000
      8417      2806  TIP3      H1            -24.1888166405      -12.6619522861      -33.7556596465  W2        2806            0.0000000000
      8418      2806  TIP3      H2            -22.9530266405      -11.9168222861      -33.2979696465  W2        2806            0.0000000000
      8419      2807  TIP3      OH2           -25.6287066405       -5.4031722861      -20.5668896465  W2        2807            0.0000000000
      8420      2807  TIP3      H1            -25.9740966405       -5.7849322861      -19.7599296465  W2        2807            0.0000000000
      8421      2807  TIP3      H2            -25.8286966405       -4.4698122861      -20.4955996465  W2        2807            0.0000000000
      8422      2808  TIP3      OH2           -22.5318866405      -10.9062422861      -31.9437996465  W2        2808            0.0000000000
      8423      2808  TIP3      H1            -21.6399866405      -11.0437422861      -31.6246796465  W2        2808            0.0000000000
      8424      2808  TIP3      H2            -22.4755266405      -10.1156322861      -32.4804496465  W2        2808            0.0000000000
      8425      2809  TIP3      OH2           -32.0230866405       -6.2925022861      -26.0340096465  W2        2809            0.0000000000
      8426      2809  TIP3      H1            -31.2783666405       -6.2949322861      -26.6353596465  W2        2809            0.0000000000
      8427      2809  TIP3      H2            -31.9454266405       -7.1161222861      -25.5524996465  W2        2809            0.0000000000
      8428      2810  TIP3      OH2           -25.0225066405       -4.1290722861      -32.7783396465  W2        2810            0.0000000000
      8429      2810  TIP3      H1            -25.3176666405       -3.3022822861      -32.3968596465  W2        2810            0.0000000000
      8430      2810  TIP3      H2            -25.7255066405       -4.7483822861      -32.5821996465  W2        2810            0.0000000000
      8431      2811  TIP3      OH2           -35.0151166405       -7.8318122861      -20.7191596465  W2        2811            0.0000000000
      8432      2811  TIP3      H1            -34.7922566405       -8.2498522861      -19.8874096465  W2        2811            0.0000000000
      8433      2811  TIP3      H2            -35.6171066405       -8.4443122861      -21.1418796465  W2        2811            0.0000000000
      8434      2812  TIP3      OH2           -27.9986266405       -8.3148222861      -18.5061896465  W2        2812            0.0000000000
      8435      2812  TIP3      H1            -28.2945466405       -8.4805222861      -19.4012796465  W2        2812            0.0000000000
      8436      2812  TIP3      H2            -27.0671066405       -8.5347922861      -18.5167996465  W2        2812            0.0000000000
      8437      2813  TIP3      OH2           -23.3783466405       -2.9416222861      -20.6163896465  W2        2813            0.0000000000
      8438      2813  TIP3      H1            -24.2789166405       -2.7583622861      -20.8839996465  W2        2813            0.0000000000
      8439      2813  TIP3      H2            -23.3442366405       -2.6826922861      -19.6955096465  W2        2813            0.0000000000
      8440      2814  TIP3      OH2           -17.6470166405      -10.6968322861      -32.2491296465  W2        2814            0.0000000000
      8441      2814  TIP3      H1            -18.2013866405      -11.0930322861      -32.9213796465  W2        2814            0.0000000000
      8442      2814  TIP3      H2            -17.5466566405       -9.7863122861      -32.5267996465  W2        2814            0.0000000000
      8443      2815  TIP3      OH2           -17.6838166405       -4.8966622861      -19.4119796465  W2        2815            0.0000000000
      8444      2815  TIP3      H1            -18.5349666405       -4.6582822861      -19.7793396465  W2        2815            0.0000000000
      8445      2815  TIP3      H2            -17.0934766405       -4.9133422861      -20.1652696465  W2        2815            0.0000000000
      8446      2816  TIP3      OH2           -19.3518466405       -1.9107922861      -31.7839196465  W2        2816            0.0000000000
      8447      2816  TIP3      H1            -19.7247366405       -2.7364122861      -31.4748596465  W2        2816            0.0000000000
      8448      2816  TIP3      H2            -19.0744966405       -2.0938522861      -32.6815796465  W2        2816            0.0000000000
      8449      2817  TIP3      OH2           -22.1914566405       -7.1028422861      -24.7627296465  W2        2817            0.0000000000
      8450      2817  TIP3      H1            -23.1197666405       -7.3346522861      -24.7897996465  W2        2817            0.0000000000
      8451      2817  TIP3      H2            -21.7403466405       -7.8798622861      -25.0928496465  W2        2817            0.0000000000
      8452      2818  TIP3      OH2           -29.6481466405       -2.7746822861      -28.6298596465  W2        2818            0.0000000000
      8453      2818  TIP3      H1            -29.1209266405       -2.0012422861      -28.8299796465  W2        2818            0.0000000000
      8454      2818  TIP3      H2            -30.5282966405       -2.5497622861      -28.9314596465  W2        2818            0.0000000000
      8455      2819  TIP3      OH2           -33.8933766405       -7.9122722861      -34.0426196465  W2        2819            0.0000000000
      8456      2819  TIP3      H1            -33.2773866405       -7.2855522861      -33.6631396465  W2        2819            0.0000000000
      8457      2819  TIP3      H2            -34.7551166405       -7.5962922861      -33.7709696465  W2        2819            0.0000000000
      8458      2820  TIP3      OH2           -28.2209166405       -5.1116922861      -29.0534296465  W2        2820            0.0000000000
      8459      2820  TIP3      H1            -28.4619166405       -4.1862522861      -29.0118996465  W2        2820            0.0000000000
      8460      2820  TIP3      H2            -28.9615566405       -5.5705622861      -28.6570396465  W2        2820            0.0000000000
      8461      2821  TIP3      OH2           -27.7062566405       -0.9623322861      -22.7383196465  W2        2821            0.0000000000
      8462      2821  TIP3      H1            -27.3437866405       -0.1077722861      -22.9718796465  W2        2821            0.0000000000
      8463      2821  TIP3      H2            -27.1747366405       -1.2541722861      -21.9976896465  W2        2821            0.0000000000
      8464      2822  TIP3      OH2           -29.5378366405       -0.0899322861      -29.5082096465  W2        2822            0.0000000000
      8465      2822  TIP3      H1            -30.4877866405        0.0158077139      -29.4568796465  W2        2822            0.0000000000
      8466      2822  TIP3      H2            -29.1860266405        0.7308077139      -29.1634596465  W2        2822            0.0000000000
      8467      2823  TIP3      OH2           -24.1621766405       -4.8632622861      -23.0377596465  W2        2823            0.0000000000
      8468      2823  TIP3      H1            -24.5880466405       -5.0910922861      -22.2113596465  W2        2823            0.0000000000
      8469      2823  TIP3      H2            -23.5815966405       -5.6020822861      -23.2202296465  W2        2823            0.0000000000
      8470      2824  TIP3      OH2           -21.9592866405       -3.9342122861      -33.9638596465  W2        2824            0.0000000000
      8471      2824  TIP3      H1            -21.6059766405       -4.3142322861      -33.1595096465  W2        2824            0.0000000000
      8472      2824  TIP3      H2            -22.9079366405       -4.0277322861      -33.8769296465  W2        2824            0.0000000000
      8473      2825  TIP3      OH2           -21.5037566405       -0.3113122861      -20.5682796465  W2        2825            0.0000000000
      8474      2825  TIP3      H1            -22.1054366405       -0.8670222861      -21.0636496465  W2        2825            0.0000000000
      8475      2825  TIP3      H2            -21.2223866405        0.3556677139      -21.1945396465  W2        2825            0.0000000000
      8476      2826  TIP3      OH2           -17.4558466405        0.5450377139      -33.7628396465  W2        2826            0.0000000000
      8477      2826  TIP3      H1            -16.7120566405        1.1310877139      -33.9026796465  W2        2826            0.0000000000
      8478      2826  TIP3      H2            -18.1500366405        1.1136177139      -33.4295996465  W2        2826            0.0000000000
      8479      2827  TIP3      OH2           -33.3811666405      -13.0785422861      -21.1610196465  W2        2827            0.0000000000
      8480      2827  TIP3      H1            -34.2739366405      -12.7400022861      -21.2286196465  W2        2827            0.0000000000
      8481      2827  TIP3      H2            -33.4798866405      -13.9339322861      -20.7429396465  W2        2827            0.0000000000
      8482      2828  TIP3      OH2           -21.0933566405       -5.2620122861      -31.7370696465  W2        2828            0.0000000000
      8483      2828  TIP3      H1            -21.3705966405       -5.9900822861      -31.1809596465  W2        2828            0.0000000000
      8484      2828  TIP3      H2            -20.1660566405       -5.1428122861      -31.5318096465  W2        2828            0.0000000000
      8485      2829  TIP3      OH2           -33.7299666405       -1.2741022861      -22.7260796465  W2        2829            0.0000000000
      8486      2829  TIP3      H1            -33.5129366405       -2.2058622861      -22.7571096465  W2        2829            0.0000000000
      8487      2829  TIP3      H2            -33.4836166405       -0.9996022861      -21.8427996465  W2        2829            0.0000000000
      8488      2830  TIP3      OH2           -27.8685066405       -2.8226022861      -35.5168596465  W2        2830            0.0000000000
      8489      2830  TIP3      H1            -27.6295266405       -3.5707922861      -36.0639696465  W2        2830            0.0000000000
      8490      2830  TIP3      H2            -28.1373766405       -3.2104322861      -34.6840796465  W2        2830            0.0000000000
      8491      2831  TIP3      OH2           -28.9314466405       -3.2522222861      -33.0605996465  W2        2831            0.0000000000
      8492      2831  TIP3      H1            -28.7846466405       -3.7722422861      -32.2705096465  W2        2831            0.0000000000
      8493      2831  TIP3      H2            -28.9342766405       -2.3454622861      -32.7540096465  W2        2831            0.0000000000
      8494      2832  TIP3      OH2           -32.4783366405       -5.9998922861      -32.5500596465  W2        2832            0.0000000000
      8495      2832  TIP3      H1            -33.1644066405       -5.6476422861      -31.9830896465  W2        2832            0.0000000000
      8496      2832  TIP3      H2            -31.9555466405       -5.2369322861      -32.7966296465  W2        2832            0.0000000000
      8497      2833  TIP3      OH2           -24.6468266405      -13.3375122861      -22.2711596465  W2        2833            0.0000000000
      8498      2833  TIP3      H1            -23.9480366405      -13.2636422861      -21.6211896465  W2        2833            0.0000000000
      8499      2833  TIP3      H2            -25.0276866405      -14.2020122861      -22.1168696465  W2        2833            0.0000000000
      8500      2834  TIP3      OH2           -23.8623366405      -13.6853422861      -31.1739296465  W2        2834            0.0000000000
      8501      2834  TIP3      H1            -23.6425066405      -13.2138022861      -31.9773896465  W2        2834            0.0000000000
      8502      2834  TIP3      H2            -23.3039366405      -13.2910822861      -30.5038696465  W2        2834            0.0000000000
      8503      2835  TIP3      OH2           -26.1937266405       -1.5548622861      -32.3111796465  W2        2835            0.0000000000
      8504      2835  TIP3      H1            -27.0101166405       -1.0578922861      -32.2587496465  W2        2835            0.0000000000
      8505      2835  TIP3      H2            -25.6640966405       -1.0795122861      -32.9512996465  W2        2835            0.0000000000
      8506      2836  TIP3      OH2           -26.6623466405      -11.9574622861      -30.3390896465  W2        2836            0.0000000000
      8507      2836  TIP3      H1            -25.8500866405      -11.4531422861      -30.2929196465  W2        2836            0.0000000000
      8508      2836  TIP3      H2            -26.9070466405      -12.1024922861      -29.4251296465  W2        2836            0.0000000000
      8509      2837  TIP3      OH2           -26.1267066405      -10.9711922861      -21.1544296465  W2        2837            0.0000000000
      8510      2837  TIP3      H1            -26.0076766405      -10.3976522861      -20.3973896465  W2        2837            0.0000000000
      8511      2837  TIP3      H2            -25.4712466405      -11.6592522861      -21.0396496465  W2        2837            0.0000000000
      8512      2838  TIP3      OH2           -25.7786766405      -14.8761622861      -29.4009796465  W2        2838            0.0000000000
      8513      2838  TIP3      H1            -26.1253266405      -14.2591022861      -28.7565496465  W2        2838            0.0000000000
      8514      2838  TIP3      H2            -25.1199866405      -14.3755922861      -29.8824296465  W2        2838            0.0000000000
      8515      2839  TIP3      OH2           -28.8554166405       -0.5111422861      -32.3294896465  W2        2839            0.0000000000
      8516      2839  TIP3      H1            -28.6945466405        0.2886077139      -32.8302296465  W2        2839            0.0000000000
      8517      2839  TIP3      H2            -29.0526366405       -0.2045422861      -31.4444296465  W2        2839            0.0000000000
      8518      2840  TIP3      OH2           -30.1209766405      -13.8132222861      -32.7137296465  W2        2840            0.0000000000
      8519      2840  TIP3      H1            -30.2044966405      -12.9249122861      -32.3670896465  W2        2840            0.0000000000
      8520      2840  TIP3      H2            -29.2309466405      -14.0785522861      -32.4820496465  W2        2840            0.0000000000
      8521      2841  TIP3      OH2           -19.9221266405      -13.0641622861      -20.3194596465  W2        2841            0.0000000000
      8522      2841  TIP3      H1            -20.8385466405      -12.8019922861      -20.4070896465  W2        2841            0.0000000000
      8523      2841  TIP3      H2            -19.5866266405      -13.0672622861      -21.2159296465  W2        2841            0.0000000000
      8524      2842  TIP3      OH2           -21.3200266405       -9.3140622861      -26.2237296465  W2        2842            0.0000000000
      8525      2842  TIP3      H1            -22.1175866405       -9.7290422861      -26.5522296465  W2        2842            0.0000000000
      8526      2842  TIP3      H2            -20.8749166405      -10.0046922861      -25.7326796465  W2        2842            0.0000000000
      8527      2843  TIP3      OH2           -31.8624466405       -3.3860022861      -33.6532796465  W2        2843            0.0000000000
      8528      2843  TIP3      H1            -31.2702966405       -2.6865222861      -33.3770396465  W2        2843            0.0000000000
      8529      2843  TIP3      H2            -31.4031466405       -3.8190522861      -34.3728196465  W2        2843            0.0000000000
      8530      2844  TIP3      OH2           -33.5465266405      -10.7217022861      -34.5373396465  W2        2844            0.0000000000
      8531      2844  TIP3      H1            -33.5912666405       -9.7823922861      -34.3586396465  W2        2844            0.0000000000
      8532      2844  TIP3      H2            -34.4342066405      -10.9572122861      -34.8071296465  W2        2844            0.0000000000
      8533      2845  TIP3      OH2           -20.2335666405       -0.0578122861      -24.6013796465  W2        2845            0.0000000000
      8534      2845  TIP3      H1            -20.3891366405        0.6206277139      -25.2584496465  W2        2845            0.0000000000
      8535      2845  TIP3      H2            -19.3009266405        0.0141177139      -24.3983196465  W2        2845            0.0000000000
      8536      2846  TIP3      OH2           -32.7383266405      -15.9400422861      -25.8642396465  W2        2846            0.0000000000
      8537      2846  TIP3      H1            -32.9673466405      -15.8807922861      -26.7917396465  W2        2846            0.0000000000
      8538      2846  TIP3      H2            -33.1809866405      -16.7314922861      -25.5578296465  W2        2846            0.0000000000
      8539      2847  TIP3      OH2           -33.8079966405       -1.9993322861      -29.7036596465  W2        2847            0.0000000000
      8540      2847  TIP3      H1            -34.6401366405       -1.5270622861      -29.6765196465  W2        2847            0.0000000000
      8541      2847  TIP3      H2            -33.2621666405       -1.4895722861      -30.3023496465  W2        2847            0.0000000000
      8542      2848  TIP3      OH2           -34.5196266405        0.6130377139      -18.3738596465  W2        2848            0.0000000000
      8543      2848  TIP3      H1            -33.9794066405        0.3964377139      -17.6139396465  W2        2848            0.0000000000
      8544      2848  TIP3      H2            -35.0008266405       -0.1923622861      -18.5636096465  W2        2848            0.0000000000
      8545      2849  TIP3      OH2           -29.9222866405       -0.4675222861      -16.7534396465  W2        2849            0.0000000000
      8546      2849  TIP3      H1            -29.1545666405       -0.9264422861      -16.4125196465  W2        2849            0.0000000000
      8547      2849  TIP3      H2            -29.9436666405       -0.6935422861      -17.6833196465  W2        2849            0.0000000000
      8548      2850  TIP3      OH2           -25.8303266405       -0.9594622861      -35.3782596465  W2        2850            0.0000000000
      8549      2850  TIP3      H1            -26.4742266405       -1.5906022861      -35.0568896465  W2        2850            0.0000000000
      8550      2850  TIP3      H2            -25.0684966405       -1.4906622861      -35.6099096465  W2        2850            0.0000000000
      8551      2851  TIP3      OH2           -23.3454166405       -2.0874122861      -18.0242896465  W2        2851            0.0000000000
      8552      2851  TIP3      H1            -23.6964666405       -2.9441122861      -17.7812496465  W2        2851            0.0000000000
      8553      2851  TIP3      H2            -22.6190966405       -1.9447422861      -17.4173896465  W2        2851            0.0000000000
      8554      2852  TIP3      OH2           -21.2260366405       -1.1424722861      -35.1444596465  W2        2852            0.0000000000
      8555      2852  TIP3      H1            -20.9429966405       -1.9369522861      -34.6917696465  W2        2852            0.0000000000
      8556      2852  TIP3      H2            -20.4862466405       -0.9093722861      -35.7053496465  W2        2852            0.0000000000
      8557      2853  TIP3      OH2           -34.6126766405       -5.5765522861      -17.4194296465  W2        2853            0.0000000000
      8558      2853  TIP3      H1            -34.4686266405       -6.4784822861      -17.7057596465  W2        2853            0.0000000000
      8559      2853  TIP3      H2            -35.3849366405       -5.2903422861      -17.9071996465  W2        2853            0.0000000000
      8560      2854  TIP3      OH2           -30.2713066405       -5.2329822861      -35.2869696465  W2        2854            0.0000000000
      8561      2854  TIP3      H1            -30.2068966405       -6.0270222861      -34.7563296465  W2        2854            0.0000000000
      8562      2854  TIP3      H2            -29.6183866405       -5.3517022861      -35.9767696465  W2        2854            0.0000000000
      8563      2855  TIP3      OH2           -27.9570666405       -5.6067422861      -17.9867896465  W2        2855            0.0000000000
      8564      2855  TIP3      H1            -28.2856866405       -5.3359322861      -18.8440496465  W2        2855            0.0000000000
      8565      2855  TIP3      H2            -27.8052466405       -6.5477622861      -18.0742896465  W2        2855            0.0000000000
      8566      2856  TIP3      OH2           -24.9189666405       -4.1858122861      -35.5511696465  W2        2856            0.0000000000
      8567      2856  TIP3      H1            -25.1875566405       -4.0056022861      -34.6502796465  W2        2856            0.0000000000
      8568      2856  TIP3      H2            -25.1254066405       -5.1111922861      -35.6825896465  W2        2856            0.0000000000
      8569      2857  TIP3      OH2           -22.2225466405       -5.6910122861      -20.6035596465  W2        2857            0.0000000000
      8570      2857  TIP3      H1            -21.4770666405       -5.1026422861      -20.7231596465  W2        2857            0.0000000000
      8571      2857  TIP3      H2            -22.9798666405       -5.1090422861      -20.5402496465  W2        2857            0.0000000000
      8572      2858  TIP3      OH2           -33.7800266405       -8.3762222861      -17.9994996465  W2        2858            0.0000000000
      8573      2858  TIP3      H1            -33.3719066405       -9.2335622861      -18.1204396465  W2        2858            0.0000000000
      8574      2858  TIP3      H2            -34.0402666405       -8.3620922861      -17.0784696465  W2        2858            0.0000000000
      8575      2859  TIP3      OH2           -29.1219266405       -7.2603622861      -32.9811696465  W2        2859            0.0000000000
      8576      2859  TIP3      H1            -29.5817266405       -7.7445322861      -32.2953196465  W2        2859            0.0000000000
      8577      2859  TIP3      H2            -28.8670566405       -7.9288222861      -33.6171196465  W2        2859            0.0000000000
      8578      2860  TIP3      OH2           -29.8329966405       -9.3676522861      -20.6252096465  W2        2860            0.0000000000
      8579      2860  TIP3      H1            -30.4513866405       -8.6929922861      -20.3447396465  W2        2860            0.0000000000
      8580      2860  TIP3      H2            -29.4888766405       -9.0462622861      -21.4585896465  W2        2860            0.0000000000
      8581      2861  TIP3      OH2           -28.0508866405       -9.0171822861      -34.7188496465  W2        2861            0.0000000000
      8582      2861  TIP3      H1            -28.2313866405       -9.1720622861      -35.6460196465  W2        2861            0.0000000000
      8583      2861  TIP3      H2            -27.1008366405       -8.9093122861      -34.6740596465  W2        2861            0.0000000000
      8584      2862  TIP3      OH2           -24.8131766405       -6.8961222861      -17.3477296465  W2        2862            0.0000000000
      8585      2862  TIP3      H1            -23.8600566405       -6.8122122861      -17.3751296465  W2        2862            0.0000000000
      8586      2862  TIP3      H2            -24.9737166405       -7.6079422861      -16.7282396465  W2        2862            0.0000000000
      8587      2863  TIP3      OH2           -18.6610566405       -6.6627622861      -35.2730396465  W2        2863            0.0000000000
      8588      2863  TIP3      H1            -18.9345766405       -7.0872122861      -36.0862096465  W2        2863            0.0000000000
      8589      2863  TIP3      H2            -18.6216466405       -5.7313122861      -35.4899996465  W2        2863            0.0000000000
      8590      2864  TIP3      OH2           -29.4936266405      -12.0125722861      -19.5428996465  W2        2864            0.0000000000
      8591      2864  TIP3      H1            -29.3435366405      -12.7414422861      -20.1449296465  W2        2864            0.0000000000
      8592      2864  TIP3      H2            -29.4913866405      -11.2354022861      -20.1016796465  W2        2864            0.0000000000
      8593      2865  TIP3      OH2           -29.0810566405      -13.6429922861      -22.0501596465  W2        2865            0.0000000000
      8594      2865  TIP3      H1            -28.5453066405      -13.1913222861      -22.7022296465  W2        2865            0.0000000000
      8595      2865  TIP3      H2            -29.9330966405      -13.7510122861      -22.4727496465  W2        2865            0.0000000000
      8596      2866  TIP3      OH2           -27.4992166405       -8.2033722861      -21.8106396465  W2        2866            0.0000000000
      8597      2866  TIP3      H1            -26.7487366405       -8.3596222861      -22.3838596465  W2        2866            0.0000000000
      8598      2866  TIP3      H2            -27.8383866405       -7.3517122861      -22.0860896465  W2        2866            0.0000000000
      8599      2867  TIP3      OH2           -23.0835966405      -10.3881922861      -16.7821096465  W2        2867            0.0000000000
      8600      2867  TIP3      H1            -22.8914666405      -11.3192522861      -16.8936596465  W2        2867            0.0000000000
      8601      2867  TIP3      H2            -22.2259666405       -9.9632422861      -16.7925696465  W2        2867            0.0000000000
      8602      2868  TIP3      OH2           -21.7668766405       -7.5996722861      -18.7048396465  W2        2868            0.0000000000
      8603      2868  TIP3      H1            -22.0483766405       -6.8902122861      -19.2824596465  W2        2868            0.0000000000
      8604      2868  TIP3      H2            -20.8244466405       -7.6723722861      -18.8557196465  W2        2868            0.0000000000
      8605      2869  TIP3      OH2           -31.0149966405      -10.8142222861      -17.6313396465  W2        2869            0.0000000000
      8606      2869  TIP3      H1            -31.7820966405      -11.3467422861      -17.8415796465  W2        2869            0.0000000000
      8607      2869  TIP3      H2            -30.3360966405      -11.1241822861      -18.2307096465  W2        2869            0.0000000000
      8608      2870  TIP3      OH2           -28.2755066405      -16.1864222861      -21.6187996465  W2        2870            0.0000000000
      8609      2870  TIP3      H1            -28.3735466405      -15.2401022861      -21.7241796465  W2        2870            0.0000000000
      8610      2870  TIP3      H2            -29.0178866405      -16.5590422861      -22.0944496465  W2        2870            0.0000000000
      8611      2871  TIP3      OH2           -27.0114566405      -11.8648822861      -18.0549596465  W2        2871            0.0000000000
      8612      2871  TIP3      H1            -27.2469166405      -12.0842122861      -17.1534696465  W2        2871            0.0000000000
      8613      2871  TIP3      H2            -27.7947666405      -12.0717622861      -18.5647096465  W2        2871            0.0000000000
      8614      2872  TIP3      OH2           -24.2957966405      -12.7375322861      -18.9796096465  W2        2872            0.0000000000
      8615      2872  TIP3      H1            -25.2432566405      -12.7055622861      -18.8472796465  W2        2872            0.0000000000
      8616      2872  TIP3      H2            -23.9831266405      -13.3628222861      -18.3257896465  W2        2872            0.0000000000
      8617      2873  TIP3      OH2           -22.6616466405      -14.1034222861      -16.9744196465  W2        2873            0.0000000000
      8618      2873  TIP3      H1            -22.7584666405      -15.0556922861      -16.9802296465  W2        2873            0.0000000000
      8619      2873  TIP3      H2            -22.9833366405      -13.8347422861      -16.1138696465  W2        2873            0.0000000000
      8620      2874  TIP3      OH2           -32.8347166405      -12.8938422861      -17.9268696465  W2        2874            0.0000000000
      8621      2874  TIP3      H1            -32.6229766405      -13.6002322861      -18.5371196465  W2        2874            0.0000000000
      8622      2874  TIP3      H2            -32.9459666405      -13.3312422861      -17.0827496465  W2        2874            0.0000000000
      8623      2875  TIP3      OH2           -28.0536966405      -16.8926822861      -18.9475196465  W2        2875            0.0000000000
      8624      2875  TIP3      H1            -27.3418566405      -17.5324622861      -18.9616096465  W2        2875            0.0000000000
      8625      2875  TIP3      H2            -28.1546566405      -16.6258522861      -19.8612096465  W2        2875            0.0000000000
      8626      2876  TIP3      OH2           -27.6999466405      -15.2098422861      -16.8938896465  W2        2876            0.0000000000
      8627      2876  TIP3      H1            -27.8317266405      -15.6854622861      -17.7140396465  W2        2876            0.0000000000
      8628      2876  TIP3      H2            -28.2992066405      -14.4654822861      -16.9491796465  W2        2876            0.0000000000
      8629      2877  TIP3      OH2           -28.1537166405        1.6731877139      -33.7174896465  W2        2877            0.0000000000
      8630      2877  TIP3      H1            -27.2206466405        1.8310577139      -33.5736496465  W2        2877            0.0000000000
      8631      2877  TIP3      H2            -28.4178366405        2.3484877139      -34.3423396465  W2        2877            0.0000000000
      8632      2878  TIP3      OH2           -34.5852266405       -3.6904322861      -34.2346796465  W2        2878            0.0000000000
      8633      2878  TIP3      H1            -33.6713066405       -3.6115422861      -33.9612896465  W2        2878            0.0000000000
      8634      2878  TIP3      H2            -34.5779166405       -4.3774722861      -34.9011196465  W2        2878            0.0000000000
      8635      2879  TIP3      OH2           -35.9361666405        1.7024177139      -29.1572896465  W2        2879            0.0000000000
      8636      2879  TIP3      H1            -36.5834566405        1.2405877139      -29.6901696465  W2        2879            0.0000000000
      8637      2879  TIP3      H2            -35.5817066405        1.0307477139      -28.5746696465  W2        2879            0.0000000000
      8638      2880  TIP3      OH2           -35.0662466405       -0.2168822861      -27.3526696465  W2        2880            0.0000000000
      8639      2880  TIP3      H1            -35.4005666405       -1.0971522861      -27.1806496465  W2        2880            0.0000000000
      8640      2880  TIP3      H2            -34.8440066405        0.1286177139      -26.4881096465  W2        2880            0.0000000000
      8641      2881  TIP3      OH2           -17.5177666405        0.5927577139      -24.3721896465  W2        2881            0.0000000000
      8642      2881  TIP3      H1            -17.5390966405        0.7775977139      -23.4332496465  W2        2881            0.0000000000
      8643      2881  TIP3      H2            -16.8271466405        1.1611577139      -24.7130496465  W2        2881            0.0000000000
      8644      2882  TIP3      OH2           -17.9544766405        0.1598677139      -21.4502796465  W2        2882            0.0000000000
      8645      2882  TIP3      H1            -18.4416066405       -0.5757222861      -21.8215396465  W2        2882            0.0000000000
      8646      2882  TIP3      H2            -17.4052066405       -0.2337422861      -20.7723396465  W2        2882            0.0000000000
      8647      2883  TIP3      OH2           -19.5037466405       -4.0503222861      -16.8122496465  W2        2883            0.0000000000
      8648      2883  TIP3      H1            -20.3696366405       -4.1553522861      -16.4180196465  W2        2883            0.0000000000
      8649      2883  TIP3      H2            -19.1271566405       -3.2919922861      -16.3657796465  W2        2883            0.0000000000
      8650      2884  TIP3      OH2           -18.2027766405       -5.7939522861      -31.2979996465  W2        2884            0.0000000000
      8651      2884  TIP3      H1            -17.3526366405       -5.3728622861      -31.1708396465  W2        2884            0.0000000000
      8652      2884  TIP3      H2            -18.1972666405       -6.5339422861      -30.6908596465  W2        2884            0.0000000000
      8653      2885  TIP3      OH2           -17.8082166405       -7.7402122861      -29.4744296465  W2        2885            0.0000000000
      8654      2885  TIP3      H1            -18.5347566405       -8.2199522861      -29.0766696465  W2        2885            0.0000000000
      8655      2885  TIP3      H2            -17.2268866405       -7.5347422861      -28.7422696465  W2        2885            0.0000000000
      8656      2886  TIP3      OH2           -18.0490966405       -4.9554622861      -24.5266696465  W2        2886            0.0000000000
      8657      2886  TIP3      H1            -17.2156766405       -5.3334622861      -24.8073096465  W2        2886            0.0000000000
      8658      2886  TIP3      H2            -17.9370666405       -4.0123422861      -24.6457596465  W2        2886            0.0000000000
      8659      2887  TIP3      OH2           -19.5628666405       -2.0777122861      -22.2198296465  W2        2887            0.0000000000
      8660      2887  TIP3      H1            -20.2103366405       -1.7525622861      -21.5943096465  W2        2887            0.0000000000
      8661      2887  TIP3      H2            -20.0804666405       -2.5179422861      -22.8939996465  W2        2887            0.0000000000
      8662      2888  TIP3      OH2           -17.5399066405       -7.8393622861      -33.0832996465  W2        2888            0.0000000000
      8663      2888  TIP3      H1            -18.0617966405       -7.4829522861      -33.8022096465  W2        2888            0.0000000000
      8664      2888  TIP3      H2            -17.5729866405       -7.1645822861      -32.4052096465  W2        2888            0.0000000000
      8665      2889  TIP3      OH2           -19.1910066405      -10.5998022861      -34.5325896465  W2        2889            0.0000000000
      8666      2889  TIP3      H1            -19.0945666405       -9.9331022861      -35.2126196465  W2        2889            0.0000000000
      8667      2889  TIP3      H2            -19.3310466405      -11.4151722861      -35.0140396465  W2        2889            0.0000000000
      8668      2890  TIP3      OH2           -20.0215366405       -9.2195622861      -28.9115596465  W2        2890            0.0000000000
      8669      2890  TIP3      H1            -20.1716566405      -10.1647022861      -28.9317796465  W2        2890            0.0000000000
      8670      2890  TIP3      H2            -20.3750866405       -8.9384222861      -28.0676496465  W2        2890            0.0000000000
      8671      2891  TIP3      OH2           -34.9862966405       -7.1413422861      -24.9011796465  W2        2891            0.0000000000
      8672      2891  TIP3      H1            -34.8020066405       -7.2231722861      -25.8368896465  W2        2891            0.0000000000
      8673      2891  TIP3      H2            -34.1370066405       -7.2656422861      -24.4775396465  W2        2891            0.0000000000
      8674      2892  TIP3      OH2           -19.1652466405       -7.2492322861      -19.2727296465  W2        2892            0.0000000000
      8675      2892  TIP3      H1            -18.5825166405       -7.9840022861      -19.0810096465  W2        2892            0.0000000000
      8676      2892  TIP3      H2            -18.6013166405       -6.4772022861      -19.2261496465  W2        2892            0.0000000000
      8677      2893  TIP3      OH2           -17.6685366405       -9.3466522861      -18.5881896465  W2        2893            0.0000000000
      8678      2893  TIP3      H1            -18.5318666405       -9.7254422861      -18.7537196465  W2        2893            0.0000000000
      8679      2893  TIP3      H2            -17.0641666405      -10.0851722861      -18.6626096465  W2        2893            0.0000000000
      8680      2894  TIP3      OH2           -19.9436266405      -13.1918222861      -35.4150396465  W2        2894            0.0000000000
      8681      2894  TIP3      H1            -19.3330466405      -13.5631422861      -34.7782196465  W2        2894            0.0000000000
      8682      2894  TIP3      H2            -20.7804766405      -13.6131322861      -35.2190396465  W2        2894            0.0000000000
      8683      2895  TIP3      OH2           -20.3110566405      -11.6369822861      -30.4490496465  W2        2895            0.0000000000
      8684      2895  TIP3      H1            -20.0313466405      -12.5439422861      -30.3248796465  W2        2895            0.0000000000
      8685      2895  TIP3      H2            -19.5518866405      -11.2028322861      -30.8381296465  W2        2895            0.0000000000
      8686      2896  TIP3      OH2           -19.6992266405      -11.0552422861      -25.0131596465  W2        2896            0.0000000000
      8687      2896  TIP3      H1            -18.7664266405      -10.8432522861      -25.0475596465  W2        2896            0.0000000000
      8688      2896  TIP3      H2            -19.9344766405      -10.9540322861      -24.0908596465  W2        2896            0.0000000000
      8689      2897  TIP3      OH2           -19.6700366405      -10.3187122861      -22.2372196465  W2        2897            0.0000000000
      8690      2897  TIP3      H1            -20.5129066405      -10.0506722861      -21.8712396465  W2        2897            0.0000000000
      8691      2897  TIP3      H2            -19.2276066405       -9.4965222861      -22.4481096465  W2        2897            0.0000000000
      8692      2898  TIP3      OH2           -35.3888166405      -11.8708422861      -18.7602996465  W2        2898            0.0000000000
      8693      2898  TIP3      H1            -34.4693266405      -11.9930122861      -18.5239896465  W2        2898            0.0000000000
      8694      2898  TIP3      H2            -35.8383666405      -12.6208722861      -18.3709496465  W2        2898            0.0000000000
      8695      2899  TIP3      OH2           -17.3868766405      -16.3386922861      -16.8837196465  W2        2899            0.0000000000
      8696      2899  TIP3      H1            -17.0371766405      -16.9923422861      -17.4892496465  W2        2899            0.0000000000
      8697      2899  TIP3      H2            -17.2399266405      -15.5012822861      -17.3234596465  W2        2899            0.0000000000
      8698      2900  TIP3      OH2           -19.6975766405      -14.3740522861      -30.4008496465  W2        2900            0.0000000000
      8699      2900  TIP3      H1            -19.5150766405      -14.8229022861      -29.5753496465  W2        2900            0.0000000000
      8700      2900  TIP3      H2            -20.2972866405      -14.9586122861      -30.8643896465  W2        2900            0.0000000000
      8701      2901  TIP3      OH2           -34.1675666405      -13.5586822861      -25.8690096465  W2        2901            0.0000000000
      8702      2901  TIP3      H1            -33.7224066405      -14.3504322861      -25.5670396465  W2        2901            0.0000000000
      8703      2901  TIP3      H2            -33.7012666405      -12.8421622861      -25.4384496465  W2        2901            0.0000000000
      8704      2902  TIP3      OH2           -35.8635366405      -10.5593822861      -24.7999896465  W2        2902            0.0000000000
      8705      2902  TIP3      H1            -35.3715566405      -10.7803322861      -25.5907896465  W2        2902            0.0000000000
      8706      2902  TIP3      H2            -35.5014466405       -9.7190422861      -24.5190396465  W2        2902            0.0000000000
      8707      2903  TIP3      OH2           -17.8671566405      -14.2292322861      -18.5345896465  W2        2903            0.0000000000
      8708      2903  TIP3      H1            -18.7845866405      -13.9585222861      -18.5702396465  W2        2903            0.0000000000
      8709      2903  TIP3      H2            -17.7442166405      -14.7643922861      -19.3186196465  W2        2903            0.0000000000
      8710      2904  TIP3      OH2           -17.8309566405      -14.3062422861      -33.8728196465  W2        2904            0.0000000000
      8711      2904  TIP3      H1            -17.4186966405      -15.0276722861      -34.3480196465  W2        2904            0.0000000000
      8712      2904  TIP3      H2            -17.1493066405      -13.6367822861      -33.8143896465  W2        2904            0.0000000000
      8713      2905  TIP3      OH2           -35.5498866405      -14.3014722861      -30.7457496465  W2        2905            0.0000000000
      8714      2905  TIP3      H1            -36.4750466405      -14.0928122861      -30.8751996465  W2        2905            0.0000000000
      8715      2905  TIP3      H2            -35.0958966405      -13.8173922861      -31.4355196465  W2        2905            0.0000000000
      8716      2906  TIP3      OH2           -20.7791666405        0.6826977139      -28.8000096465  W2        2906            0.0000000000
      8717      2906  TIP3      H1            -20.1268766405        0.3349077139      -29.4080996465  W2        2906            0.0000000000
      8718      2906  TIP3      H2            -20.2687866405        1.1710177139      -28.1540396465  W2        2906            0.0000000000
      8719      2907  TIP3      OH2           -35.5863466405      -15.5635722861      -22.4014996465  W2        2907            0.0000000000
      8720      2907  TIP3      H1            -36.2512966405      -15.8095422861      -21.7584096465  W2        2907            0.0000000000
      8721      2907  TIP3      H2            -36.0292166405      -14.9415322861      -22.9786996465  W2        2907            0.0000000000
      8722      2908  TIP3      OH2           -33.3944166405       -2.3881622861      -18.2569196465  W2        2908            0.0000000000
      8723      2908  TIP3      H1            -34.2151666405       -2.2135122861      -18.7174496465  W2        2908            0.0000000000
      8724      2908  TIP3      H2            -33.6466366405       -2.4616922861      -17.3364796465  W2        2908            0.0000000000
      8725      2909  TIP3      OH2           -30.4401266405       -1.4140422861      -21.9985196465  W2        2909            0.0000000000
      8726      2909  TIP3      H1            -30.8650166405       -0.6041922861      -22.2810596465  W2        2909            0.0000000000
      8727      2909  TIP3      H2            -29.5358466405       -1.3286322861      -22.3005396465  W2        2909            0.0000000000
      8728      2910  TIP3      OH2           -26.1289866405       -0.0150422861      -19.0391496465  W2        2910            0.0000000000
      8729      2910  TIP3      H1            -25.9442366405       -0.3484322861      -18.1611196465  W2        2910            0.0000000000
      8730      2910  TIP3      H2            -25.2825366405        0.2948177139      -19.3612296465  W2        2910            0.0000000000
      8731      2911  TIP3      OH2           -23.7839466405        1.2708477139      -19.7950096465  W2        2911            0.0000000000
      8732      2911  TIP3      H1            -23.1070566405        0.6380777139      -20.0350896465  W2        2911            0.0000000000
      8733      2911  TIP3      H2            -23.4620666405        1.6718977139      -18.9876796465  W2        2911            0.0000000000
      8734      2912  TIP3      OH2           -18.8665666405      -16.1396022861      -20.7155096465  W2        2912            0.0000000000
      8735      2912  TIP3      H1            -19.6792166405      -15.8145722861      -21.1030396465  W2        2912            0.0000000000
      8736      2912  TIP3      H2            -18.6337166405      -16.8997522861      -21.2485996465  W2        2912            0.0000000000
      8737      2913  TIP3      OH2           -33.0384566405        1.8423477139      -21.9509896465  W2        2913            0.0000000000
      8738      2913  TIP3      H1            -33.7588166405        2.2824477139      -22.4022196465  W2        2913            0.0000000000
      8739      2913  TIP3      H2            -33.4040566405        1.5918177139      -21.1025896465  W2        2913            0.0000000000
      8740      2914  TIP3      OH2           -30.5711966405        1.4427377139      -22.9212696465  W2        2914            0.0000000000
      8741      2914  TIP3      H1            -31.4359766405        1.5145877139      -22.5172596465  W2        2914            0.0000000000
      8742      2914  TIP3      H2            -30.6262966405        1.9894677139      -23.7050196465  W2        2914            0.0000000000
      8743      2915  TIP3      OH2           -25.8606366405        1.3306277139      -23.7456696465  W2        2915            0.0000000000
      8744      2915  TIP3      H1            -26.3172366405        1.8595977139      -24.3998296465  W2        2915            0.0000000000
      8745      2915  TIP3      H2            -25.6978366405        1.9337677139      -23.0204396465  W2        2915            0.0000000000
      8746      2916  TIP3      OH2           -23.5330066405        0.2085877139      -22.8006396465  W2        2916            0.0000000000
      8747      2916  TIP3      H1            -24.4376366405        0.3736077139      -23.0664296465  W2        2916            0.0000000000
      8748      2916  TIP3      H2            -23.1041466405        1.0618077139      -22.8662996465  W2        2916            0.0000000000
      8749      2917  TIP3      OH2           -20.9288166405        1.7784977139      -22.5058596465  W2        2917            0.0000000000
      8750      2917  TIP3      H1            -21.1106166405        2.6943877139      -22.7163696465  W2        2917            0.0000000000
      8751      2917  TIP3      H2            -20.7520366405        1.3682077139      -23.3523996465  W2        2917            0.0000000000
      8752      2918  TIP3      OH2           -33.6236466405        0.4655977139      -25.0408096465  W2        2918            0.0000000000
      8753      2918  TIP3      H1            -33.6420466405        0.0401077139      -24.1835796465  W2        2918            0.0000000000
      8754      2918  TIP3      H2            -32.8188566405        0.1470977139      -25.4495896465  W2        2918            0.0000000000
      8755      2919  TIP3      OH2           -31.4823366405       -0.8245322861      -26.3858196465  W2        2919            0.0000000000
      8756      2919  TIP3      H1            -31.7012666405       -1.7407922861      -26.2162196465  W2        2919            0.0000000000
      8757      2919  TIP3      H2            -30.6581166405       -0.6844922861      -25.9196796465  W2        2919            0.0000000000
      8758      2920  TIP3      OH2           -28.9450866405       -0.3546022861      -25.5370196465  W2        2920            0.0000000000
      8759      2920  TIP3      H1            -28.7325166405       -1.2427022861      -25.8239296465  W2        2920            0.0000000000
      8760      2920  TIP3      H2            -28.8805766405       -0.3888322861      -24.5826196465  W2        2920            0.0000000000
      8761      2921  TIP3      OH2           -25.4367166405      -14.6905422861      -26.3926896465  W2        2921            0.0000000000
      8762      2921  TIP3      H1            -26.1110366405      -15.3199822861      -26.1371096465  W2        2921            0.0000000000
      8763      2921  TIP3      H2            -24.8727966405      -15.1746522861      -26.9958996465  W2        2921            0.0000000000
      8764      2922  TIP3      OH2           -20.2939966405      -16.5831422861      -26.2799796465  W2        2922            0.0000000000
      8765      2922  TIP3      H1            -19.6902366405      -16.0356022861      -26.7818796465  W2        2922            0.0000000000
      8766      2922  TIP3      H2            -21.1637966405      -16.2641022861      -26.5205696465  W2        2922            0.0000000000
      8767      2923  TIP3      OH2           -18.5669566405      -15.4442722861      -27.9468896465  W2        2923            0.0000000000
      8768      2923  TIP3      H1            -17.9552066405      -15.9587022861      -28.4735296465  W2        2923            0.0000000000
      8769      2923  TIP3      H2            -18.1846166405      -14.5670622861      -27.9234496465  W2        2923            0.0000000000
      8770      2924  TIP3      OH2           -33.1099666405      -16.0565122861      -28.5706996465  W2        2924            0.0000000000
      8771      2924  TIP3      H1            -33.8869866405      -16.2910222861      -29.0781096465  W2        2924            0.0000000000
      8772      2924  TIP3      H2            -32.5796066405      -16.8533022861      -28.5618996465  W2        2924            0.0000000000
      8773      2925  TIP3      OH2           -34.2736266405      -16.2587022861      -32.7670896465  W2        2925            0.0000000000
      8774      2925  TIP3      H1            -33.8345566405      -15.6476522861      -33.3587396465  W2        2925            0.0000000000
      8775      2925  TIP3      H2            -34.9073866405      -15.7202922861      -32.2930896465  W2        2925            0.0000000000
      8776      2926  TIP3      OH2           -28.5307066405      -16.1298022861      -28.7573896465  W2        2926            0.0000000000
      8777      2926  TIP3      H1            -27.6563666405      -15.7413722861      -28.7869596465  W2        2926            0.0000000000
      8778      2926  TIP3      H2            -28.6666266405      -16.3450222861      -27.8346696465  W2        2926            0.0000000000
      8779      2927  TIP3      OH2           -22.9738666405      -16.0998222861      -27.1082196465  W2        2927            0.0000000000
      8780      2927  TIP3      H1            -22.8977066405      -16.0046622861      -28.0576196465  W2        2927            0.0000000000
      8781      2927  TIP3      H2            -23.2489466405      -17.0075322861      -26.9793096465  W2        2927            0.0000000000
      8782      2928  TIP3      OH2           -21.6206066405      -16.0740422861      -31.4157196465  W2        2928            0.0000000000
      8783      2928  TIP3      H1            -22.3234966405      -15.4591222861      -31.6255796465  W2        2928            0.0000000000
      8784      2928  TIP3      H2            -22.0654666405      -16.9113722861      -31.2846296465  W2        2928            0.0000000000
      8785      2929  TIP3      OH2           -34.3726766405       -0.3104822861      -31.8695796465  W2        2929            0.0000000000
      8786      2929  TIP3      H1            -35.0576866405       -0.3485922861      -32.5370696465  W2        2929            0.0000000000
      8787      2929  TIP3      H2            -34.3689566405        0.6022777139      -31.5813696465  W2        2929            0.0000000000
      8788      2930  TIP3      OH2           -32.4127166405      -14.3425522861      -34.3246796465  W2        2930            0.0000000000
      8789      2930  TIP3      H1            -31.9213766405      -14.9723122861      -34.8521296465  W2        2930            0.0000000000
      8790      2930  TIP3      H2            -31.7890866405      -14.0466122861      -33.6615596465  W2        2930            0.0000000000
      8791      2931  TIP3      OH2           -27.3867066405      -14.0494022861      -31.8676296465  W2        2931            0.0000000000
      8792      2931  TIP3      H1            -27.2085766405      -14.6960822861      -31.1847696465  W2        2931            0.0000000000
      8793      2931  TIP3      H2            -27.4400866405      -13.2156322861      -31.4005196465  W2        2931            0.0000000000
      8794      2932  TIP3      OH2           -25.5083266405        0.8990077139      -33.4719596465  W2        2932            0.0000000000
      8795      2932  TIP3      H1            -24.6423066405        1.2657477139      -33.6501396465  W2        2932            0.0000000000
      8796      2932  TIP3      H2            -25.7550466405        0.4598077139      -34.2858796465  W2        2932            0.0000000000
      8797      2933  TIP3      OH2           -18.7993666405        0.4620377139      -30.7928496465  W2        2933            0.0000000000
      8798      2933  TIP3      H1            -18.9936566405       -0.2857522861      -31.3578896465  W2        2933            0.0000000000
      8799      2933  TIP3      H2            -18.8383566405        1.2200477139      -31.3760596465  W2        2933            0.0000000000
      8800      2934  TIP3      OH2           -33.1521666405      -15.5423222861      -19.0530796465  W2        2934            0.0000000000
      8801      2934  TIP3      H1            -33.5183466405      -16.3080622861      -18.6106096465  W2        2934            0.0000000000
      8802      2934  TIP3      H2            -32.2393166405      -15.5133022861      -18.7665696465  W2        2934            0.0000000000
      8803      2935  TIP3      OH2           -31.1790866405      -16.1918822861      -17.5173696465  W2        2935            0.0000000000
      8804      2935  TIP3      H1            -30.2807266405      -16.4658622861      -17.7020296465  W2        2935            0.0000000000
      8805      2935  TIP3      H2            -31.5657766405      -16.9342822861      -17.0531096465  W2        2935            0.0000000000
      8806      2936  TIP3      OH2           -32.5545566405        0.6095977139      -34.8443696465  W2        2936            0.0000000000
      8807      2936  TIP3      H1            -32.8220966405        0.8958877139      -33.9710596465  W2        2936            0.0000000000
      8808      2936  TIP3      H2            -31.7832966405        0.0635177139      -34.6921196465  W2        2936            0.0000000000
      8809      2937  TIP3      OH2           -22.7578566405      -16.8593522861      -17.3350896465  W2        2937            0.0000000000
      8810      2937  TIP3      H1            -22.6811366405      -17.2852822861      -16.4813196465  W2        2937            0.0000000000
      8811      2937  TIP3      H2            -21.8641966405      -16.8458822861      -17.6777396465  W2        2937            0.0000000000
      8812      2938  TIP3      OH2           -19.5817466405       -0.7867222861      -18.6426696465  W2        2938            0.0000000000
      8813      2938  TIP3      H1            -20.3635566405       -0.9729222861      -19.1626096465  W2        2938            0.0000000000
      8814      2938  TIP3      H2            -19.6537566405        0.1427077139      -18.4254196465  W2        2938            0.0000000000
      8815      2939  TIP3      OH2            -5.1757066405       -6.9002822861      -28.6119496465  W2        2939            0.0000000000
      8816      2939  TIP3      H1             -5.0865966405       -5.9564622861      -28.7442396465  W2        2939            0.0000000000
      8817      2939  TIP3      H2             -5.8139466405       -7.1756422861      -29.2700096465  W2        2939            0.0000000000
      8818      2940  TIP3      OH2            -6.2425766405       -7.6452122861      -25.1931296465  W2        2940            0.0000000000
      8819      2940  TIP3      H1             -6.2808266405       -8.2915822861      -24.4881696465  W2        2940            0.0000000000
      8820      2940  TIP3      H2             -6.5649266405       -8.1117722861      -25.9642596465  W2        2940            0.0000000000
      8821      2941  TIP3      OH2           -13.8740766405       -8.0310022861      -23.6001396465  W2        2941            0.0000000000
      8822      2941  TIP3      H1            -13.8328666405       -8.6566722861      -22.8768996465  W2        2941            0.0000000000
      8823      2941  TIP3      H2            -13.1713066405       -7.4071422861      -23.4180996465  W2        2941            0.0000000000
      8824      2942  TIP3      OH2            -2.5365566405       -4.7061722861      -26.8916196465  W2        2942            0.0000000000
      8825      2942  TIP3      H1             -2.9772866405       -5.4265722861      -26.4410596465  W2        2942            0.0000000000
      8826      2942  TIP3      H2             -2.5495866405       -3.9854522861      -26.2618496465  W2        2942            0.0000000000
      8827      2943  TIP3      OH2           -12.9507666405       -3.5811122861      -25.0652296465  W2        2943            0.0000000000
      8828      2943  TIP3      H1            -13.3202466405       -4.3830622861      -25.4347996465  W2        2943            0.0000000000
      8829      2943  TIP3      H2            -12.0096566405       -3.7496222861      -25.0188896465  W2        2943            0.0000000000
      8830      2944  TIP3      OH2           -16.3407166405       -9.9208522861      -29.6723496465  W2        2944            0.0000000000
      8831      2944  TIP3      H1            -16.7883766405       -9.0749822861      -29.6906996465  W2        2944            0.0000000000
      8832      2944  TIP3      H2            -16.9015966405      -10.5004322861      -30.1878396465  W2        2944            0.0000000000
      8833      2945  TIP3      OH2           -15.6301066405       -7.7588922861      -27.5465496465  W2        2945            0.0000000000
      8834      2945  TIP3      H1            -15.4167566405       -8.5287322861      -27.0192496465  W2        2945            0.0000000000
      8835      2945  TIP3      H2            -14.8923466405       -7.6692222861      -28.1497896465  W2        2945            0.0000000000
      8836      2946  TIP3      OH2            -5.4250066405        0.3979977139      -26.6795796465  W2        2946            0.0000000000
      8837      2946  TIP3      H1             -4.8053666405       -0.2785322861      -26.9526596465  W2        2946            0.0000000000
      8838      2946  TIP3      H2             -5.6332666405        0.1800777139      -25.7710896465  W2        2946            0.0000000000
      8839      2947  TIP3      OH2            -7.8531366405       -5.2130722861      -24.7870296465  W2        2947            0.0000000000
      8840      2947  TIP3      H1             -7.5493466405       -5.8989322861      -25.3816196465  W2        2947            0.0000000000
      8841      2947  TIP3      H2             -7.1317366405       -5.0942022861      -24.1692296465  W2        2947            0.0000000000
      8842      2948  TIP3      OH2             0.8098433595      -13.6115422861      -23.9264096465  W2        2948            0.0000000000
      8843      2948  TIP3      H1              0.8590633595      -13.0014222861      -23.1904996465  W2        2948            0.0000000000
      8844      2948  TIP3      H2              1.2353533595      -13.1504522861      -24.6492996465  W2        2948            0.0000000000
      8845      2949  TIP3      OH2            -4.7124366405      -10.8188322861      -24.4595496465  W2        2949            0.0000000000
      8846      2949  TIP3      H1             -4.5698466405      -11.7651322861      -24.4393896465  W2        2949            0.0000000000
      8847      2949  TIP3      H2             -4.8185366405      -10.6118522861      -25.3880596465  W2        2949            0.0000000000
      8848      2950  TIP3      OH2           -11.5576066405      -12.7171922861      -27.1870696465  W2        2950            0.0000000000
      8849      2950  TIP3      H1            -11.5144966405      -11.8573422861      -27.6054396465  W2        2950            0.0000000000
      8850      2950  TIP3      H2            -12.0151966405      -13.2697222861      -27.8207496465  W2        2950            0.0000000000
      8851      2951  TIP3      OH2            -3.8353366405      -12.5866322861      -28.7862396465  W2        2951            0.0000000000
      8852      2951  TIP3      H1             -3.1889066405      -12.9153122861      -28.1614796465  W2        2951            0.0000000000
      8853      2951  TIP3      H2             -3.3253966405      -12.0687322861      -29.4090996465  W2        2951            0.0000000000
      8854      2952  TIP3      OH2           -14.9374566405      -10.3206122861      -26.4249296465  W2        2952            0.0000000000
      8855      2952  TIP3      H1            -14.2837966405      -10.8704422861      -25.9929196465  W2        2952            0.0000000000
      8856      2952  TIP3      H2            -14.9135266405      -10.5947122861      -27.3417296465  W2        2952            0.0000000000
      8857      2953  TIP3      OH2            -9.7810066405       -8.7704822861      -27.2097796465  W2        2953            0.0000000000
      8858      2953  TIP3      H1             -9.1649066405       -9.2969422861      -26.7003796465  W2        2953            0.0000000000
      8859      2953  TIP3      H2            -10.3671266405       -9.4106122861      -27.6134196465  W2        2953            0.0000000000
      8860      2954  TIP3      OH2             1.2013033595      -12.1336222861      -21.6904296465  W2        2954            0.0000000000
      8861      2954  TIP3      H1              0.5127633595      -11.4755522861      -21.7857696465  W2        2954            0.0000000000
      8862      2954  TIP3      H2              1.2167633595      -12.3308322861      -20.7538896465  W2        2954            0.0000000000
      8863      2955  TIP3      OH2           -12.7474166405      -13.7993522861      -23.1129896465  W2        2955            0.0000000000
      8864      2955  TIP3      H1            -12.9662466405      -13.2692922861      -23.8793896465  W2        2955            0.0000000000
      8865      2955  TIP3      H2            -13.4153266405      -13.5728022861      -22.4658496465  W2        2955            0.0000000000
      8866      2956  TIP3      OH2            -5.3784366405       -4.2992422861      -29.5690796465  W2        2956            0.0000000000
      8867      2956  TIP3      H1             -5.6739266405       -4.6220122861      -30.4203896465  W2        2956            0.0000000000
      8868      2956  TIP3      H2             -5.7026566405       -3.3995722861      -29.5278196465  W2        2956            0.0000000000
      8869      2957  TIP3      OH2           -10.1782766405       -6.1237822861      -22.8256196465  W2        2957            0.0000000000
      8870      2957  TIP3      H1            -10.9183666405       -5.5256322861      -22.7220996465  W2        2957            0.0000000000
      8871      2957  TIP3      H2             -9.4643266405       -5.5698222861      -23.1412596465  W2        2957            0.0000000000
      8872      2958  TIP3      OH2            -2.0714966405      -13.2957022861      -26.8056496465  W2        2958            0.0000000000
      8873      2958  TIP3      H1             -2.2866966405      -14.0613622861      -26.2730496465  W2        2958            0.0000000000
      8874      2958  TIP3      H2             -1.4157566405      -12.8232422861      -26.2927996465  W2        2958            0.0000000000
      8875      2959  TIP3      OH2           -13.1536866405      -11.9071722861      -25.1607696465  W2        2959            0.0000000000
      8876      2959  TIP3      H1            -12.5400566405      -11.2744122861      -24.7875296465  W2        2959            0.0000000000
      8877      2959  TIP3      H2            -12.6416166405      -12.3796722861      -25.8170796465  W2        2959            0.0000000000
      8878      2960  TIP3      OH2           -11.7708466405       -4.1594822861      -22.0384696465  W2        2960            0.0000000000
      8879      2960  TIP3      H1            -11.7760866405       -3.2801322861      -22.4165396465  W2        2960            0.0000000000
      8880      2960  TIP3      H2            -12.6244366405       -4.2430722861      -21.6134796465  W2        2960            0.0000000000
      8881      2961  TIP3      OH2           -15.6497566405       -4.4886922861      -31.2565396465  W2        2961            0.0000000000
      8882      2961  TIP3      H1            -15.9216666405       -4.2595922861      -32.1452496465  W2        2961            0.0000000000
      8883      2961  TIP3      H2            -15.6041866405       -3.6508122861      -30.7960096465  W2        2961            0.0000000000
      8884      2962  TIP3      OH2            -2.0247866405       -2.8671022861      -24.5436896465  W2        2962            0.0000000000
      8885      2962  TIP3      H1             -2.9664166405       -2.8087122861      -24.3819996465  W2        2962            0.0000000000
      8886      2962  TIP3      H2             -1.7481766405       -1.9610522861      -24.6807196465  W2        2962            0.0000000000
      8887      2963  TIP3      OH2            -1.7240866405      -14.5805722861      -23.1262996465  W2        2963            0.0000000000
      8888      2963  TIP3      H1             -2.4601666405      -13.9698622861      -23.1641696465  W2        2963            0.0000000000
      8889      2963  TIP3      H2             -1.0406866405      -14.1656722861      -23.6526596465  W2        2963            0.0000000000
      8890      2964  TIP3      OH2            -8.7209466405      -16.4938422861      -25.6604996465  W2        2964            0.0000000000
      8891      2964  TIP3      H1             -8.8385266405      -17.4422422861      -25.7146696465  W2        2964            0.0000000000
      8892      2964  TIP3      H2             -9.5759366405      -16.1612322861      -25.3873896465  W2        2964            0.0000000000
      8893      2965  TIP3      OH2            -3.7726666405       -1.0857522861      -27.9185296465  W2        2965            0.0000000000
      8894      2965  TIP3      H1             -3.3474366405       -1.7929622861      -28.4035696465  W2        2965            0.0000000000
      8895      2965  TIP3      H2             -3.4556666405       -0.2844822861      -28.3353096465  W2        2965            0.0000000000
      8896      2966  TIP3      OH2            -2.6130166405       -3.1849022861      -29.4098696465  W2        2966            0.0000000000
      8897      2966  TIP3      H1             -2.8705366405       -3.8748922861      -30.0212796465  W2        2966            0.0000000000
      8898      2966  TIP3      H2             -2.5419366405       -3.6277822861      -28.5642796465  W2        2966            0.0000000000
      8899      2967  TIP3      OH2            -0.9269966405       -4.6182322861      -20.9325196465  W2        2967            0.0000000000
      8900      2967  TIP3      H1             -0.7873666405       -5.2099822861      -21.6718196465  W2        2967            0.0000000000
      8901      2967  TIP3      H2             -0.7597166405       -3.7456422861      -21.2886396465  W2        2967            0.0000000000
      8902      2968  TIP3      OH2            -6.4544566405       -7.6562822861      -31.1599196465  W2        2968            0.0000000000
      8903      2968  TIP3      H1             -7.1659066405       -7.1213122861      -31.5118696465  W2        2968            0.0000000000
      8904      2968  TIP3      H2             -5.7634966405       -7.6010722861      -31.8200296465  W2        2968            0.0000000000
      8905      2969  TIP3      OH2            -6.4005366405       -9.1988522861      -34.1214196465  W2        2969            0.0000000000
      8906      2969  TIP3      H1             -5.6995466405       -9.1761622861      -33.4700196465  W2        2969            0.0000000000
      8907      2969  TIP3      H2             -6.0982466405       -9.8268822861      -34.7774896465  W2        2969            0.0000000000
      8908      2970  TIP3      OH2             0.9149333595       -8.2784322861      -22.8664796465  W2        2970            0.0000000000
      8909      2970  TIP3      H1              0.2623433595       -7.5838722861      -22.7773896465  W2        2970            0.0000000000
      8910      2970  TIP3      H2              1.3799633595       -8.0683422861      -23.6763196465  W2        2970            0.0000000000
      8911      2971  TIP3      OH2            -3.0486866405       -7.4469522861      -30.2083296465  W2        2971            0.0000000000
      8912      2971  TIP3      H1             -3.7805866405       -7.2185822861      -29.6352696465  W2        2971            0.0000000000
      8913      2971  TIP3      H2             -2.6014666405       -8.1606822861      -29.7535796465  W2        2971            0.0000000000
      8914      2972  TIP3      OH2            -3.1513366405       -9.2726922861      -21.1406296465  W2        2972            0.0000000000
      8915      2972  TIP3      H1             -3.0714266405       -8.5092522861      -20.5687796465  W2        2972            0.0000000000
      8916      2972  TIP3      H2             -3.7525666405       -8.9934522861      -21.8311196465  W2        2972            0.0000000000
      8917      2973  TIP3      OH2           -11.4033166405       -6.8163322861      -28.3258296465  W2        2973            0.0000000000
      8918      2973  TIP3      H1            -11.7337966405       -7.1869922861      -29.1441296465  W2        2973            0.0000000000
      8919      2973  TIP3      H2            -10.8149066405       -7.4869322861      -27.9789996465  W2        2973            0.0000000000
      8920      2974  TIP3      OH2           -10.0365666405       -3.3882722861      -25.6446096465  W2        2974            0.0000000000
      8921      2974  TIP3      H1            -10.1314366405       -3.9669622861      -26.4011496465  W2        2974            0.0000000000
      8922      2974  TIP3      H2             -9.3072066405       -3.7597022861      -25.1483296465  W2        2974            0.0000000000
      8923      2975  TIP3      OH2           -11.0367666405       -8.0477722861      -24.6923296465  W2        2975            0.0000000000
      8924      2975  TIP3      H1            -10.4715166405       -7.9263522861      -25.4552096465  W2        2975            0.0000000000
      8925      2975  TIP3      H2            -10.7178766405       -7.4102722861      -24.0534796465  W2        2975            0.0000000000
      8926      2976  TIP3      OH2            -4.7275466405       -2.5445822861      -23.9582796465  W2        2976            0.0000000000
      8927      2976  TIP3      H1             -4.9678866405       -1.8822722861      -23.3103596465  W2        2976            0.0000000000
      8928      2976  TIP3      H2             -4.9257266405       -3.3790622861      -23.5333196465  W2        2976            0.0000000000
      8929      2977  TIP3      OH2           -10.1566966405       -3.6485022861      -19.9751396465  W2        2977            0.0000000000
      8930      2977  TIP3      H1            -10.4679466405       -2.8661822861      -19.5198196465  W2        2977            0.0000000000
      8931      2977  TIP3      H2            -10.8066766405       -3.8015922861      -20.6609396465  W2        2977            0.0000000000
      8932      2978  TIP3      OH2            -4.1777366405       -8.2846622861      -32.5232096465  W2        2978            0.0000000000
      8933      2978  TIP3      H1             -3.5981866405       -8.1346322861      -31.7763196465  W2        2978            0.0000000000
      8934      2978  TIP3      H2             -3.7637366405       -7.8139222861      -33.2465696465  W2        2978            0.0000000000
      8935      2979  TIP3      OH2           -13.2367066405       -7.4503922861      -20.7465696465  W2        2979            0.0000000000
      8936      2979  TIP3      H1            -13.1663866405       -6.7997122861      -20.0480696465  W2        2979            0.0000000000
      8937      2979  TIP3      H2            -14.1274866405       -7.3476422861      -21.0814796465  W2        2979            0.0000000000
      8938      2980  TIP3      OH2            -6.4512466405       -1.5478122861      -29.0878996465  W2        2980            0.0000000000
      8939      2980  TIP3      H1             -5.9774866405       -1.2521822861      -28.3104796465  W2        2980            0.0000000000
      8940      2980  TIP3      H2             -7.0143166405       -0.8096522861      -29.3209396465  W2        2980            0.0000000000
      8941      2981  TIP3      OH2           -11.9171066405       -1.5770022861      -19.2117596465  W2        2981            0.0000000000
      8942      2981  TIP3      H1            -11.9095766405       -1.7130322861      -20.1592096465  W2        2981            0.0000000000
      8943      2981  TIP3      H2            -12.8330666405       -1.6941922861      -18.9597596465  W2        2981            0.0000000000
      8944      2982  TIP3      OH2            -0.4788966405      -16.5346222861      -32.7102396465  W2        2982            0.0000000000
      8945      2982  TIP3      H1             -1.3788266405      -16.3957222861      -32.4151796465  W2        2982            0.0000000000
      8946      2982  TIP3      H2             -0.2270566405      -15.7031622861      -33.1120696465  W2        2982            0.0000000000
      8947      2983  TIP3      OH2           -12.4130466405       -7.7469022861      -30.7365496465  W2        2983            0.0000000000
      8948      2983  TIP3      H1            -12.7049166405       -6.9787322861      -31.2274196465  W2        2983            0.0000000000
      8949      2983  TIP3      H2            -13.0875266405       -8.4062822861      -30.8994096465  W2        2983            0.0000000000
      8950      2984  TIP3      OH2             0.7102433595       -2.1683822861      -34.3338496465  W2        2984            0.0000000000
      8951      2984  TIP3      H1              0.7835933595       -1.2293622861      -34.1633196465  W2        2984            0.0000000000
      8952      2984  TIP3      H2              1.6157533595       -2.4735222861      -34.3901196465  W2        2984            0.0000000000
      8953      2985  TIP3      OH2           -16.3200366405       -5.3839822861      -21.9215696465  W2        2985            0.0000000000
      8954      2985  TIP3      H1            -16.8211966405       -5.4120422861      -22.7365996465  W2        2985            0.0000000000
      8955      2985  TIP3      H2            -16.3146666405       -6.2896622861      -21.6118396465  W2        2985            0.0000000000
      8956      2986  TIP3      OH2           -16.5697666405       -2.6036022861      -25.0375496465  W2        2986            0.0000000000
      8957      2986  TIP3      H1            -15.6237066405       -2.7479022861      -25.0565996465  W2        2986            0.0000000000
      8958      2986  TIP3      H2            -16.6821366405       -1.8193222861      -24.5004296465  W2        2986            0.0000000000
      8959      2987  TIP3      OH2             1.6280833595       -1.9376322861      -19.3551796465  W2        2987            0.0000000000
      8960      2987  TIP3      H1              1.5787633595       -2.8928222861      -19.3924196465  W2        2987            0.0000000000
      8961      2987  TIP3      H2              0.8013133595       -1.6701022861      -18.9537996465  W2        2987            0.0000000000
      8962      2988  TIP3      OH2            -7.3935166405       -2.3637122861      -20.4790396465  W2        2988            0.0000000000
      8963      2988  TIP3      H1             -7.3060566405       -1.5372522861      -20.0041296465  W2        2988            0.0000000000
      8964      2988  TIP3      H2             -8.2570066405       -2.6933322861      -20.2301096465  W2        2988            0.0000000000
      8965      2989  TIP3      OH2            -6.9789366405        1.4086577139      -30.6729796465  W2        2989            0.0000000000
      8966      2989  TIP3      H1             -7.0543366405        1.2873777139      -31.6194596465  W2        2989            0.0000000000
      8967      2989  TIP3      H2             -6.9460666405        2.3579277139      -30.5545196465  W2        2989            0.0000000000
      8968      2990  TIP3      OH2           -13.3255566405        0.1973577139      -28.8920796465  W2        2990            0.0000000000
      8969      2990  TIP3      H1            -13.1735166405       -0.1506022861      -28.0134296465  W2        2990            0.0000000000
      8970      2990  TIP3      H2            -14.1765166405       -0.1589122861      -29.1473596465  W2        2990            0.0000000000
      8971      2991  TIP3      OH2            -3.8773366405        0.5626777139      -33.6707396465  W2        2991            0.0000000000
      8972      2991  TIP3      H1             -3.5024966405       -0.1817122861      -34.1414796465  W2        2991            0.0000000000
      8973      2991  TIP3      H2             -3.8729666405        0.2927377139      -32.7524096465  W2        2991            0.0000000000
      8974      2992  TIP3      OH2            -4.2085266405        0.4883877139      -30.9215196465  W2        2992            0.0000000000
      8975      2992  TIP3      H1             -5.1435466405        0.5885777139      -30.7428196465  W2        2992            0.0000000000
      8976      2992  TIP3      H2             -3.9283366405       -0.2210122861      -30.3431996465  W2        2992            0.0000000000
      8977      2993  TIP3      OH2            -1.2199366405      -10.4443822861      -18.8749596465  W2        2993            0.0000000000
      8978      2993  TIP3      H1             -1.6272566405       -9.9638222861      -19.5956296465  W2        2993            0.0000000000
      8979      2993  TIP3      H2             -1.1793666405      -11.3497822861      -19.1828796465  W2        2993            0.0000000000
      8980      2994  TIP3      OH2           -14.0709866405       -4.0604422861      -20.8782896465  W2        2994            0.0000000000
      8981      2994  TIP3      H1            -13.8548566405       -4.4218822861      -20.0187096465  W2        2994            0.0000000000
      8982      2994  TIP3      H2            -14.9265166405       -4.4350622861      -21.0879396465  W2        2994            0.0000000000
      8983      2995  TIP3      OH2           -11.4521866405      -15.5903922861      -24.8828696465  W2        2995            0.0000000000
      8984      2995  TIP3      H1            -12.3138166405      -15.6775722861      -25.2905796465  W2        2995            0.0000000000
      8985      2995  TIP3      H2            -11.4746166405      -14.7343822861      -24.4551096465  W2        2995            0.0000000000
      8986      2996  TIP3      OH2            -6.7894066405      -15.8683522861      -21.5081696465  W2        2996            0.0000000000
      8987      2996  TIP3      H1             -6.3690966405      -16.2836422861      -20.7551096465  W2        2996            0.0000000000
      8988      2996  TIP3      H2             -7.7224466405      -16.0470222861      -21.3909696465  W2        2996            0.0000000000
      8989      2997  TIP3      OH2            -3.4629166405      -12.1128322861      -20.6547196465  W2        2997            0.0000000000
      8990      2997  TIP3      H1             -3.9769666405      -12.2386122861      -19.8571196465  W2        2997            0.0000000000
      8991      2997  TIP3      H2             -3.6184466405      -11.2005222861      -20.8990996465  W2        2997            0.0000000000
      8992      2998  TIP3      OH2            -2.7004266405       -7.2518322861      -34.8934196465  W2        2998            0.0000000000
      8993      2998  TIP3      H1             -2.6583466405       -7.4744422861      -35.8234196465  W2        2998            0.0000000000
      8994      2998  TIP3      H2             -1.8512166405       -6.8531222861      -34.7034296465  W2        2998            0.0000000000
      8995      2999  TIP3      OH2            -7.1276766405      -13.3760122861      -34.2230896465  W2        2999            0.0000000000
      8996      2999  TIP3      H1             -7.3811966405      -13.3568522861      -33.3002796465  W2        2999            0.0000000000
      8997      2999  TIP3      H2             -7.3844666405      -14.2474722861      -34.5244696465  W2        2999            0.0000000000
      8998      3000  TIP3      OH2           -11.3611766405      -10.6249422861      -23.7878496465  W2        3000            0.0000000000
      8999      3000  TIP3      H1            -12.0029666405      -10.6652122861      -23.0788396465  W2        3000            0.0000000000
      9000      3000  TIP3      H2            -11.3239766405       -9.6984722861      -24.0255496465  W2        3000            0.0000000000
      9001      3001  TIP3      OH2           -11.3642666405      -10.4039322861      -28.8758496465  W2        3001            0.0000000000
      9002      3001  TIP3      H1            -12.2569766405      -10.7443222861      -28.9344696465  W2        3001            0.0000000000
      9003      3001  TIP3      H2            -10.9136066405      -10.7808422861      -29.6315296465  W2        3001            0.0000000000
      9004      3002  TIP3      OH2            -5.8287166405       -9.9879022861      -30.0587696465  W2        3002            0.0000000000
      9005      3002  TIP3      H1             -6.2376866405       -9.1730422861      -30.3502896465  W2        3002            0.0000000000
      9006      3002  TIP3      H2             -5.1080966405      -10.1278922861      -30.6730596465  W2        3002            0.0000000000
      9007      3003  TIP3      OH2            -6.7265566405       -9.8122622861      -18.5706996465  W2        3003            0.0000000000
      9008      3003  TIP3      H1             -7.2891766405      -10.5171022861      -18.2499196465  W2        3003            0.0000000000
      9009      3003  TIP3      H2             -5.9002166405       -9.9330722861      -18.1029396465  W2        3003            0.0000000000
      9010      3004  TIP3      OH2            -4.8239466405      -10.5418622861      -27.2447996465  W2        3004            0.0000000000
      9011      3004  TIP3      H1             -5.0194966405       -9.9361822861      -27.9597396465  W2        3004            0.0000000000
      9012      3004  TIP3      H2             -4.6426866405      -11.3753422861      -27.6791696465  W2        3004            0.0000000000
      9013      3005  TIP3      OH2           -13.6111266405      -10.3045922861      -21.9206496465  W2        3005            0.0000000000
      9014      3005  TIP3      H1            -13.6491866405       -9.9044322861      -21.0519396465  W2        3005            0.0000000000
      9015      3005  TIP3      H2            -14.1020166405      -11.1213522861      -21.8303596465  W2        3005            0.0000000000
      9016      3006  TIP3      OH2           -10.2453866405      -12.9303622861      -35.1220496465  W2        3006            0.0000000000
      9017      3006  TIP3      H1            -10.6763166405      -13.3753522861      -34.3923096465  W2        3006            0.0000000000
      9018      3006  TIP3      H2            -10.9635166405      -12.5587322861      -35.6342996465  W2        3006            0.0000000000
      9019      3007  TIP3      OH2           -17.0030466405      -13.1884122861      -28.0701796465  W2        3007            0.0000000000
      9020      3007  TIP3      H1            -16.3722766405      -13.2172022861      -27.3507896465  W2        3007            0.0000000000
      9021      3007  TIP3      H2            -16.5536166405      -13.6135422861      -28.8005896465  W2        3007            0.0000000000
      9022      3008  TIP3      OH2           -15.7288366405      -12.4422122861      -32.6461396465  W2        3008            0.0000000000
      9023      3008  TIP3      H1            -15.2546666405      -11.8512222861      -33.2310496465  W2        3008            0.0000000000
      9024      3008  TIP3      H2            -16.4461966405      -11.9119222861      -32.2991296465  W2        3008            0.0000000000
      9025      3009  TIP3      OH2            -5.5600266405       -8.9037322861      -22.5735596465  W2        3009            0.0000000000
      9026      3009  TIP3      H1             -5.2365466405       -9.5347622861      -23.2165096465  W2        3009            0.0000000000
      9027      3009  TIP3      H2             -6.0000966405       -9.4385122861      -21.9128196465  W2        3009            0.0000000000
      9028      3010  TIP3      OH2            -8.7827366405      -12.9761822861      -27.7894396465  W2        3010            0.0000000000
      9029      3010  TIP3      H1             -9.6936266405      -12.9195022861      -27.5008396465  W2        3010            0.0000000000
      9030      3010  TIP3      H2             -8.2774466405      -13.0366322861      -26.9787196465  W2        3010            0.0000000000
      9031      3011  TIP3      OH2           -13.9543966405      -11.3475522861      -28.9626796465  W2        3011            0.0000000000
      9032      3011  TIP3      H1            -14.8435966405      -11.2480022861      -29.3027196465  W2        3011            0.0000000000
      9033      3011  TIP3      H2            -13.6579066405      -12.1892522861      -29.3088896465  W2        3011            0.0000000000
      9034      3012  TIP3      OH2           -10.3012166405      -11.3472922861      -31.3062196465  W2        3012            0.0000000000
      9035      3012  TIP3      H1             -9.3696666405      -11.2182922861      -31.1279096465  W2        3012            0.0000000000
      9036      3012  TIP3      H2            -10.5161866405      -10.6778622861      -31.9557496465  W2        3012            0.0000000000
      9037      3013  TIP3      OH2            -4.3775466405      -13.7415522861      -24.5252596465  W2        3013            0.0000000000
      9038      3013  TIP3      H1             -5.0543866405      -13.6102422861      -23.8612896465  W2        3013            0.0000000000
      9039      3013  TIP3      H2             -4.8630566405      -13.8966022861      -25.3354896465  W2        3013            0.0000000000
      9040      3014  TIP3      OH2           -11.6271966405      -10.1530722861      -33.7396096465  W2        3014            0.0000000000
      9041      3014  TIP3      H1            -12.1696866405      -10.5326922861      -34.4308496465  W2        3014            0.0000000000
      9042      3014  TIP3      H2            -10.7937066405       -9.9586022861      -34.1681996465  W2        3014            0.0000000000
      9043      3015  TIP3      OH2            -1.0900366405        1.9299877139      -18.2484996465  W2        3015            0.0000000000
      9044      3015  TIP3      H1             -0.8901666405        2.3541777139      -19.0829696465  W2        3015            0.0000000000
      9045      3015  TIP3      H2             -0.4346666405        2.2738077139      -17.6414596465  W2        3015            0.0000000000
      9046      3016  TIP3      OH2           -13.4920566405       -5.5958822861      -18.6404496465  W2        3016            0.0000000000
      9047      3016  TIP3      H1            -12.7598166405       -5.3412922861      -18.0789996465  W2        3016            0.0000000000
      9048      3016  TIP3      H2            -14.2721866405       -5.3913422861      -18.1249096465  W2        3016            0.0000000000
      9049      3017  TIP3      OH2            -7.4627666405      -10.1888822861      -25.9024796465  W2        3017            0.0000000000
      9050      3017  TIP3      H1             -6.8984266405      -10.7352222861      -26.4495196465  W2        3017            0.0000000000
      9051      3017  TIP3      H2             -7.6104266405      -10.7106922861      -25.1137196465  W2        3017            0.0000000000
      9052      3018  TIP3      OH2           -12.4607966405      -14.0522722861      -29.4839996465  W2        3018            0.0000000000
      9053      3018  TIP3      H1            -12.7778466405      -14.9547422861      -29.5194596465  W2        3018            0.0000000000
      9054      3018  TIP3      H2            -11.6793866405      -14.0505322861      -30.0368396465  W2        3018            0.0000000000
      9055      3019  TIP3      OH2            -8.8361766405      -11.8002722861      -23.4884396465  W2        3019            0.0000000000
      9056      3019  TIP3      H1             -9.6716466405      -11.3463222861      -23.3781996465  W2        3019            0.0000000000
      9057      3019  TIP3      H2             -8.3121166405      -11.5244222861      -22.7364496465  W2        3019            0.0000000000
      9058      3020  TIP3      OH2            -8.2919166405       -5.5875022861      -31.8037996465  W2        3020            0.0000000000
      9059      3020  TIP3      H1             -9.0368166405       -6.0949722861      -32.1260096465  W2        3020            0.0000000000
      9060      3020  TIP3      H2             -8.4261966405       -5.5387022861      -30.8573196465  W2        3020            0.0000000000
      9061      3021  TIP3      OH2            -1.1420266405       -6.4546822861      -23.0170396465  W2        3021            0.0000000000
      9062      3021  TIP3      H1             -0.5001466405       -5.9980522861      -23.5608196465  W2        3021            0.0000000000
      9063      3021  TIP3      H2             -1.9723366405       -6.3414422861      -23.4796296465  W2        3021            0.0000000000
      9064      3022  TIP3      OH2            -4.3942366405      -12.7735122861      -33.6045396465  W2        3022            0.0000000000
      9065      3022  TIP3      H1             -5.3328166405      -12.6619522861      -33.7556596465  W2        3022            0.0000000000
      9066      3022  TIP3      H2             -4.0970266405      -11.9168222861      -33.2979696465  W2        3022            0.0000000000
      9067      3023  TIP3      OH2            -6.7727066405       -5.4031722861      -20.5668896465  W2        3023            0.0000000000
      9068      3023  TIP3      H1             -7.1180966405       -5.7849322861      -19.7599296465  W2        3023            0.0000000000
      9069      3023  TIP3      H2             -6.9726966405       -4.4698122861      -20.4955996465  W2        3023            0.0000000000
      9070      3024  TIP3      OH2            -3.6758866405      -10.9062422861      -31.9437996465  W2        3024            0.0000000000
      9071      3024  TIP3      H1             -2.7839866405      -11.0437422861      -31.6246796465  W2        3024            0.0000000000
      9072      3024  TIP3      H2             -3.6195266405      -10.1156322861      -32.4804496465  W2        3024            0.0000000000
      9073      3025  TIP3      OH2           -13.1670866405       -6.2925022861      -26.0340096465  W2        3025            0.0000000000
      9074      3025  TIP3      H1            -12.4223666405       -6.2949322861      -26.6353596465  W2        3025            0.0000000000
      9075      3025  TIP3      H2            -13.0894266405       -7.1161222861      -25.5524996465  W2        3025            0.0000000000
      9076      3026  TIP3      OH2            -6.1665066405       -4.1290722861      -32.7783396465  W2        3026            0.0000000000
      9077      3026  TIP3      H1             -6.4616666405       -3.3022822861      -32.3968596465  W2        3026            0.0000000000
      9078      3026  TIP3      H2             -6.8695066405       -4.7483822861      -32.5821996465  W2        3026            0.0000000000
      9079      3027  TIP3      OH2           -16.1591166405       -7.8318122861      -20.7191596465  W2        3027            0.0000000000
      9080      3027  TIP3      H1            -15.9362566405       -8.2498522861      -19.8874096465  W2        3027            0.0000000000
      9081      3027  TIP3      H2            -16.7611066405       -8.4443122861      -21.1418796465  W2        3027            0.0000000000
      9082      3028  TIP3      OH2            -9.1426266405       -8.3148222861      -18.5061896465  W2        3028            0.0000000000
      9083      3028  TIP3      H1             -9.4385466405       -8.4805222861      -19.4012796465  W2        3028            0.0000000000
      9084      3028  TIP3      H2             -8.2111066405       -8.5347922861      -18.5167996465  W2        3028            0.0000000000
      9085      3029  TIP3      OH2            -4.5223466405       -2.9416222861      -20.6163896465  W2        3029            0.0000000000
      9086      3029  TIP3      H1             -5.4229166405       -2.7583622861      -20.8839996465  W2        3029            0.0000000000
      9087      3029  TIP3      H2             -4.4882366405       -2.6826922861      -19.6955096465  W2        3029            0.0000000000
      9088      3030  TIP3      OH2             1.2089833595      -10.6968322861      -32.2491296465  W2        3030            0.0000000000
      9089      3030  TIP3      H1              0.6546133595      -11.0930322861      -32.9213796465  W2        3030            0.0000000000
      9090      3030  TIP3      H2              1.3093433595       -9.7863122861      -32.5267996465  W2        3030            0.0000000000
      9091      3031  TIP3      OH2             1.1721833595       -4.8966622861      -19.4119796465  W2        3031            0.0000000000
      9092      3031  TIP3      H1              0.3210333595       -4.6582822861      -19.7793396465  W2        3031            0.0000000000
      9093      3031  TIP3      H2              1.7625233595       -4.9133422861      -20.1652696465  W2        3031            0.0000000000
      9094      3032  TIP3      OH2            -0.4958466405       -1.9107922861      -31.7839196465  W2        3032            0.0000000000
      9095      3032  TIP3      H1             -0.8687366405       -2.7364122861      -31.4748596465  W2        3032            0.0000000000
      9096      3032  TIP3      H2             -0.2184966405       -2.0938522861      -32.6815796465  W2        3032            0.0000000000
      9097      3033  TIP3      OH2            -3.3354566405       -7.1028422861      -24.7627296465  W2        3033            0.0000000000
      9098      3033  TIP3      H1             -4.2637666405       -7.3346522861      -24.7897996465  W2        3033            0.0000000000
      9099      3033  TIP3      H2             -2.8843466405       -7.8798622861      -25.0928496465  W2        3033            0.0000000000
      9100      3034  TIP3      OH2           -10.7921466405       -2.7746822861      -28.6298596465  W2        3034            0.0000000000
      9101      3034  TIP3      H1            -10.2649266405       -2.0012422861      -28.8299796465  W2        3034            0.0000000000
      9102      3034  TIP3      H2            -11.6722966405       -2.5497622861      -28.9314596465  W2        3034            0.0000000000
      9103      3035  TIP3      OH2           -15.0373766405       -7.9122722861      -34.0426196465  W2        3035            0.0000000000
      9104      3035  TIP3      H1            -14.4213866405       -7.2855522861      -33.6631396465  W2        3035            0.0000000000
      9105      3035  TIP3      H2            -15.8991166405       -7.5962922861      -33.7709696465  W2        3035            0.0000000000
      9106      3036  TIP3      OH2            -9.3649166405       -5.1116922861      -29.0534296465  W2        3036            0.0000000000
      9107      3036  TIP3      H1             -9.6059166405       -4.1862522861      -29.0118996465  W2        3036            0.0000000000
      9108      3036  TIP3      H2            -10.1055566405       -5.5705622861      -28.6570396465  W2        3036            0.0000000000
      9109      3037  TIP3      OH2            -8.8502566405       -0.9623322861      -22.7383196465  W2        3037            0.0000000000
      9110      3037  TIP3      H1             -8.4877866405       -0.1077722861      -22.9718796465  W2        3037            0.0000000000
      9111      3037  TIP3      H2             -8.3187366405       -1.2541722861      -21.9976896465  W2        3037            0.0000000000
      9112      3038  TIP3      OH2           -10.6818366405       -0.0899322861      -29.5082096465  W2        3038            0.0000000000
      9113      3038  TIP3      H1            -11.6317866405        0.0158077139      -29.4568796465  W2        3038            0.0000000000
      9114      3038  TIP3      H2            -10.3300266405        0.7308077139      -29.1634596465  W2        3038            0.0000000000
      9115      3039  TIP3      OH2            -5.3061766405       -4.8632622861      -23.0377596465  W2        3039            0.0000000000
      9116      3039  TIP3      H1             -5.7320466405       -5.0910922861      -22.2113596465  W2        3039            0.0000000000
      9117      3039  TIP3      H2             -4.7255966405       -5.6020822861      -23.2202296465  W2        3039            0.0000000000
      9118      3040  TIP3      OH2            -3.1032866405       -3.9342122861      -33.9638596465  W2        3040            0.0000000000
      9119      3040  TIP3      H1             -2.7499766405       -4.3142322861      -33.1595096465  W2        3040            0.0000000000
      9120      3040  TIP3      H2             -4.0519366405       -4.0277322861      -33.8769296465  W2        3040            0.0000000000
      9121      3041  TIP3      OH2            -2.6477566405       -0.3113122861      -20.5682796465  W2        3041            0.0000000000
      9122      3041  TIP3      H1             -3.2494366405       -0.8670222861      -21.0636496465  W2        3041            0.0000000000
      9123      3041  TIP3      H2             -2.3663866405        0.3556677139      -21.1945396465  W2        3041            0.0000000000
      9124      3042  TIP3      OH2             1.4001533595        0.5450377139      -33.7628396465  W2        3042            0.0000000000
      9125      3042  TIP3      H1              2.1439433595        1.1310877139      -33.9026796465  W2        3042            0.0000000000
      9126      3042  TIP3      H2              0.7059633595        1.1136177139      -33.4295996465  W2        3042            0.0000000000
      9127      3043  TIP3      OH2           -14.5251666405      -13.0785422861      -21.1610196465  W2        3043            0.0000000000
      9128      3043  TIP3      H1            -15.4179366405      -12.7400022861      -21.2286196465  W2        3043            0.0000000000
      9129      3043  TIP3      H2            -14.6238866405      -13.9339322861      -20.7429396465  W2        3043            0.0000000000
      9130      3044  TIP3      OH2            -2.2373566405       -5.2620122861      -31.7370696465  W2        3044            0.0000000000
      9131      3044  TIP3      H1             -2.5145966405       -5.9900822861      -31.1809596465  W2        3044            0.0000000000
      9132      3044  TIP3      H2             -1.3100566405       -5.1428122861      -31.5318096465  W2        3044            0.0000000000
      9133      3045  TIP3      OH2           -14.8739666405       -1.2741022861      -22.7260796465  W2        3045            0.0000000000
      9134      3045  TIP3      H1            -14.6569366405       -2.2058622861      -22.7571096465  W2        3045            0.0000000000
      9135      3045  TIP3      H2            -14.6276166405       -0.9996022861      -21.8427996465  W2        3045            0.0000000000
      9136      3046  TIP3      OH2            -9.0125066405       -2.8226022861      -35.5168596465  W2        3046            0.0000000000
      9137      3046  TIP3      H1             -8.7735266405       -3.5707922861      -36.0639696465  W2        3046            0.0000000000
      9138      3046  TIP3      H2             -9.2813766405       -3.2104322861      -34.6840796465  W2        3046            0.0000000000
      9139      3047  TIP3      OH2           -10.0754466405       -3.2522222861      -33.0605996465  W2        3047            0.0000000000
      9140      3047  TIP3      H1             -9.9286466405       -3.7722422861      -32.2705096465  W2        3047            0.0000000000
      9141      3047  TIP3      H2            -10.0782766405       -2.3454622861      -32.7540096465  W2        3047            0.0000000000
      9142      3048  TIP3      OH2           -13.6223366405       -5.9998922861      -32.5500596465  W2        3048            0.0000000000
      9143      3048  TIP3      H1            -14.3084066405       -5.6476422861      -31.9830896465  W2        3048            0.0000000000
      9144      3048  TIP3      H2            -13.0995466405       -5.2369322861      -32.7966296465  W2        3048            0.0000000000
      9145      3049  TIP3      OH2            -5.7908266405      -13.3375122861      -22.2711596465  W2        3049            0.0000000000
      9146      3049  TIP3      H1             -5.0920366405      -13.2636422861      -21.6211896465  W2        3049            0.0000000000
      9147      3049  TIP3      H2             -6.1716866405      -14.2020122861      -22.1168696465  W2        3049            0.0000000000
      9148      3050  TIP3      OH2            -5.0063366405      -13.6853422861      -31.1739296465  W2        3050            0.0000000000
      9149      3050  TIP3      H1             -4.7865066405      -13.2138022861      -31.9773896465  W2        3050            0.0000000000
      9150      3050  TIP3      H2             -4.4479366405      -13.2910822861      -30.5038696465  W2        3050            0.0000000000
      9151      3051  TIP3      OH2            -7.3377266405       -1.5548622861      -32.3111796465  W2        3051            0.0000000000
      9152      3051  TIP3      H1             -8.1541166405       -1.0578922861      -32.2587496465  W2        3051            0.0000000000
      9153      3051  TIP3      H2             -6.8080966405       -1.0795122861      -32.9512996465  W2        3051            0.0000000000
      9154      3052  TIP3      OH2            -7.8063466405      -11.9574622861      -30.3390896465  W2        3052            0.0000000000
      9155      3052  TIP3      H1             -6.9940866405      -11.4531422861      -30.2929196465  W2        3052            0.0000000000
      9156      3052  TIP3      H2             -8.0510466405      -12.1024922861      -29.4251296465  W2        3052            0.0000000000
      9157      3053  TIP3      OH2            -7.2707066405      -10.9711922861      -21.1544296465  W2        3053            0.0000000000
      9158      3053  TIP3      H1             -7.1516766405      -10.3976522861      -20.3973896465  W2        3053            0.0000000000
      9159      3053  TIP3      H2             -6.6152466405      -11.6592522861      -21.0396496465  W2        3053            0.0000000000
      9160      3054  TIP3      OH2            -6.9226766405      -14.8761622861      -29.4009796465  W2        3054            0.0000000000
      9161      3054  TIP3      H1             -7.2693266405      -14.2591022861      -28.7565496465  W2        3054            0.0000000000
      9162      3054  TIP3      H2             -6.2639866405      -14.3755922861      -29.8824296465  W2        3054            0.0000000000
      9163      3055  TIP3      OH2            -9.9994166405       -0.5111422861      -32.3294896465  W2        3055            0.0000000000
      9164      3055  TIP3      H1             -9.8385466405        0.2886077139      -32.8302296465  W2        3055            0.0000000000
      9165      3055  TIP3      H2            -10.1966366405       -0.2045422861      -31.4444296465  W2        3055            0.0000000000
      9166      3056  TIP3      OH2           -11.2649766405      -13.8132222861      -32.7137296465  W2        3056            0.0000000000
      9167      3056  TIP3      H1            -11.3484966405      -12.9249122861      -32.3670896465  W2        3056            0.0000000000
      9168      3056  TIP3      H2            -10.3749466405      -14.0785522861      -32.4820496465  W2        3056            0.0000000000
      9169      3057  TIP3      OH2            -1.0661266405      -13.0641622861      -20.3194596465  W2        3057            0.0000000000
      9170      3057  TIP3      H1             -1.9825466405      -12.8019922861      -20.4070896465  W2        3057            0.0000000000
      9171      3057  TIP3      H2             -0.7306266405      -13.0672622861      -21.2159296465  W2        3057            0.0000000000
      9172      3058  TIP3      OH2            -2.4640266405       -9.3140622861      -26.2237296465  W2        3058            0.0000000000
      9173      3058  TIP3      H1             -3.2615866405       -9.7290422861      -26.5522296465  W2        3058            0.0000000000
      9174      3058  TIP3      H2             -2.0189166405      -10.0046922861      -25.7326796465  W2        3058            0.0000000000
      9175      3059  TIP3      OH2           -13.0064466405       -3.3860022861      -33.6532796465  W2        3059            0.0000000000
      9176      3059  TIP3      H1            -12.4142966405       -2.6865222861      -33.3770396465  W2        3059            0.0000000000
      9177      3059  TIP3      H2            -12.5471466405       -3.8190522861      -34.3728196465  W2        3059            0.0000000000
      9178      3060  TIP3      OH2           -14.6905266405      -10.7217022861      -34.5373396465  W2        3060            0.0000000000
      9179      3060  TIP3      H1            -14.7352666405       -9.7823922861      -34.3586396465  W2        3060            0.0000000000
      9180      3060  TIP3      H2            -15.5782066405      -10.9572122861      -34.8071296465  W2        3060            0.0000000000
      9181      3061  TIP3      OH2            -1.3775666405       -0.0578122861      -24.6013796465  W2        3061            0.0000000000
      9182      3061  TIP3      H1             -1.5331366405        0.6206277139      -25.2584496465  W2        3061            0.0000000000
      9183      3061  TIP3      H2             -0.4449266405        0.0141177139      -24.3983196465  W2        3061            0.0000000000
      9184      3062  TIP3      OH2           -13.8823266405      -15.9400422861      -25.8642396465  W2        3062            0.0000000000
      9185      3062  TIP3      H1            -14.1113466405      -15.8807922861      -26.7917396465  W2        3062            0.0000000000
      9186      3062  TIP3      H2            -14.3249866405      -16.7314922861      -25.5578296465  W2        3062            0.0000000000
      9187      3063  TIP3      OH2           -14.9519966405       -1.9993322861      -29.7036596465  W2        3063            0.0000000000
      9188      3063  TIP3      H1            -15.7841366405       -1.5270622861      -29.6765196465  W2        3063            0.0000000000
      9189      3063  TIP3      H2            -14.4061666405       -1.4895722861      -30.3023496465  W2        3063            0.0000000000
      9190      3064  TIP3      OH2           -15.6636266405        0.6130377139      -18.3738596465  W2        3064            0.0000000000
      9191      3064  TIP3      H1            -15.1234066405        0.3964377139      -17.6139396465  W2        3064            0.0000000000
      9192      3064  TIP3      H2            -16.1448266405       -0.1923622861      -18.5636096465  W2        3064            0.0000000000
      9193      3065  TIP3      OH2           -11.0662866405       -0.4675222861      -16.7534396465  W2        3065            0.0000000000
      9194      3065  TIP3      H1            -10.2985666405       -0.9264422861      -16.4125196465  W2        3065            0.0000000000
      9195      3065  TIP3      H2            -11.0876666405       -0.6935422861      -17.6833196465  W2        3065            0.0000000000
      9196      3066  TIP3      OH2            -6.9743266405       -0.9594622861      -35.3782596465  W2        3066            0.0000000000
      9197      3066  TIP3      H1             -7.6182266405       -1.5906022861      -35.0568896465  W2        3066            0.0000000000
      9198      3066  TIP3      H2             -6.2124966405       -1.4906622861      -35.6099096465  W2        3066            0.0000000000
      9199      3067  TIP3      OH2            -4.4894166405       -2.0874122861      -18.0242896465  W2        3067            0.0000000000
      9200      3067  TIP3      H1             -4.8404666405       -2.9441122861      -17.7812496465  W2        3067            0.0000000000
      9201      3067  TIP3      H2             -3.7630966405       -1.9447422861      -17.4173896465  W2        3067            0.0000000000
      9202      3068  TIP3      OH2            -2.3700366405       -1.1424722861      -35.1444596465  W2        3068            0.0000000000
      9203      3068  TIP3      H1             -2.0869966405       -1.9369522861      -34.6917696465  W2        3068            0.0000000000
      9204      3068  TIP3      H2             -1.6302466405       -0.9093722861      -35.7053496465  W2        3068            0.0000000000
      9205      3069  TIP3      OH2           -15.7566766405       -5.5765522861      -17.4194296465  W2        3069            0.0000000000
      9206      3069  TIP3      H1            -15.6126266405       -6.4784822861      -17.7057596465  W2        3069            0.0000000000
      9207      3069  TIP3      H2            -16.5289366405       -5.2903422861      -17.9071996465  W2        3069            0.0000000000
      9208      3070  TIP3      OH2           -11.4153066405       -5.2329822861      -35.2869696465  W2        3070            0.0000000000
      9209      3070  TIP3      H1            -11.3508966405       -6.0270222861      -34.7563296465  W2        3070            0.0000000000
      9210      3070  TIP3      H2            -10.7623866405       -5.3517022861      -35.9767696465  W2        3070            0.0000000000
      9211      3071  TIP3      OH2            -9.1010666405       -5.6067422861      -17.9867896465  W2        3071            0.0000000000
      9212      3071  TIP3      H1             -9.4296866405       -5.3359322861      -18.8440496465  W2        3071            0.0000000000
      9213      3071  TIP3      H2             -8.9492466405       -6.5477622861      -18.0742896465  W2        3071            0.0000000000
      9214      3072  TIP3      OH2            -6.0629666405       -4.1858122861      -35.5511696465  W2        3072            0.0000000000
      9215      3072  TIP3      H1             -6.3315566405       -4.0056022861      -34.6502796465  W2        3072            0.0000000000
      9216      3072  TIP3      H2             -6.2694066405       -5.1111922861      -35.6825896465  W2        3072            0.0000000000
      9217      3073  TIP3      OH2            -3.3665466405       -5.6910122861      -20.6035596465  W2        3073            0.0000000000
      9218      3073  TIP3      H1             -2.6210666405       -5.1026422861      -20.7231596465  W2        3073            0.0000000000
      9219      3073  TIP3      H2             -4.1238666405       -5.1090422861      -20.5402496465  W2        3073            0.0000000000
      9220      3074  TIP3      OH2           -14.9240266405       -8.3762222861      -17.9994996465  W2        3074            0.0000000000
      9221      3074  TIP3      H1            -14.5159066405       -9.2335622861      -18.1204396465  W2        3074            0.0000000000
      9222      3074  TIP3      H2            -15.1842666405       -8.3620922861      -17.0784696465  W2        3074            0.0000000000
      9223      3075  TIP3      OH2           -10.2659266405       -7.2603622861      -32.9811696465  W2        3075            0.0000000000
      9224      3075  TIP3      H1            -10.7257266405       -7.7445322861      -32.2953196465  W2        3075            0.0000000000
      9225      3075  TIP3      H2            -10.0110566405       -7.9288222861      -33.6171196465  W2        3075            0.0000000000
      9226      3076  TIP3      OH2           -10.9769966405       -9.3676522861      -20.6252096465  W2        3076            0.0000000000
      9227      3076  TIP3      H1            -11.5953866405       -8.6929922861      -20.3447396465  W2        3076            0.0000000000
      9228      3076  TIP3      H2            -10.6328766405       -9.0462622861      -21.4585896465  W2        3076            0.0000000000
      9229      3077  TIP3      OH2            -9.1948866405       -9.0171822861      -34.7188496465  W2        3077            0.0000000000
      9230      3077  TIP3      H1             -9.3753866405       -9.1720622861      -35.6460196465  W2        3077            0.0000000000
      9231      3077  TIP3      H2             -8.2448366405       -8.9093122861      -34.6740596465  W2        3077            0.0000000000
      9232      3078  TIP3      OH2            -5.9571766405       -6.8961222861      -17.3477296465  W2        3078            0.0000000000
      9233      3078  TIP3      H1             -5.0040566405       -6.8122122861      -17.3751296465  W2        3078            0.0000000000
      9234      3078  TIP3      H2             -6.1177166405       -7.6079422861      -16.7282396465  W2        3078            0.0000000000
      9235      3079  TIP3      OH2             0.1949433595       -6.6627622861      -35.2730396465  W2        3079            0.0000000000
      9236      3079  TIP3      H1             -0.0785766405       -7.0872122861      -36.0862096465  W2        3079            0.0000000000
      9237      3079  TIP3      H2              0.2343533595       -5.7313122861      -35.4899996465  W2        3079            0.0000000000
      9238      3080  TIP3      OH2           -10.6376266405      -12.0125722861      -19.5428996465  W2        3080            0.0000000000
      9239      3080  TIP3      H1            -10.4875366405      -12.7414422861      -20.1449296465  W2        3080            0.0000000000
      9240      3080  TIP3      H2            -10.6353866405      -11.2354022861      -20.1016796465  W2        3080            0.0000000000
      9241      3081  TIP3      OH2           -10.2250566405      -13.6429922861      -22.0501596465  W2        3081            0.0000000000
      9242      3081  TIP3      H1             -9.6893066405      -13.1913222861      -22.7022296465  W2        3081            0.0000000000
      9243      3081  TIP3      H2            -11.0770966405      -13.7510122861      -22.4727496465  W2        3081            0.0000000000
      9244      3082  TIP3      OH2            -8.6432166405       -8.2033722861      -21.8106396465  W2        3082            0.0000000000
      9245      3082  TIP3      H1             -7.8927366405       -8.3596222861      -22.3838596465  W2        3082            0.0000000000
      9246      3082  TIP3      H2             -8.9823866405       -7.3517122861      -22.0860896465  W2        3082            0.0000000000
      9247      3083  TIP3      OH2            -4.2275966405      -10.3881922861      -16.7821096465  W2        3083            0.0000000000
      9248      3083  TIP3      H1             -4.0354666405      -11.3192522861      -16.8936596465  W2        3083            0.0000000000
      9249      3083  TIP3      H2             -3.3699666405       -9.9632422861      -16.7925696465  W2        3083            0.0000000000
      9250      3084  TIP3      OH2            -2.9108766405       -7.5996722861      -18.7048396465  W2        3084            0.0000000000
      9251      3084  TIP3      H1             -3.1923766405       -6.8902122861      -19.2824596465  W2        3084            0.0000000000
      9252      3084  TIP3      H2             -1.9684466405       -7.6723722861      -18.8557196465  W2        3084            0.0000000000
      9253      3085  TIP3      OH2           -12.1589966405      -10.8142222861      -17.6313396465  W2        3085            0.0000000000
      9254      3085  TIP3      H1            -12.9260966405      -11.3467422861      -17.8415796465  W2        3085            0.0000000000
      9255      3085  TIP3      H2            -11.4800966405      -11.1241822861      -18.2307096465  W2        3085            0.0000000000
      9256      3086  TIP3      OH2            -9.4195066405      -16.1864222861      -21.6187996465  W2        3086            0.0000000000
      9257      3086  TIP3      H1             -9.5175466405      -15.2401022861      -21.7241796465  W2        3086            0.0000000000
      9258      3086  TIP3      H2            -10.1618866405      -16.5590422861      -22.0944496465  W2        3086            0.0000000000
      9259      3087  TIP3      OH2            -8.1554566405      -11.8648822861      -18.0549596465  W2        3087            0.0000000000
      9260      3087  TIP3      H1             -8.3909166405      -12.0842122861      -17.1534696465  W2        3087            0.0000000000
      9261      3087  TIP3      H2             -8.9387666405      -12.0717622861      -18.5647096465  W2        3087            0.0000000000
      9262      3088  TIP3      OH2            -5.4397966405      -12.7375322861      -18.9796096465  W2        3088            0.0000000000
      9263      3088  TIP3      H1             -6.3872566405      -12.7055622861      -18.8472796465  W2        3088            0.0000000000
      9264      3088  TIP3      H2             -5.1271266405      -13.3628222861      -18.3257896465  W2        3088            0.0000000000
      9265      3089  TIP3      OH2            -3.8056466405      -14.1034222861      -16.9744196465  W2        3089            0.0000000000
      9266      3089  TIP3      H1             -3.9024666405      -15.0556922861      -16.9802296465  W2        3089            0.0000000000
      9267      3089  TIP3      H2             -4.1273366405      -13.8347422861      -16.1138696465  W2        3089            0.0000000000
      9268      3090  TIP3      OH2           -13.9787166405      -12.8938422861      -17.9268696465  W2        3090            0.0000000000
      9269      3090  TIP3      H1            -13.7669766405      -13.6002322861      -18.5371196465  W2        3090            0.0000000000
      9270      3090  TIP3      H2            -14.0899666405      -13.3312422861      -17.0827496465  W2        3090            0.0000000000
      9271      3091  TIP3      OH2            -9.1976966405      -16.8926822861      -18.9475196465  W2        3091            0.0000000000
      9272      3091  TIP3      H1             -8.4858566405      -17.5324622861      -18.9616096465  W2        3091            0.0000000000
      9273      3091  TIP3      H2             -9.2986566405      -16.6258522861      -19.8612096465  W2        3091            0.0000000000
      9274      3092  TIP3      OH2            -8.8439466405      -15.2098422861      -16.8938896465  W2        3092            0.0000000000
      9275      3092  TIP3      H1             -8.9757266405      -15.6854622861      -17.7140396465  W2        3092            0.0000000000
      9276      3092  TIP3      H2             -9.4432066405      -14.4654822861      -16.9491796465  W2        3092            0.0000000000
      9277      3093  TIP3      OH2            -9.2977166405        1.6731877139      -33.7174896465  W2        3093            0.0000000000
      9278      3093  TIP3      H1             -8.3646466405        1.8310577139      -33.5736496465  W2        3093            0.0000000000
      9279      3093  TIP3      H2             -9.5618366405        2.3484877139      -34.3423396465  W2        3093            0.0000000000
      9280      3094  TIP3      OH2           -15.7292266405       -3.6904322861      -34.2346796465  W2        3094            0.0000000000
      9281      3094  TIP3      H1            -14.8153066405       -3.6115422861      -33.9612896465  W2        3094            0.0000000000
      9282      3094  TIP3      H2            -15.7219166405       -4.3774722861      -34.9011196465  W2        3094            0.0000000000
      9283      3095  TIP3      OH2           -17.0801666405        1.7024177139      -29.1572896465  W2        3095            0.0000000000
      9284      3095  TIP3      H1            -17.7274566405        1.2405877139      -29.6901696465  W2        3095            0.0000000000
      9285      3095  TIP3      H2            -16.7257066405        1.0307477139      -28.5746696465  W2        3095            0.0000000000
      9286      3096  TIP3      OH2           -16.2102466405       -0.2168822861      -27.3526696465  W2        3096            0.0000000000
      9287      3096  TIP3      H1            -16.5445666405       -1.0971522861      -27.1806496465  W2        3096            0.0000000000
      9288      3096  TIP3      H2            -15.9880066405        0.1286177139      -26.4881096465  W2        3096            0.0000000000
      9289      3097  TIP3      OH2             1.3382333595        0.5927577139      -24.3721896465  W2        3097            0.0000000000
      9290      3097  TIP3      H1              1.3169033595        0.7775977139      -23.4332496465  W2        3097            0.0000000000
      9291      3097  TIP3      H2              2.0288533595        1.1611577139      -24.7130496465  W2        3097            0.0000000000
      9292      3098  TIP3      OH2             0.9015233595        0.1598677139      -21.4502796465  W2        3098            0.0000000000
      9293      3098  TIP3      H1              0.4143933595       -0.5757222861      -21.8215396465  W2        3098            0.0000000000
      9294      3098  TIP3      H2              1.4507933595       -0.2337422861      -20.7723396465  W2        3098            0.0000000000
      9295      3099  TIP3      OH2            -0.6477466405       -4.0503222861      -16.8122496465  W2        3099            0.0000000000
      9296      3099  TIP3      H1             -1.5136366405       -4.1553522861      -16.4180196465  W2        3099            0.0000000000
      9297      3099  TIP3      H2             -0.2711566405       -3.2919922861      -16.3657796465  W2        3099            0.0000000000
      9298      3100  TIP3      OH2             0.6532233595       -5.7939522861      -31.2979996465  W2        3100            0.0000000000
      9299      3100  TIP3      H1              1.5033633595       -5.3728622861      -31.1708396465  W2        3100            0.0000000000
      9300      3100  TIP3      H2              0.6587333595       -6.5339422861      -30.6908596465  W2        3100            0.0000000000
      9301      3101  TIP3      OH2             1.0477833595       -7.7402122861      -29.4744296465  W2        3101            0.0000000000
      9302      3101  TIP3      H1              0.3212433595       -8.2199522861      -29.0766696465  W2        3101            0.0000000000
      9303      3101  TIP3      H2              1.6291133595       -7.5347422861      -28.7422696465  W2        3101            0.0000000000
      9304      3102  TIP3      OH2             0.8069033595       -4.9554622861      -24.5266696465  W2        3102            0.0000000000
      9305      3102  TIP3      H1              1.6403233595       -5.3334622861      -24.8073096465  W2        3102            0.0000000000
      9306      3102  TIP3      H2              0.9189333595       -4.0123422861      -24.6457596465  W2        3102            0.0000000000
      9307      3103  TIP3      OH2            -0.7068666405       -2.0777122861      -22.2198296465  W2        3103            0.0000000000
      9308      3103  TIP3      H1             -1.3543366405       -1.7525622861      -21.5943096465  W2        3103            0.0000000000
      9309      3103  TIP3      H2             -1.2244666405       -2.5179422861      -22.8939996465  W2        3103            0.0000000000
      9310      3104  TIP3      OH2             1.3160933595       -7.8393622861      -33.0832996465  W2        3104            0.0000000000
      9311      3104  TIP3      H1              0.7942033595       -7.4829522861      -33.8022096465  W2        3104            0.0000000000
      9312      3104  TIP3      H2              1.2830133595       -7.1645822861      -32.4052096465  W2        3104            0.0000000000
      9313      3105  TIP3      OH2            -0.3350066405      -10.5998022861      -34.5325896465  W2        3105            0.0000000000
      9314      3105  TIP3      H1             -0.2385666405       -9.9331022861      -35.2126196465  W2        3105            0.0000000000
      9315      3105  TIP3      H2             -0.4750466405      -11.4151722861      -35.0140396465  W2        3105            0.0000000000
      9316      3106  TIP3      OH2            -1.1655366405       -9.2195622861      -28.9115596465  W2        3106            0.0000000000
      9317      3106  TIP3      H1             -1.3156566405      -10.1647022861      -28.9317796465  W2        3106            0.0000000000
      9318      3106  TIP3      H2             -1.5190866405       -8.9384222861      -28.0676496465  W2        3106            0.0000000000
      9319      3107  TIP3      OH2           -16.1302966405       -7.1413422861      -24.9011796465  W2        3107            0.0000000000
      9320      3107  TIP3      H1            -15.9460066405       -7.2231722861      -25.8368896465  W2        3107            0.0000000000
      9321      3107  TIP3      H2            -15.2810066405       -7.2656422861      -24.4775396465  W2        3107            0.0000000000
      9322      3108  TIP3      OH2            -0.3092466405       -7.2492322861      -19.2727296465  W2        3108            0.0000000000
      9323      3108  TIP3      H1              0.2734833595       -7.9840022861      -19.0810096465  W2        3108            0.0000000000
      9324      3108  TIP3      H2              0.2546833595       -6.4772022861      -19.2261496465  W2        3108            0.0000000000
      9325      3109  TIP3      OH2             1.1874633595       -9.3466522861      -18.5881896465  W2        3109            0.0000000000
      9326      3109  TIP3      H1              0.3241333595       -9.7254422861      -18.7537196465  W2        3109            0.0000000000
      9327      3109  TIP3      H2              1.7918333595      -10.0851722861      -18.6626096465  W2        3109            0.0000000000
      9328      3110  TIP3      OH2            -1.0876266405      -13.1918222861      -35.4150396465  W2        3110            0.0000000000
      9329      3110  TIP3      H1             -0.4770466405      -13.5631422861      -34.7782196465  W2        3110            0.0000000000
      9330      3110  TIP3      H2             -1.9244766405      -13.6131322861      -35.2190396465  W2        3110            0.0000000000
      9331      3111  TIP3      OH2            -1.4550566405      -11.6369822861      -30.4490496465  W2        3111            0.0000000000
      9332      3111  TIP3      H1             -1.1753466405      -12.5439422861      -30.3248796465  W2        3111            0.0000000000
      9333      3111  TIP3      H2             -0.6958866405      -11.2028322861      -30.8381296465  W2        3111            0.0000000000
      9334      3112  TIP3      OH2            -0.8432266405      -11.0552422861      -25.0131596465  W2        3112            0.0000000000
      9335      3112  TIP3      H1              0.0895733595      -10.8432522861      -25.0475596465  W2        3112            0.0000000000
      9336      3112  TIP3      H2             -1.0784766405      -10.9540322861      -24.0908596465  W2        3112            0.0000000000
      9337      3113  TIP3      OH2            -0.8140366405      -10.3187122861      -22.2372196465  W2        3113            0.0000000000
      9338      3113  TIP3      H1             -1.6569066405      -10.0506722861      -21.8712396465  W2        3113            0.0000000000
      9339      3113  TIP3      H2             -0.3716066405       -9.4965222861      -22.4481096465  W2        3113            0.0000000000
      9340      3114  TIP3      OH2           -16.5328166405      -11.8708422861      -18.7602996465  W2        3114            0.0000000000
      9341      3114  TIP3      H1            -15.6133266405      -11.9930122861      -18.5239896465  W2        3114            0.0000000000
      9342      3114  TIP3      H2            -16.9823666405      -12.6208722861      -18.3709496465  W2        3114            0.0000000000
      9343      3115  TIP3      OH2             1.4691233595      -16.3386922861      -16.8837196465  W2        3115            0.0000000000
      9344      3115  TIP3      H1              1.8188233595      -16.9923422861      -17.4892496465  W2        3115            0.0000000000
      9345      3115  TIP3      H2              1.6160733595      -15.5012822861      -17.3234596465  W2        3115            0.0000000000
      9346      3116  TIP3      OH2            -0.8415766405      -14.3740522861      -30.4008496465  W2        3116            0.0000000000
      9347      3116  TIP3      H1             -0.6590766405      -14.8229022861      -29.5753496465  W2        3116            0.0000000000
      9348      3116  TIP3      H2             -1.4412866405      -14.9586122861      -30.8643896465  W2        3116            0.0000000000
      9349      3117  TIP3      OH2           -15.3115666405      -13.5586822861      -25.8690096465  W2        3117            0.0000000000
      9350      3117  TIP3      H1            -14.8664066405      -14.3504322861      -25.5670396465  W2        3117            0.0000000000
      9351      3117  TIP3      H2            -14.8452666405      -12.8421622861      -25.4384496465  W2        3117            0.0000000000
      9352      3118  TIP3      OH2           -17.0075366405      -10.5593822861      -24.7999896465  W2        3118            0.0000000000
      9353      3118  TIP3      H1            -16.5155566405      -10.7803322861      -25.5907896465  W2        3118            0.0000000000
      9354      3118  TIP3      H2            -16.6454466405       -9.7190422861      -24.5190396465  W2        3118            0.0000000000
      9355      3119  TIP3      OH2             0.9888433595      -14.2292322861      -18.5345896465  W2        3119            0.0000000000
      9356      3119  TIP3      H1              0.0714133595      -13.9585222861      -18.5702396465  W2        3119            0.0000000000
      9357      3119  TIP3      H2              1.1117833595      -14.7643922861      -19.3186196465  W2        3119            0.0000000000
      9358      3120  TIP3      OH2             1.0250433595      -14.3062422861      -33.8728196465  W2        3120            0.0000000000
      9359      3120  TIP3      H1              1.4373033595      -15.0276722861      -34.3480196465  W2        3120            0.0000000000
      9360      3120  TIP3      H2              1.7066933595      -13.6367822861      -33.8143896465  W2        3120            0.0000000000
      9361      3121  TIP3      OH2           -16.6938866405      -14.3014722861      -30.7457496465  W2        3121            0.0000000000
      9362      3121  TIP3      H1            -17.6190466405      -14.0928122861      -30.8751996465  W2        3121            0.0000000000
      9363      3121  TIP3      H2            -16.2398966405      -13.8173922861      -31.4355196465  W2        3121            0.0000000000
      9364      3122  TIP3      OH2            -1.9231666405        0.6826977139      -28.8000096465  W2        3122            0.0000000000
      9365      3122  TIP3      H1             -1.2708766405        0.3349077139      -29.4080996465  W2        3122            0.0000000000
      9366      3122  TIP3      H2             -1.4127866405        1.1710177139      -28.1540396465  W2        3122            0.0000000000
      9367      3123  TIP3      OH2           -16.7303466405      -15.5635722861      -22.4014996465  W2        3123            0.0000000000
      9368      3123  TIP3      H1            -17.3952966405      -15.8095422861      -21.7584096465  W2        3123            0.0000000000
      9369      3123  TIP3      H2            -17.1732166405      -14.9415322861      -22.9786996465  W2        3123            0.0000000000
      9370      3124  TIP3      OH2           -14.5384166405       -2.3881622861      -18.2569196465  W2        3124            0.0000000000
      9371      3124  TIP3      H1            -15.3591666405       -2.2135122861      -18.7174496465  W2        3124            0.0000000000
      9372      3124  TIP3      H2            -14.7906366405       -2.4616922861      -17.3364796465  W2        3124            0.0000000000
      9373      3125  TIP3      OH2           -11.5841266405       -1.4140422861      -21.9985196465  W2        3125            0.0000000000
      9374      3125  TIP3      H1            -12.0090166405       -0.6041922861      -22.2810596465  W2        3125            0.0000000000
      9375      3125  TIP3      H2            -10.6798466405       -1.3286322861      -22.3005396465  W2        3125            0.0000000000
      9376      3126  TIP3      OH2            -7.2729866405       -0.0150422861      -19.0391496465  W2        3126            0.0000000000
      9377      3126  TIP3      H1             -7.0882366405       -0.3484322861      -18.1611196465  W2        3126            0.0000000000
      9378      3126  TIP3      H2             -6.4265366405        0.2948177139      -19.3612296465  W2        3126            0.0000000000
      9379      3127  TIP3      OH2            -4.9279466405        1.2708477139      -19.7950096465  W2        3127            0.0000000000
      9380      3127  TIP3      H1             -4.2510566405        0.6380777139      -20.0350896465  W2        3127            0.0000000000
      9381      3127  TIP3      H2             -4.6060666405        1.6718977139      -18.9876796465  W2        3127            0.0000000000
      9382      3128  TIP3      OH2            -0.0105666405      -16.1396022861      -20.7155096465  W2        3128            0.0000000000
      9383      3128  TIP3      H1             -0.8232166405      -15.8145722861      -21.1030396465  W2        3128            0.0000000000
      9384      3128  TIP3      H2              0.2222833595      -16.8997522861      -21.2485996465  W2        3128            0.0000000000
      9385      3129  TIP3      OH2           -14.1824566405        1.8423477139      -21.9509896465  W2        3129            0.0000000000
      9386      3129  TIP3      H1            -14.9028166405        2.2824477139      -22.4022196465  W2        3129            0.0000000000
      9387      3129  TIP3      H2            -14.5480566405        1.5918177139      -21.1025896465  W2        3129            0.0000000000
      9388      3130  TIP3      OH2           -11.7151966405        1.4427377139      -22.9212696465  W2        3130            0.0000000000
      9389      3130  TIP3      H1            -12.5799766405        1.5145877139      -22.5172596465  W2        3130            0.0000000000
      9390      3130  TIP3      H2            -11.7702966405        1.9894677139      -23.7050196465  W2        3130            0.0000000000
      9391      3131  TIP3      OH2            -7.0046366405        1.3306277139      -23.7456696465  W2        3131            0.0000000000
      9392      3131  TIP3      H1             -7.4612366405        1.8595977139      -24.3998296465  W2        3131            0.0000000000
      9393      3131  TIP3      H2             -6.8418366405        1.9337677139      -23.0204396465  W2        3131            0.0000000000
      9394      3132  TIP3      OH2            -4.6770066405        0.2085877139      -22.8006396465  W2        3132            0.0000000000
      9395      3132  TIP3      H1             -5.5816366405        0.3736077139      -23.0664296465  W2        3132            0.0000000000
      9396      3132  TIP3      H2             -4.2481466405        1.0618077139      -22.8662996465  W2        3132            0.0000000000
      9397      3133  TIP3      OH2            -2.0728166405        1.7784977139      -22.5058596465  W2        3133            0.0000000000
      9398      3133  TIP3      H1             -2.2546166405        2.6943877139      -22.7163696465  W2        3133            0.0000000000
      9399      3133  TIP3      H2             -1.8960366405        1.3682077139      -23.3523996465  W2        3133            0.0000000000
      9400      3134  TIP3      OH2           -14.7676466405        0.4655977139      -25.0408096465  W2        3134            0.0000000000
      9401      3134  TIP3      H1            -14.7860466405        0.0401077139      -24.1835796465  W2        3134            0.0000000000
      9402      3134  TIP3      H2            -13.9628566405        0.1470977139      -25.4495896465  W2        3134            0.0000000000
      9403      3135  TIP3      OH2           -12.6263366405       -0.8245322861      -26.3858196465  W2        3135            0.0000000000
      9404      3135  TIP3      H1            -12.8452666405       -1.7407922861      -26.2162196465  W2        3135            0.0000000000
      9405      3135  TIP3      H2            -11.8021166405       -0.6844922861      -25.9196796465  W2        3135            0.0000000000
      9406      3136  TIP3      OH2           -10.0890866405       -0.3546022861      -25.5370196465  W2        3136            0.0000000000
      9407      3136  TIP3      H1             -9.8765166405       -1.2427022861      -25.8239296465  W2        3136            0.0000000000
      9408      3136  TIP3      H2            -10.0245766405       -0.3888322861      -24.5826196465  W2        3136            0.0000000000
      9409      3137  TIP3      OH2            -6.5807166405      -14.6905422861      -26.3926896465  W2        3137            0.0000000000
      9410      3137  TIP3      H1             -7.2550366405      -15.3199822861      -26.1371096465  W2        3137            0.0000000000
      9411      3137  TIP3      H2             -6.0167966405      -15.1746522861      -26.9958996465  W2        3137            0.0000000000
      9412      3138  TIP3      OH2            -1.4379966405      -16.5831422861      -26.2799796465  W2        3138            0.0000000000
      9413      3138  TIP3      H1             -0.8342366405      -16.0356022861      -26.7818796465  W2        3138            0.0000000000
      9414      3138  TIP3      H2             -2.3077966405      -16.2641022861      -26.5205696465  W2        3138            0.0000000000
      9415      3139  TIP3      OH2             0.2890433595      -15.4442722861      -27.9468896465  W2        3139            0.0000000000
      9416      3139  TIP3      H1              0.9007933595      -15.9587022861      -28.4735296465  W2        3139            0.0000000000
      9417      3139  TIP3      H2              0.6713833595      -14.5670622861      -27.9234496465  W2        3139            0.0000000000
      9418      3140  TIP3      OH2           -14.2539666405      -16.0565122861      -28.5706996465  W2        3140            0.0000000000
      9419      3140  TIP3      H1            -15.0309866405      -16.2910222861      -29.0781096465  W2        3140            0.0000000000
      9420      3140  TIP3      H2            -13.7236066405      -16.8533022861      -28.5618996465  W2        3140            0.0000000000
      9421      3141  TIP3      OH2           -15.4176266405      -16.2587022861      -32.7670896465  W2        3141            0.0000000000
      9422      3141  TIP3      H1            -14.9785566405      -15.6476522861      -33.3587396465  W2        3141            0.0000000000
      9423      3141  TIP3      H2            -16.0513866405      -15.7202922861      -32.2930896465  W2        3141            0.0000000000
      9424      3142  TIP3      OH2            -9.6747066405      -16.1298022861      -28.7573896465  W2        3142            0.0000000000
      9425      3142  TIP3      H1             -8.8003666405      -15.7413722861      -28.7869596465  W2        3142            0.0000000000
      9426      3142  TIP3      H2             -9.8106266405      -16.3450222861      -27.8346696465  W2        3142            0.0000000000
      9427      3143  TIP3      OH2            -4.1178666405      -16.0998222861      -27.1082196465  W2        3143            0.0000000000
      9428      3143  TIP3      H1             -4.0417066405      -16.0046622861      -28.0576196465  W2        3143            0.0000000000
      9429      3143  TIP3      H2             -4.3929466405      -17.0075322861      -26.9793096465  W2        3143            0.0000000000
      9430      3144  TIP3      OH2            -2.7646066405      -16.0740422861      -31.4157196465  W2        3144            0.0000000000
      9431      3144  TIP3      H1             -3.4674966405      -15.4591222861      -31.6255796465  W2        3144            0.0000000000
      9432      3144  TIP3      H2             -3.2094666405      -16.9113722861      -31.2846296465  W2        3144            0.0000000000
      9433      3145  TIP3      OH2           -15.5166766405       -0.3104822861      -31.8695796465  W2        3145            0.0000000000
      9434      3145  TIP3      H1            -16.2016866405       -0.3485922861      -32.5370696465  W2        3145            0.0000000000
      9435      3145  TIP3      H2            -15.5129566405        0.6022777139      -31.5813696465  W2        3145            0.0000000000
      9436      3146  TIP3      OH2           -13.5567166405      -14.3425522861      -34.3246796465  W2        3146            0.0000000000
      9437      3146  TIP3      H1            -13.0653766405      -14.9723122861      -34.8521296465  W2        3146            0.0000000000
      9438      3146  TIP3      H2            -12.9330866405      -14.0466122861      -33.6615596465  W2        3146            0.0000000000
      9439      3147  TIP3      OH2            -8.5307066405      -14.0494022861      -31.8676296465  W2        3147            0.0000000000
      9440      3147  TIP3      H1             -8.3525766405      -14.6960822861      -31.1847696465  W2        3147            0.0000000000
      9441      3147  TIP3      H2             -8.5840866405      -13.2156322861      -31.4005196465  W2        3147            0.0000000000
      9442      3148  TIP3      OH2            -6.6523266405        0.8990077139      -33.4719596465  W2        3148            0.0000000000
      9443      3148  TIP3      H1             -5.7863066405        1.2657477139      -33.6501396465  W2        3148            0.0000000000
      9444      3148  TIP3      H2             -6.8990466405        0.4598077139      -34.2858796465  W2        3148            0.0000000000
      9445      3149  TIP3      OH2             0.0566333595        0.4620377139      -30.7928496465  W2        3149            0.0000000000
      9446      3149  TIP3      H1             -0.1376566405       -0.2857522861      -31.3578896465  W2        3149            0.0000000000
      9447      3149  TIP3      H2              0.0176433595        1.2200477139      -31.3760596465  W2        3149            0.0000000000
      9448      3150  TIP3      OH2           -14.2961666405      -15.5423222861      -19.0530796465  W2        3150            0.0000000000
      9449      3150  TIP3      H1            -14.6623466405      -16.3080622861      -18.6106096465  W2        3150            0.0000000000
      9450      3150  TIP3      H2            -13.3833166405      -15.5133022861      -18.7665696465  W2        3150            0.0000000000
      9451      3151  TIP3      OH2           -12.3230866405      -16.1918822861      -17.5173696465  W2        3151            0.0000000000
      9452      3151  TIP3      H1            -11.4247266405      -16.4658622861      -17.7020296465  W2        3151            0.0000000000
      9453      3151  TIP3      H2            -12.7097766405      -16.9342822861      -17.0531096465  W2        3151            0.0000000000
      9454      3152  TIP3      OH2           -13.6985566405        0.6095977139      -34.8443696465  W2        3152            0.0000000000
      9455      3152  TIP3      H1            -13.9660966405        0.8958877139      -33.9710596465  W2        3152            0.0000000000
      9456      3152  TIP3      H2            -12.9272966405        0.0635177139      -34.6921196465  W2        3152            0.0000000000
      9457      3153  TIP3      OH2            -3.9018566405      -16.8593522861      -17.3350896465  W2        3153            0.0000000000
      9458      3153  TIP3      H1             -3.8251366405      -17.2852822861      -16.4813196465  W2        3153            0.0000000000
      9459      3153  TIP3      H2             -3.0081966405      -16.8458822861      -17.6777396465  W2        3153            0.0000000000
      9460      3154  TIP3      OH2            -0.7257466405       -0.7867222861      -18.6426696465  W2        3154            0.0000000000
      9461      3154  TIP3      H1             -1.5075566405       -0.9729222861      -19.1626096465  W2        3154            0.0000000000
      9462      3154  TIP3      H2             -0.7977566405        0.1427077139      -18.4254196465  W2        3154            0.0000000000
      9463      3155  TIP3      OH2            13.6802933595       -6.9002822861      -28.6119496465  W2        3155            0.0000000000
      9464      3155  TIP3      H1             13.7694033595       -5.9564622861      -28.7442396465  W2        3155            0.0000000000
      9465      3155  TIP3      H2             13.0420533595       -7.1756422861      -29.2700096465  W2        3155            0.0000000000
      9466      3156  TIP3      OH2            12.6134233595       -7.6452122861      -25.1931296465  W2        3156            0.0000000000
      9467      3156  TIP3      H1             12.5751733595       -8.2915822861      -24.4881696465  W2        3156            0.0000000000
      9468      3156  TIP3      H2             12.2910733595       -8.1117722861      -25.9642596465  W2        3156            0.0000000000
      9469      3157  TIP3      OH2             4.9819233595       -8.0310022861      -23.6001396465  W2        3157            0.0000000000
      9470      3157  TIP3      H1              5.0231333595       -8.6566722861      -22.8768996465  W2        3157            0.0000000000
      9471      3157  TIP3      H2              5.6846933595       -7.4071422861      -23.4180996465  W2        3157            0.0000000000
      9472      3158  TIP3      OH2            16.3194433595       -4.7061722861      -26.8916196465  W2        3158            0.0000000000
      9473      3158  TIP3      H1             15.8787133595       -5.4265722861      -26.4410596465  W2        3158            0.0000000000
      9474      3158  TIP3      H2             16.3064133595       -3.9854522861      -26.2618496465  W2        3158            0.0000000000
      9475      3159  TIP3      OH2             5.9052333595       -3.5811122861      -25.0652296465  W2        3159            0.0000000000
      9476      3159  TIP3      H1              5.5357533595       -4.3830622861      -25.4347996465  W2        3159            0.0000000000
      9477      3159  TIP3      H2              6.8463433595       -3.7496222861      -25.0188896465  W2        3159            0.0000000000
      9478      3160  TIP3      OH2             2.5152833595       -9.9208522861      -29.6723496465  W2        3160            0.0000000000
      9479      3160  TIP3      H1              2.0676233595       -9.0749822861      -29.6906996465  W2        3160            0.0000000000
      9480      3160  TIP3      H2              1.9544033595      -10.5004322861      -30.1878396465  W2        3160            0.0000000000
      9481      3161  TIP3      OH2             3.2258933595       -7.7588922861      -27.5465496465  W2        3161            0.0000000000
      9482      3161  TIP3      H1              3.4392433595       -8.5287322861      -27.0192496465  W2        3161            0.0000000000
      9483      3161  TIP3      H2              3.9636533595       -7.6692222861      -28.1497896465  W2        3161            0.0000000000
      9484      3162  TIP3      OH2            13.4309933595        0.3979977139      -26.6795796465  W2        3162            0.0000000000
      9485      3162  TIP3      H1             14.0506333595       -0.2785322861      -26.9526596465  W2        3162            0.0000000000
      9486      3162  TIP3      H2             13.2227333595        0.1800777139      -25.7710896465  W2        3162            0.0000000000
      9487      3163  TIP3      OH2            11.0028633595       -5.2130722861      -24.7870296465  W2        3163            0.0000000000
      9488      3163  TIP3      H1             11.3066533595       -5.8989322861      -25.3816196465  W2        3163            0.0000000000
      9489      3163  TIP3      H2             11.7242633595       -5.0942022861      -24.1692296465  W2        3163            0.0000000000
      9490      3164  TIP3      OH2            19.6658433595      -13.6115422861      -23.9264096465  W2        3164            0.0000000000
      9491      3164  TIP3      H1             19.7150633595      -13.0014222861      -23.1904996465  W2        3164            0.0000000000
      9492      3164  TIP3      H2             20.0913533595      -13.1504522861      -24.6492996465  W2        3164            0.0000000000
      9493      3165  TIP3      OH2            14.1435633595      -10.8188322861      -24.4595496465  W2        3165            0.0000000000
      9494      3165  TIP3      H1             14.2861533595      -11.7651322861      -24.4393896465  W2        3165            0.0000000000
      9495      3165  TIP3      H2             14.0374633595      -10.6118522861      -25.3880596465  W2        3165            0.0000000000
      9496      3166  TIP3      OH2             7.2983933595      -12.7171922861      -27.1870696465  W2        3166            0.0000000000
      9497      3166  TIP3      H1              7.3415033595      -11.8573422861      -27.6054396465  W2        3166            0.0000000000
      9498      3166  TIP3      H2              6.8408033595      -13.2697222861      -27.8207496465  W2        3166            0.0000000000
      9499      3167  TIP3      OH2            15.0206633595      -12.5866322861      -28.7862396465  W2        3167            0.0000000000
      9500      3167  TIP3      H1             15.6670933595      -12.9153122861      -28.1614796465  W2        3167            0.0000000000
      9501      3167  TIP3      H2             15.5306033595      -12.0687322861      -29.4090996465  W2        3167            0.0000000000
      9502      3168  TIP3      OH2             3.9185433595      -10.3206122861      -26.4249296465  W2        3168            0.0000000000
      9503      3168  TIP3      H1              4.5722033595      -10.8704422861      -25.9929196465  W2        3168            0.0000000000
      9504      3168  TIP3      H2              3.9424733595      -10.5947122861      -27.3417296465  W2        3168            0.0000000000
      9505      3169  TIP3      OH2             9.0749933595       -8.7704822861      -27.2097796465  W2        3169            0.0000000000
      9506      3169  TIP3      H1              9.6910933595       -9.2969422861      -26.7003796465  W2        3169            0.0000000000
      9507      3169  TIP3      H2              8.4888733595       -9.4106122861      -27.6134196465  W2        3169            0.0000000000
      9508      3170  TIP3      OH2            20.0573033595      -12.1336222861      -21.6904296465  W2        3170            0.0000000000
      9509      3170  TIP3      H1             19.3687633595      -11.4755522861      -21.7857696465  W2        3170            0.0000000000
      9510      3170  TIP3      H2             20.0727633595      -12.3308322861      -20.7538896465  W2        3170            0.0000000000
      9511      3171  TIP3      OH2             6.1085833595      -13.7993522861      -23.1129896465  W2        3171            0.0000000000
      9512      3171  TIP3      H1              5.8897533595      -13.2692922861      -23.8793896465  W2        3171            0.0000000000
      9513      3171  TIP3      H2              5.4406733595      -13.5728022861      -22.4658496465  W2        3171            0.0000000000
      9514      3172  TIP3      OH2            13.4775633595       -4.2992422861      -29.5690796465  W2        3172            0.0000000000
      9515      3172  TIP3      H1             13.1820733595       -4.6220122861      -30.4203896465  W2        3172            0.0000000000
      9516      3172  TIP3      H2             13.1533433595       -3.3995722861      -29.5278196465  W2        3172            0.0000000000
      9517      3173  TIP3      OH2             8.6777233595       -6.1237822861      -22.8256196465  W2        3173            0.0000000000
      9518      3173  TIP3      H1              7.9376333595       -5.5256322861      -22.7220996465  W2        3173            0.0000000000
      9519      3173  TIP3      H2              9.3916733595       -5.5698222861      -23.1412596465  W2        3173            0.0000000000
      9520      3174  TIP3      OH2            16.7845033595      -13.2957022861      -26.8056496465  W2        3174            0.0000000000
      9521      3174  TIP3      H1             16.5693033595      -14.0613622861      -26.2730496465  W2        3174            0.0000000000
      9522      3174  TIP3      H2             17.4402433595      -12.8232422861      -26.2927996465  W2        3174            0.0000000000
      9523      3175  TIP3      OH2             5.7023133595      -11.9071722861      -25.1607696465  W2        3175            0.0000000000
      9524      3175  TIP3      H1              6.3159433595      -11.2744122861      -24.7875296465  W2        3175            0.0000000000
      9525      3175  TIP3      H2              6.2143833595      -12.3796722861      -25.8170796465  W2        3175            0.0000000000
      9526      3176  TIP3      OH2             7.0851533595       -4.1594822861      -22.0384696465  W2        3176            0.0000000000
      9527      3176  TIP3      H1              7.0799133595       -3.2801322861      -22.4165396465  W2        3176            0.0000000000
      9528      3176  TIP3      H2              6.2315633595       -4.2430722861      -21.6134796465  W2        3176            0.0000000000
      9529      3177  TIP3      OH2             3.2062433595       -4.4886922861      -31.2565396465  W2        3177            0.0000000000
      9530      3177  TIP3      H1              2.9343333595       -4.2595922861      -32.1452496465  W2        3177            0.0000000000
      9531      3177  TIP3      H2              3.2518133595       -3.6508122861      -30.7960096465  W2        3177            0.0000000000
      9532      3178  TIP3      OH2            16.8312133595       -2.8671022861      -24.5436896465  W2        3178            0.0000000000
      9533      3178  TIP3      H1             15.8895833595       -2.8087122861      -24.3819996465  W2        3178            0.0000000000
      9534      3178  TIP3      H2             17.1078233595       -1.9610522861      -24.6807196465  W2        3178            0.0000000000
      9535      3179  TIP3      OH2            17.1319133595      -14.5805722861      -23.1262996465  W2        3179            0.0000000000
      9536      3179  TIP3      H1             16.3958333595      -13.9698622861      -23.1641696465  W2        3179            0.0000000000
      9537      3179  TIP3      H2             17.8153133595      -14.1656722861      -23.6526596465  W2        3179            0.0000000000
      9538      3180  TIP3      OH2            10.1350533595      -16.4938422861      -25.6604996465  W2        3180            0.0000000000
      9539      3180  TIP3      H1             10.0174733595      -17.4422422861      -25.7146696465  W2        3180            0.0000000000
      9540      3180  TIP3      H2              9.2800633595      -16.1612322861      -25.3873896465  W2        3180            0.0000000000
      9541      3181  TIP3      OH2            15.0833333595       -1.0857522861      -27.9185296465  W2        3181            0.0000000000
      9542      3181  TIP3      H1             15.5085633595       -1.7929622861      -28.4035696465  W2        3181            0.0000000000
      9543      3181  TIP3      H2             15.4003333595       -0.2844822861      -28.3353096465  W2        3181            0.0000000000
      9544      3182  TIP3      OH2            16.2429833595       -3.1849022861      -29.4098696465  W2        3182            0.0000000000
      9545      3182  TIP3      H1             15.9854633595       -3.8748922861      -30.0212796465  W2        3182            0.0000000000
      9546      3182  TIP3      H2             16.3140633595       -3.6277822861      -28.5642796465  W2        3182            0.0000000000
      9547      3183  TIP3      OH2            17.9290033595       -4.6182322861      -20.9325196465  W2        3183            0.0000000000
      9548      3183  TIP3      H1             18.0686333595       -5.2099822861      -21.6718196465  W2        3183            0.0000000000
      9549      3183  TIP3      H2             18.0962833595       -3.7456422861      -21.2886396465  W2        3183            0.0000000000
      9550      3184  TIP3      OH2            12.4015433595       -7.6562822861      -31.1599196465  W2        3184            0.0000000000
      9551      3184  TIP3      H1             11.6900933595       -7.1213122861      -31.5118696465  W2        3184            0.0000000000
      9552      3184  TIP3      H2             13.0925033595       -7.6010722861      -31.8200296465  W2        3184            0.0000000000
      9553      3185  TIP3      OH2            12.4554633595       -9.1988522861      -34.1214196465  W2        3185            0.0000000000
      9554      3185  TIP3      H1             13.1564533595       -9.1761622861      -33.4700196465  W2        3185            0.0000000000
      9555      3185  TIP3      H2             12.7577533595       -9.8268822861      -34.7774896465  W2        3185            0.0000000000
      9556      3186  TIP3      OH2            19.7709333595       -8.2784322861      -22.8664796465  W2        3186            0.0000000000
      9557      3186  TIP3      H1             19.1183433595       -7.5838722861      -22.7773896465  W2        3186            0.0000000000
      9558      3186  TIP3      H2             20.2359633595       -8.0683422861      -23.6763196465  W2        3186            0.0000000000
      9559      3187  TIP3      OH2            15.8073133595       -7.4469522861      -30.2083296465  W2        3187            0.0000000000
      9560      3187  TIP3      H1             15.0754133595       -7.2185822861      -29.6352696465  W2        3187            0.0000000000
      9561      3187  TIP3      H2             16.2545333595       -8.1606822861      -29.7535796465  W2        3187            0.0000000000
      9562      3188  TIP3      OH2            15.7046633595       -9.2726922861      -21.1406296465  W2        3188            0.0000000000
      9563      3188  TIP3      H1             15.7845733595       -8.5092522861      -20.5687796465  W2        3188            0.0000000000
      9564      3188  TIP3      H2             15.1034333595       -8.9934522861      -21.8311196465  W2        3188            0.0000000000
      9565      3189  TIP3      OH2             7.4526833595       -6.8163322861      -28.3258296465  W2        3189            0.0000000000
      9566      3189  TIP3      H1              7.1222033595       -7.1869922861      -29.1441296465  W2        3189            0.0000000000
      9567      3189  TIP3      H2              8.0410933595       -7.4869322861      -27.9789996465  W2        3189            0.0000000000
      9568      3190  TIP3      OH2             8.8194333595       -3.3882722861      -25.6446096465  W2        3190            0.0000000000
      9569      3190  TIP3      H1              8.7245633595       -3.9669622861      -26.4011496465  W2        3190            0.0000000000
      9570      3190  TIP3      H2              9.5487933595       -3.7597022861      -25.1483296465  W2        3190            0.0000000000
      9571      3191  TIP3      OH2             7.8192333595       -8.0477722861      -24.6923296465  W2        3191            0.0000000000
      9572      3191  TIP3      H1              8.3844833595       -7.9263522861      -25.4552096465  W2        3191            0.0000000000
      9573      3191  TIP3      H2              8.1381233595       -7.4102722861      -24.0534796465  W2        3191            0.0000000000
      9574      3192  TIP3      OH2            14.1284533595       -2.5445822861      -23.9582796465  W2        3192            0.0000000000
      9575      3192  TIP3      H1             13.8881133595       -1.8822722861      -23.3103596465  W2        3192            0.0000000000
      9576      3192  TIP3      H2             13.9302733595       -3.3790622861      -23.5333196465  W2        3192            0.0000000000
      9577      3193  TIP3      OH2             8.6993033595       -3.6485022861      -19.9751396465  W2        3193            0.0000000000
      9578      3193  TIP3      H1              8.3880533595       -2.8661822861      -19.5198196465  W2        3193            0.0000000000
      9579      3193  TIP3      H2              8.0493233595       -3.8015922861      -20.6609396465  W2        3193            0.0000000000
      9580      3194  TIP3      OH2            14.6782633595       -8.2846622861      -32.5232096465  W2        3194            0.0000000000
      9581      3194  TIP3      H1             15.2578133595       -8.1346322861      -31.7763196465  W2        3194            0.0000000000
      9582      3194  TIP3      H2             15.0922633595       -7.8139222861      -33.2465696465  W2        3194            0.0000000000
      9583      3195  TIP3      OH2             5.6192933595       -7.4503922861      -20.7465696465  W2        3195            0.0000000000
      9584      3195  TIP3      H1              5.6896133595       -6.7997122861      -20.0480696465  W2        3195            0.0000000000
      9585      3195  TIP3      H2              4.7285133595       -7.3476422861      -21.0814796465  W2        3195            0.0000000000
      9586      3196  TIP3      OH2            12.4047533595       -1.5478122861      -29.0878996465  W2        3196            0.0000000000
      9587      3196  TIP3      H1             12.8785133595       -1.2521822861      -28.3104796465  W2        3196            0.0000000000
      9588      3196  TIP3      H2             11.8416833595       -0.8096522861      -29.3209396465  W2        3196            0.0000000000
      9589      3197  TIP3      OH2             6.9388933595       -1.5770022861      -19.2117596465  W2        3197            0.0000000000
      9590      3197  TIP3      H1              6.9464233595       -1.7130322861      -20.1592096465  W2        3197            0.0000000000
      9591      3197  TIP3      H2              6.0229333595       -1.6941922861      -18.9597596465  W2        3197            0.0000000000
      9592      3198  TIP3      OH2            18.3771033595      -16.5346222861      -32.7102396465  W2        3198            0.0000000000
      9593      3198  TIP3      H1             17.4771733595      -16.3957222861      -32.4151796465  W2        3198            0.0000000000
      9594      3198  TIP3      H2             18.6289433595      -15.7031622861      -33.1120696465  W2        3198            0.0000000000
      9595      3199  TIP3      OH2             6.4429533595       -7.7469022861      -30.7365496465  W2        3199            0.0000000000
      9596      3199  TIP3      H1              6.1510833595       -6.9787322861      -31.2274196465  W2        3199            0.0000000000
      9597      3199  TIP3      H2              5.7684733595       -8.4062822861      -30.8994096465  W2        3199            0.0000000000
      9598      3200  TIP3      OH2            19.5662433595       -2.1683822861      -34.3338496465  W2        3200            0.0000000000
      9599      3200  TIP3      H1             19.6395933595       -1.2293622861      -34.1633196465  W2        3200            0.0000000000
      9600      3200  TIP3      H2             20.4717533595       -2.4735222861      -34.3901196465  W2        3200            0.0000000000
      9601      3201  TIP3      OH2             2.5359633595       -5.3839822861      -21.9215696465  W2        3201            0.0000000000
      9602      3201  TIP3      H1              2.0348033595       -5.4120422861      -22.7365996465  W2        3201            0.0000000000
      9603      3201  TIP3      H2              2.5413333595       -6.2896622861      -21.6118396465  W2        3201            0.0000000000
      9604      3202  TIP3      OH2             2.2862333595       -2.6036022861      -25.0375496465  W2        3202            0.0000000000
      9605      3202  TIP3      H1              3.2322933595       -2.7479022861      -25.0565996465  W2        3202            0.0000000000
      9606      3202  TIP3      H2              2.1738633595       -1.8193222861      -24.5004296465  W2        3202            0.0000000000
      9607      3203  TIP3      OH2            20.4840833595       -1.9376322861      -19.3551796465  W2        3203            0.0000000000
      9608      3203  TIP3      H1             20.4347633595       -2.8928222861      -19.3924196465  W2        3203            0.0000000000
      9609      3203  TIP3      H2             19.6573133595       -1.6701022861      -18.9537996465  W2        3203            0.0000000000
      9610      3204  TIP3      OH2            11.4624833595       -2.3637122861      -20.4790396465  W2        3204            0.0000000000
      9611      3204  TIP3      H1             11.5499433595       -1.5372522861      -20.0041296465  W2        3204            0.0000000000
      9612      3204  TIP3      H2             10.5989933595       -2.6933322861      -20.2301096465  W2        3204            0.0000000000
      9613      3205  TIP3      OH2            11.8770633595        1.4086577139      -30.6729796465  W2        3205            0.0000000000
      9614      3205  TIP3      H1             11.8016633595        1.2873777139      -31.6194596465  W2        3205            0.0000000000
      9615      3205  TIP3      H2             11.9099333595        2.3579277139      -30.5545196465  W2        3205            0.0000000000
      9616      3206  TIP3      OH2             5.5304433595        0.1973577139      -28.8920796465  W2        3206            0.0000000000
      9617      3206  TIP3      H1              5.6824833595       -0.1506022861      -28.0134296465  W2        3206            0.0000000000
      9618      3206  TIP3      H2              4.6794833595       -0.1589122861      -29.1473596465  W2        3206            0.0000000000
      9619      3207  TIP3      OH2            14.9786633595        0.5626777139      -33.6707396465  W2        3207            0.0000000000
      9620      3207  TIP3      H1             15.3535033595       -0.1817122861      -34.1414796465  W2        3207            0.0000000000
      9621      3207  TIP3      H2             14.9830333595        0.2927377139      -32.7524096465  W2        3207            0.0000000000
      9622      3208  TIP3      OH2            14.6474733595        0.4883877139      -30.9215196465  W2        3208            0.0000000000
      9623      3208  TIP3      H1             13.7124533595        0.5885777139      -30.7428196465  W2        3208            0.0000000000
      9624      3208  TIP3      H2             14.9276633595       -0.2210122861      -30.3431996465  W2        3208            0.0000000000
      9625      3209  TIP3      OH2            17.6360633595      -10.4443822861      -18.8749596465  W2        3209            0.0000000000
      9626      3209  TIP3      H1             17.2287433595       -9.9638222861      -19.5956296465  W2        3209            0.0000000000
      9627      3209  TIP3      H2             17.6766333595      -11.3497822861      -19.1828796465  W2        3209            0.0000000000
      9628      3210  TIP3      OH2             4.7850133595       -4.0604422861      -20.8782896465  W2        3210            0.0000000000
      9629      3210  TIP3      H1              5.0011433595       -4.4218822861      -20.0187096465  W2        3210            0.0000000000
      9630      3210  TIP3      H2              3.9294833595       -4.4350622861      -21.0879396465  W2        3210            0.0000000000
      9631      3211  TIP3      OH2             7.4038133595      -15.5903922861      -24.8828696465  W2        3211            0.0000000000
      9632      3211  TIP3      H1              6.5421833595      -15.6775722861      -25.2905796465  W2        3211            0.0000000000
      9633      3211  TIP3      H2              7.3813833595      -14.7343822861      -24.4551096465  W2        3211            0.0000000000
      9634      3212  TIP3      OH2            12.0665933595      -15.8683522861      -21.5081696465  W2        3212            0.0000000000
      9635      3212  TIP3      H1             12.4869033595      -16.2836422861      -20.7551096465  W2        3212            0.0000000000
      9636      3212  TIP3      H2             11.1335533595      -16.0470222861      -21.3909696465  W2        3212            0.0000000000
      9637      3213  TIP3      OH2            15.3930833595      -12.1128322861      -20.6547196465  W2        3213            0.0000000000
      9638      3213  TIP3      H1             14.8790333595      -12.2386122861      -19.8571196465  W2        3213            0.0000000000
      9639      3213  TIP3      H2             15.2375533595      -11.2005222861      -20.8990996465  W2        3213            0.0000000000
      9640      3214  TIP3      OH2            16.1555733595       -7.2518322861      -34.8934196465  W2        3214            0.0000000000
      9641      3214  TIP3      H1             16.1976533595       -7.4744422861      -35.8234196465  W2        3214            0.0000000000
      9642      3214  TIP3      H2             17.0047833595       -6.8531222861      -34.7034296465  W2        3214            0.0000000000
      9643      3215  TIP3      OH2            11.7283233595      -13.3760122861      -34.2230896465  W2        3215            0.0000000000
      9644      3215  TIP3      H1             11.4748033595      -13.3568522861      -33.3002796465  W2        3215            0.0000000000
      9645      3215  TIP3      H2             11.4715333595      -14.2474722861      -34.5244696465  W2        3215            0.0000000000
      9646      3216  TIP3      OH2             7.4948233595      -10.6249422861      -23.7878496465  W2        3216            0.0000000000
      9647      3216  TIP3      H1              6.8530333595      -10.6652122861      -23.0788396465  W2        3216            0.0000000000
      9648      3216  TIP3      H2              7.5320233595       -9.6984722861      -24.0255496465  W2        3216            0.0000000000
      9649      3217  TIP3      OH2             7.4917333595      -10.4039322861      -28.8758496465  W2        3217            0.0000000000
      9650      3217  TIP3      H1              6.5990233595      -10.7443222861      -28.9344696465  W2        3217            0.0000000000
      9651      3217  TIP3      H2              7.9423933595      -10.7808422861      -29.6315296465  W2        3217            0.0000000000
      9652      3218  TIP3      OH2            13.0272833595       -9.9879022861      -30.0587696465  W2        3218            0.0000000000
      9653      3218  TIP3      H1             12.6183133595       -9.1730422861      -30.3502896465  W2        3218            0.0000000000
      9654      3218  TIP3      H2             13.7479033595      -10.1278922861      -30.6730596465  W2        3218            0.0000000000
      9655      3219  TIP3      OH2            12.1294433595       -9.8122622861      -18.5706996465  W2        3219            0.0000000000
      9656      3219  TIP3      H1             11.5668233595      -10.5171022861      -18.2499196465  W2        3219            0.0000000000
      9657      3219  TIP3      H2             12.9557833595       -9.9330722861      -18.1029396465  W2        3219            0.0000000000
      9658      3220  TIP3      OH2            14.0320533595      -10.5418622861      -27.2447996465  W2        3220            0.0000000000
      9659      3220  TIP3      H1             13.8365033595       -9.9361822861      -27.9597396465  W2        3220            0.0000000000
      9660      3220  TIP3      H2             14.2133133595      -11.3753422861      -27.6791696465  W2        3220            0.0000000000
      9661      3221  TIP3      OH2             5.2448733595      -10.3045922861      -21.9206496465  W2        3221            0.0000000000
      9662      3221  TIP3      H1              5.2068133595       -9.9044322861      -21.0519396465  W2        3221            0.0000000000
      9663      3221  TIP3      H2              4.7539833595      -11.1213522861      -21.8303596465  W2        3221            0.0000000000
      9664      3222  TIP3      OH2             8.6106133595      -12.9303622861      -35.1220496465  W2        3222            0.0000000000
      9665      3222  TIP3      H1              8.1796833595      -13.3753522861      -34.3923096465  W2        3222            0.0000000000
      9666      3222  TIP3      H2              7.8924833595      -12.5587322861      -35.6342996465  W2        3222            0.0000000000
      9667      3223  TIP3      OH2             1.8529533595      -13.1884122861      -28.0701796465  W2        3223            0.0000000000
      9668      3223  TIP3      H1              2.4837233595      -13.2172022861      -27.3507896465  W2        3223            0.0000000000
      9669      3223  TIP3      H2              2.3023833595      -13.6135422861      -28.8005896465  W2        3223            0.0000000000
      9670      3224  TIP3      OH2             3.1271633595      -12.4422122861      -32.6461396465  W2        3224            0.0000000000
      9671      3224  TIP3      H1              3.6013333595      -11.8512222861      -33.2310496465  W2        3224            0.0000000000
      9672      3224  TIP3      H2              2.4098033595      -11.9119222861      -32.2991296465  W2        3224            0.0000000000
      9673      3225  TIP3      OH2            13.2959733595       -8.9037322861      -22.5735596465  W2        3225            0.0000000000
      9674      3225  TIP3      H1             13.6194533595       -9.5347622861      -23.2165096465  W2        3225            0.0000000000
      9675      3225  TIP3      H2             12.8559033595       -9.4385122861      -21.9128196465  W2        3225            0.0000000000
      9676      3226  TIP3      OH2            10.0732633595      -12.9761822861      -27.7894396465  W2        3226            0.0000000000
      9677      3226  TIP3      H1              9.1623733595      -12.9195022861      -27.5008396465  W2        3226            0.0000000000
      9678      3226  TIP3      H2             10.5785533595      -13.0366322861      -26.9787196465  W2        3226            0.0000000000
      9679      3227  TIP3      OH2             4.9016033595      -11.3475522861      -28.9626796465  W2        3227            0.0000000000
      9680      3227  TIP3      H1              4.0124033595      -11.2480022861      -29.3027196465  W2        3227            0.0000000000
      9681      3227  TIP3      H2              5.1980933595      -12.1892522861      -29.3088896465  W2        3227            0.0000000000
      9682      3228  TIP3      OH2             8.5547833595      -11.3472922861      -31.3062196465  W2        3228            0.0000000000
      9683      3228  TIP3      H1              9.4863333595      -11.2182922861      -31.1279096465  W2        3228            0.0000000000
      9684      3228  TIP3      H2              8.3398133595      -10.6778622861      -31.9557496465  W2        3228            0.0000000000
      9685      3229  TIP3      OH2            14.4784533595      -13.7415522861      -24.5252596465  W2        3229            0.0000000000
      9686      3229  TIP3      H1             13.8016133595      -13.6102422861      -23.8612896465  W2        3229            0.0000000000
      9687      3229  TIP3      H2             13.9929433595      -13.8966022861      -25.3354896465  W2        3229            0.0000000000
      9688      3230  TIP3      OH2             7.2288033595      -10.1530722861      -33.7396096465  W2        3230            0.0000000000
      9689      3230  TIP3      H1              6.6863133595      -10.5326922861      -34.4308496465  W2        3230            0.0000000000
      9690      3230  TIP3      H2              8.0622933595       -9.9586022861      -34.1681996465  W2        3230            0.0000000000
      9691      3231  TIP3      OH2            17.7659633595        1.9299877139      -18.2484996465  W2        3231            0.0000000000
      9692      3231  TIP3      H1             17.9658333595        2.3541777139      -19.0829696465  W2        3231            0.0000000000
      9693      3231  TIP3      H2             18.4213333595        2.2738077139      -17.6414596465  W2        3231            0.0000000000
      9694      3232  TIP3      OH2             5.3639433595       -5.5958822861      -18.6404496465  W2        3232            0.0000000000
      9695      3232  TIP3      H1              6.0961833595       -5.3412922861      -18.0789996465  W2        3232            0.0000000000
      9696      3232  TIP3      H2              4.5838133595       -5.3913422861      -18.1249096465  W2        3232            0.0000000000
      9697      3233  TIP3      OH2            11.3932333595      -10.1888822861      -25.9024796465  W2        3233            0.0000000000
      9698      3233  TIP3      H1             11.9575733595      -10.7352222861      -26.4495196465  W2        3233            0.0000000000
      9699      3233  TIP3      H2             11.2455733595      -10.7106922861      -25.1137196465  W2        3233            0.0000000000
      9700      3234  TIP3      OH2             6.3952033595      -14.0522722861      -29.4839996465  W2        3234            0.0000000000
      9701      3234  TIP3      H1              6.0781533595      -14.9547422861      -29.5194596465  W2        3234            0.0000000000
      9702      3234  TIP3      H2              7.1766133595      -14.0505322861      -30.0368396465  W2        3234            0.0000000000
      9703      3235  TIP3      OH2            10.0198233595      -11.8002722861      -23.4884396465  W2        3235            0.0000000000
      9704      3235  TIP3      H1              9.1843533595      -11.3463222861      -23.3781996465  W2        3235            0.0000000000
      9705      3235  TIP3      H2             10.5438833595      -11.5244222861      -22.7364496465  W2        3235            0.0000000000
      9706      3236  TIP3      OH2            10.5640833595       -5.5875022861      -31.8037996465  W2        3236            0.0000000000
      9707      3236  TIP3      H1              9.8191833595       -6.0949722861      -32.1260096465  W2        3236            0.0000000000
      9708      3236  TIP3      H2             10.4298033595       -5.5387022861      -30.8573196465  W2        3236            0.0000000000
      9709      3237  TIP3      OH2            17.7139733595       -6.4546822861      -23.0170396465  W2        3237            0.0000000000
      9710      3237  TIP3      H1             18.3558533595       -5.9980522861      -23.5608196465  W2        3237            0.0000000000
      9711      3237  TIP3      H2             16.8836633595       -6.3414422861      -23.4796296465  W2        3237            0.0000000000
      9712      3238  TIP3      OH2            14.4617633595      -12.7735122861      -33.6045396465  W2        3238            0.0000000000
      9713      3238  TIP3      H1             13.5231833595      -12.6619522861      -33.7556596465  W2        3238            0.0000000000
      9714      3238  TIP3      H2             14.7589733595      -11.9168222861      -33.2979696465  W2        3238            0.0000000000
      9715      3239  TIP3      OH2            12.0832933595       -5.4031722861      -20.5668896465  W2        3239            0.0000000000
      9716      3239  TIP3      H1             11.7379033595       -5.7849322861      -19.7599296465  W2        3239            0.0000000000
      9717      3239  TIP3      H2             11.8833033595       -4.4698122861      -20.4955996465  W2        3239            0.0000000000
      9718      3240  TIP3      OH2            15.1801133595      -10.9062422861      -31.9437996465  W2        3240            0.0000000000
      9719      3240  TIP3      H1             16.0720133595      -11.0437422861      -31.6246796465  W2        3240            0.0000000000
      9720      3240  TIP3      H2             15.2364733595      -10.1156322861      -32.4804496465  W2        3240            0.0000000000
      9721      3241  TIP3      OH2             5.6889133595       -6.2925022861      -26.0340096465  W2        3241            0.0000000000
      9722      3241  TIP3      H1              6.4336333595       -6.2949322861      -26.6353596465  W2        3241            0.0000000000
      9723      3241  TIP3      H2              5.7665733595       -7.1161222861      -25.5524996465  W2        3241            0.0000000000
      9724      3242  TIP3      OH2            12.6894933595       -4.1290722861      -32.7783396465  W2        3242            0.0000000000
      9725      3242  TIP3      H1             12.3943333595       -3.3022822861      -32.3968596465  W2        3242            0.0000000000
      9726      3242  TIP3      H2             11.9864933595       -4.7483822861      -32.5821996465  W2        3242            0.0000000000
      9727      3243  TIP3      OH2             2.6968833595       -7.8318122861      -20.7191596465  W2        3243            0.0000000000
      9728      3243  TIP3      H1              2.9197433595       -8.2498522861      -19.8874096465  W2        3243            0.0000000000
      9729      3243  TIP3      H2              2.0948933595       -8.4443122861      -21.1418796465  W2        3243            0.0000000000
      9730      3244  TIP3      OH2             9.7133733595       -8.3148222861      -18.5061896465  W2        3244            0.0000000000
      9731      3244  TIP3      H1              9.4174533595       -8.4805222861      -19.4012796465  W2        3244            0.0000000000
      9732      3244  TIP3      H2             10.6448933595       -8.5347922861      -18.5167996465  W2        3244            0.0000000000
      9733      3245  TIP3      OH2            14.3336533595       -2.9416222861      -20.6163896465  W2        3245            0.0000000000
      9734      3245  TIP3      H1             13.4330833595       -2.7583622861      -20.8839996465  W2        3245            0.0000000000
      9735      3245  TIP3      H2             14.3677633595       -2.6826922861      -19.6955096465  W2        3245            0.0000000000
      9736      3246  TIP3      OH2            20.0649833595      -10.6968322861      -32.2491296465  W2        3246            0.0000000000
      9737      3246  TIP3      H1             19.5106133595      -11.0930322861      -32.9213796465  W2        3246            0.0000000000
      9738      3246  TIP3      H2             20.1653433595       -9.7863122861      -32.5267996465  W2        3246            0.0000000000
      9739      3247  TIP3      OH2            20.0281833595       -4.8966622861      -19.4119796465  W2        3247            0.0000000000
      9740      3247  TIP3      H1             19.1770333595       -4.6582822861      -19.7793396465  W2        3247            0.0000000000
      9741      3247  TIP3      H2             20.6185233595       -4.9133422861      -20.1652696465  W2        3247            0.0000000000
      9742      3248  TIP3      OH2            18.3601533595       -1.9107922861      -31.7839196465  W2        3248            0.0000000000
      9743      3248  TIP3      H1             17.9872633595       -2.7364122861      -31.4748596465  W2        3248            0.0000000000
      9744      3248  TIP3      H2             18.6375033595       -2.0938522861      -32.6815796465  W2        3248            0.0000000000
      9745      3249  TIP3      OH2            15.5205433595       -7.1028422861      -24.7627296465  W2        3249            0.0000000000
      9746      3249  TIP3      H1             14.5922333595       -7.3346522861      -24.7897996465  W2        3249            0.0000000000
      9747      3249  TIP3      H2             15.9716533595       -7.8798622861      -25.0928496465  W2        3249            0.0000000000
      9748      3250  TIP3      OH2             8.0638533595       -2.7746822861      -28.6298596465  W2        3250            0.0000000000
      9749      3250  TIP3      H1              8.5910733595       -2.0012422861      -28.8299796465  W2        3250            0.0000000000
      9750      3250  TIP3      H2              7.1837033595       -2.5497622861      -28.9314596465  W2        3250            0.0000000000
      9751      3251  TIP3      OH2             3.8186233595       -7.9122722861      -34.0426196465  W2        3251            0.0000000000
      9752      3251  TIP3      H1              4.4346133595       -7.2855522861      -33.6631396465  W2        3251            0.0000000000
      9753      3251  TIP3      H2              2.9568833595       -7.5962922861      -33.7709696465  W2        3251            0.0000000000
      9754      3252  TIP3      OH2             9.4910833595       -5.1116922861      -29.0534296465  W2        3252            0.0000000000
      9755      3252  TIP3      H1              9.2500833595       -4.1862522861      -29.0118996465  W2        3252            0.0000000000
      9756      3252  TIP3      H2              8.7504433595       -5.5705622861      -28.6570396465  W2        3252            0.0000000000
      9757      3253  TIP3      OH2            10.0057433595       -0.9623322861      -22.7383196465  W2        3253            0.0000000000
      9758      3253  TIP3      H1             10.3682133595       -0.1077722861      -22.9718796465  W2        3253            0.0000000000
      9759      3253  TIP3      H2             10.5372633595       -1.2541722861      -21.9976896465  W2        3253            0.0000000000
      9760      3254  TIP3      OH2             8.1741633595       -0.0899322861      -29.5082096465  W2        3254            0.0000000000
      9761      3254  TIP3      H1              7.2242133595        0.0158077139      -29.4568796465  W2        3254            0.0000000000
      9762      3254  TIP3      H2              8.5259733595        0.7308077139      -29.1634596465  W2        3254            0.0000000000
      9763      3255  TIP3      OH2            13.5498233595       -4.8632622861      -23.0377596465  W2        3255            0.0000000000
      9764      3255  TIP3      H1             13.1239533595       -5.0910922861      -22.2113596465  W2        3255            0.0000000000
      9765      3255  TIP3      H2             14.1304033595       -5.6020822861      -23.2202296465  W2        3255            0.0000000000
      9766      3256  TIP3      OH2            15.7527133595       -3.9342122861      -33.9638596465  W2        3256            0.0000000000
      9767      3256  TIP3      H1             16.1060233595       -4.3142322861      -33.1595096465  W2        3256            0.0000000000
      9768      3256  TIP3      H2             14.8040633595       -4.0277322861      -33.8769296465  W2        3256            0.0000000000
      9769      3257  TIP3      OH2            16.2082433595       -0.3113122861      -20.5682796465  W2        3257            0.0000000000
      9770      3257  TIP3      H1             15.6065633595       -0.8670222861      -21.0636496465  W2        3257            0.0000000000
      9771      3257  TIP3      H2             16.4896133595        0.3556677139      -21.1945396465  W2        3257            0.0000000000
      9772      3258  TIP3      OH2            20.2561533595        0.5450377139      -33.7628396465  W2        3258            0.0000000000
      9773      3258  TIP3      H1             20.9999433595        1.1310877139      -33.9026796465  W2        3258            0.0000000000
      9774      3258  TIP3      H2             19.5619633595        1.1136177139      -33.4295996465  W2        3258            0.0000000000
      9775      3259  TIP3      OH2             4.3308333595      -13.0785422861      -21.1610196465  W2        3259            0.0000000000
      9776      3259  TIP3      H1              3.4380633595      -12.7400022861      -21.2286196465  W2        3259            0.0000000000
      9777      3259  TIP3      H2              4.2321133595      -13.9339322861      -20.7429396465  W2        3259            0.0000000000
      9778      3260  TIP3      OH2            16.6186433595       -5.2620122861      -31.7370696465  W2        3260            0.0000000000
      9779      3260  TIP3      H1             16.3414033595       -5.9900822861      -31.1809596465  W2        3260            0.0000000000
      9780      3260  TIP3      H2             17.5459433595       -5.1428122861      -31.5318096465  W2        3260            0.0000000000
      9781      3261  TIP3      OH2             3.9820333595       -1.2741022861      -22.7260796465  W2        3261            0.0000000000
      9782      3261  TIP3      H1              4.1990633595       -2.2058622861      -22.7571096465  W2        3261            0.0000000000
      9783      3261  TIP3      H2              4.2283833595       -0.9996022861      -21.8427996465  W2        3261            0.0000000000
      9784      3262  TIP3      OH2             9.8434933595       -2.8226022861      -35.5168596465  W2        3262            0.0000000000
      9785      3262  TIP3      H1             10.0824733595       -3.5707922861      -36.0639696465  W2        3262            0.0000000000
      9786      3262  TIP3      H2              9.5746233595       -3.2104322861      -34.6840796465  W2        3262            0.0000000000
      9787      3263  TIP3      OH2             8.7805533595       -3.2522222861      -33.0605996465  W2        3263            0.0000000000
      9788      3263  TIP3      H1              8.9273533595       -3.7722422861      -32.2705096465  W2        3263            0.0000000000
      9789      3263  TIP3      H2              8.7777233595       -2.3454622861      -32.7540096465  W2        3263            0.0000000000
      9790      3264  TIP3      OH2             5.2336633595       -5.9998922861      -32.5500596465  W2        3264            0.0000000000
      9791      3264  TIP3      H1              4.5475933595       -5.6476422861      -31.9830896465  W2        3264            0.0000000000
      9792      3264  TIP3      H2              5.7564533595       -5.2369322861      -32.7966296465  W2        3264            0.0000000000
      9793      3265  TIP3      OH2            13.0651733595      -13.3375122861      -22.2711596465  W2        3265            0.0000000000
      9794      3265  TIP3      H1             13.7639633595      -13.2636422861      -21.6211896465  W2        3265            0.0000000000
      9795      3265  TIP3      H2             12.6843133595      -14.2020122861      -22.1168696465  W2        3265            0.0000000000
      9796      3266  TIP3      OH2            13.8496633595      -13.6853422861      -31.1739296465  W2        3266            0.0000000000
      9797      3266  TIP3      H1             14.0694933595      -13.2138022861      -31.9773896465  W2        3266            0.0000000000
      9798      3266  TIP3      H2             14.4080633595      -13.2910822861      -30.5038696465  W2        3266            0.0000000000
      9799      3267  TIP3      OH2            11.5182733595       -1.5548622861      -32.3111796465  W2        3267            0.0000000000
      9800      3267  TIP3      H1             10.7018833595       -1.0578922861      -32.2587496465  W2        3267            0.0000000000
      9801      3267  TIP3      H2             12.0479033595       -1.0795122861      -32.9512996465  W2        3267            0.0000000000
      9802      3268  TIP3      OH2            11.0496533595      -11.9574622861      -30.3390896465  W2        3268            0.0000000000
      9803      3268  TIP3      H1             11.8619133595      -11.4531422861      -30.2929196465  W2        3268            0.0000000000
      9804      3268  TIP3      H2             10.8049533595      -12.1024922861      -29.4251296465  W2        3268            0.0000000000
      9805      3269  TIP3      OH2            11.5852933595      -10.9711922861      -21.1544296465  W2        3269            0.0000000000
      9806      3269  TIP3      H1             11.7043233595      -10.3976522861      -20.3973896465  W2        3269            0.0000000000
      9807      3269  TIP3      H2             12.2407533595      -11.6592522861      -21.0396496465  W2        3269            0.0000000000
      9808      3270  TIP3      OH2            11.9333233595      -14.8761622861      -29.4009796465  W2        3270            0.0000000000
      9809      3270  TIP3      H1             11.5866733595      -14.2591022861      -28.7565496465  W2        3270            0.0000000000
      9810      3270  TIP3      H2             12.5920133595      -14.3755922861      -29.8824296465  W2        3270            0.0000000000
      9811      3271  TIP3      OH2             8.8565833595       -0.5111422861      -32.3294896465  W2        3271            0.0000000000
      9812      3271  TIP3      H1              9.0174533595        0.2886077139      -32.8302296465  W2        3271            0.0000000000
      9813      3271  TIP3      H2              8.6593633595       -0.2045422861      -31.4444296465  W2        3271            0.0000000000
      9814      3272  TIP3      OH2             7.5910233595      -13.8132222861      -32.7137296465  W2        3272            0.0000000000
      9815      3272  TIP3      H1              7.5075033595      -12.9249122861      -32.3670896465  W2        3272            0.0000000000
      9816      3272  TIP3      H2              8.4810533595      -14.0785522861      -32.4820496465  W2        3272            0.0000000000
      9817      3273  TIP3      OH2            17.7898733595      -13.0641622861      -20.3194596465  W2        3273            0.0000000000
      9818      3273  TIP3      H1             16.8734533595      -12.8019922861      -20.4070896465  W2        3273            0.0000000000
      9819      3273  TIP3      H2             18.1253733595      -13.0672622861      -21.2159296465  W2        3273            0.0000000000
      9820      3274  TIP3      OH2            16.3919733595       -9.3140622861      -26.2237296465  W2        3274            0.0000000000
      9821      3274  TIP3      H1             15.5944133595       -9.7290422861      -26.5522296465  W2        3274            0.0000000000
      9822      3274  TIP3      H2             16.8370833595      -10.0046922861      -25.7326796465  W2        3274            0.0000000000
      9823      3275  TIP3      OH2             5.8495533595       -3.3860022861      -33.6532796465  W2        3275            0.0000000000
      9824      3275  TIP3      H1              6.4417033595       -2.6865222861      -33.3770396465  W2        3275            0.0000000000
      9825      3275  TIP3      H2              6.3088533595       -3.8190522861      -34.3728196465  W2        3275            0.0000000000
      9826      3276  TIP3      OH2             4.1654733595      -10.7217022861      -34.5373396465  W2        3276            0.0000000000
      9827      3276  TIP3      H1              4.1207333595       -9.7823922861      -34.3586396465  W2        3276            0.0000000000
      9828      3276  TIP3      H2              3.2777933595      -10.9572122861      -34.8071296465  W2        3276            0.0000000000
      9829      3277  TIP3      OH2            17.4784333595       -0.0578122861      -24.6013796465  W2        3277            0.0000000000
      9830      3277  TIP3      H1             17.3228633595        0.6206277139      -25.2584496465  W2        3277            0.0000000000
      9831      3277  TIP3      H2             18.4110733595        0.0141177139      -24.3983196465  W2        3277            0.0000000000
      9832      3278  TIP3      OH2             4.9736733595      -15.9400422861      -25.8642396465  W2        3278            0.0000000000
      9833      3278  TIP3      H1              4.7446533595      -15.8807922861      -26.7917396465  W2        3278            0.0000000000
      9834      3278  TIP3      H2              4.5310133595      -16.7314922861      -25.5578296465  W2        3278            0.0000000000
      9835      3279  TIP3      OH2             3.9040033595       -1.9993322861      -29.7036596465  W2        3279            0.0000000000
      9836      3279  TIP3      H1              3.0718633595       -1.5270622861      -29.6765196465  W2        3279            0.0000000000
      9837      3279  TIP3      H2              4.4498333595       -1.4895722861      -30.3023496465  W2        3279            0.0000000000
      9838      3280  TIP3      OH2             3.1923733595        0.6130377139      -18.3738596465  W2        3280            0.0000000000
      9839      3280  TIP3      H1              3.7325933595        0.3964377139      -17.6139396465  W2        3280            0.0000000000
      9840      3280  TIP3      H2              2.7111733595       -0.1923622861      -18.5636096465  W2        3280            0.0000000000
      9841      3281  TIP3      OH2             7.7897133595       -0.4675222861      -16.7534396465  W2        3281            0.0000000000
      9842      3281  TIP3      H1              8.5574333595       -0.9264422861      -16.4125196465  W2        3281            0.0000000000
      9843      3281  TIP3      H2              7.7683333595       -0.6935422861      -17.6833196465  W2        3281            0.0000000000
      9844      3282  TIP3      OH2            11.8816733595       -0.9594622861      -35.3782596465  W2        3282            0.0000000000
      9845      3282  TIP3      H1             11.2377733595       -1.5906022861      -35.0568896465  W2        3282            0.0000000000
      9846      3282  TIP3      H2             12.6435033595       -1.4906622861      -35.6099096465  W2        3282            0.0000000000
      9847      3283  TIP3      OH2            14.3665833595       -2.0874122861      -18.0242896465  W2        3283            0.0000000000
      9848      3283  TIP3      H1             14.0155333595       -2.9441122861      -17.7812496465  W2        3283            0.0000000000
      9849      3283  TIP3      H2             15.0929033595       -1.9447422861      -17.4173896465  W2        3283            0.0000000000
      9850      3284  TIP3      OH2            16.4859633595       -1.1424722861      -35.1444596465  W2        3284            0.0000000000
      9851      3284  TIP3      H1             16.7690033595       -1.9369522861      -34.6917696465  W2        3284            0.0000000000
      9852      3284  TIP3      H2             17.2257533595       -0.9093722861      -35.7053496465  W2        3284            0.0000000000
      9853      3285  TIP3      OH2             3.0993233595       -5.5765522861      -17.4194296465  W2        3285            0.0000000000
      9854      3285  TIP3      H1              3.2433733595       -6.4784822861      -17.7057596465  W2        3285            0.0000000000
      9855      3285  TIP3      H2              2.3270633595       -5.2903422861      -17.9071996465  W2        3285            0.0000000000
      9856      3286  TIP3      OH2             7.4406933595       -5.2329822861      -35.2869696465  W2        3286            0.0000000000
      9857      3286  TIP3      H1              7.5051033595       -6.0270222861      -34.7563296465  W2        3286            0.0000000000
      9858      3286  TIP3      H2              8.0936133595       -5.3517022861      -35.9767696465  W2        3286            0.0000000000
      9859      3287  TIP3      OH2             9.7549333595       -5.6067422861      -17.9867896465  W2        3287            0.0000000000
      9860      3287  TIP3      H1              9.4263133595       -5.3359322861      -18.8440496465  W2        3287            0.0000000000
      9861      3287  TIP3      H2              9.9067533595       -6.5477622861      -18.0742896465  W2        3287            0.0000000000
      9862      3288  TIP3      OH2            12.7930333595       -4.1858122861      -35.5511696465  W2        3288            0.0000000000
      9863      3288  TIP3      H1             12.5244433595       -4.0056022861      -34.6502796465  W2        3288            0.0000000000
      9864      3288  TIP3      H2             12.5865933595       -5.1111922861      -35.6825896465  W2        3288            0.0000000000
      9865      3289  TIP3      OH2            15.4894533595       -5.6910122861      -20.6035596465  W2        3289            0.0000000000
      9866      3289  TIP3      H1             16.2349333595       -5.1026422861      -20.7231596465  W2        3289            0.0000000000
      9867      3289  TIP3      H2             14.7321333595       -5.1090422861      -20.5402496465  W2        3289            0.0000000000
      9868      3290  TIP3      OH2             3.9319733595       -8.3762222861      -17.9994996465  W2        3290            0.0000000000
      9869      3290  TIP3      H1              4.3400933595       -9.2335622861      -18.1204396465  W2        3290            0.0000000000
      9870      3290  TIP3      H2              3.6717333595       -8.3620922861      -17.0784696465  W2        3290            0.0000000000
      9871      3291  TIP3      OH2             8.5900733595       -7.2603622861      -32.9811696465  W2        3291            0.0000000000
      9872      3291  TIP3      H1              8.1302733595       -7.7445322861      -32.2953196465  W2        3291            0.0000000000
      9873      3291  TIP3      H2              8.8449433595       -7.9288222861      -33.6171196465  W2        3291            0.0000000000
      9874      3292  TIP3      OH2             7.8790033595       -9.3676522861      -20.6252096465  W2        3292            0.0000000000
      9875      3292  TIP3      H1              7.2606133595       -8.6929922861      -20.3447396465  W2        3292            0.0000000000
      9876      3292  TIP3      H2              8.2231233595       -9.0462622861      -21.4585896465  W2        3292            0.0000000000
      9877      3293  TIP3      OH2             9.6611133595       -9.0171822861      -34.7188496465  W2        3293            0.0000000000
      9878      3293  TIP3      H1              9.4806133595       -9.1720622861      -35.6460196465  W2        3293            0.0000000000
      9879      3293  TIP3      H2             10.6111633595       -8.9093122861      -34.6740596465  W2        3293            0.0000000000
      9880      3294  TIP3      OH2            12.8988233595       -6.8961222861      -17.3477296465  W2        3294            0.0000000000
      9881      3294  TIP3      H1             13.8519433595       -6.8122122861      -17.3751296465  W2        3294            0.0000000000
      9882      3294  TIP3      H2             12.7382833595       -7.6079422861      -16.7282396465  W2        3294            0.0000000000
      9883      3295  TIP3      OH2            19.0509433595       -6.6627622861      -35.2730396465  W2        3295            0.0000000000
      9884      3295  TIP3      H1             18.7774233595       -7.0872122861      -36.0862096465  W2        3295            0.0000000000
      9885      3295  TIP3      H2             19.0903533595       -5.7313122861      -35.4899996465  W2        3295            0.0000000000
      9886      3296  TIP3      OH2             8.2183733595      -12.0125722861      -19.5428996465  W2        3296            0.0000000000
      9887      3296  TIP3      H1              8.3684633595      -12.7414422861      -20.1449296465  W2        3296            0.0000000000
      9888      3296  TIP3      H2              8.2206133595      -11.2354022861      -20.1016796465  W2        3296            0.0000000000
      9889      3297  TIP3      OH2             8.6309433595      -13.6429922861      -22.0501596465  W2        3297            0.0000000000
      9890      3297  TIP3      H1              9.1666933595      -13.1913222861      -22.7022296465  W2        3297            0.0000000000
      9891      3297  TIP3      H2              7.7789033595      -13.7510122861      -22.4727496465  W2        3297            0.0000000000
      9892      3298  TIP3      OH2            10.2127833595       -8.2033722861      -21.8106396465  W2        3298            0.0000000000
      9893      3298  TIP3      H1             10.9632633595       -8.3596222861      -22.3838596465  W2        3298            0.0000000000
      9894      3298  TIP3      H2              9.8736133595       -7.3517122861      -22.0860896465  W2        3298            0.0000000000
      9895      3299  TIP3      OH2            14.6284033595      -10.3881922861      -16.7821096465  W2        3299            0.0000000000
      9896      3299  TIP3      H1             14.8205333595      -11.3192522861      -16.8936596465  W2        3299            0.0000000000
      9897      3299  TIP3      H2             15.4860333595       -9.9632422861      -16.7925696465  W2        3299            0.0000000000
      9898      3300  TIP3      OH2            15.9451233595       -7.5996722861      -18.7048396465  W2        3300            0.0000000000
      9899      3300  TIP3      H1             15.6636233595       -6.8902122861      -19.2824596465  W2        3300            0.0000000000
      9900      3300  TIP3      H2             16.8875533595       -7.6723722861      -18.8557196465  W2        3300            0.0000000000
      9901      3301  TIP3      OH2             6.6970033595      -10.8142222861      -17.6313396465  W2        3301            0.0000000000
      9902      3301  TIP3      H1              5.9299033595      -11.3467422861      -17.8415796465  W2        3301            0.0000000000
      9903      3301  TIP3      H2              7.3759033595      -11.1241822861      -18.2307096465  W2        3301            0.0000000000
      9904      3302  TIP3      OH2             9.4364933595      -16.1864222861      -21.6187996465  W2        3302            0.0000000000
      9905      3302  TIP3      H1              9.3384533595      -15.2401022861      -21.7241796465  W2        3302            0.0000000000
      9906      3302  TIP3      H2              8.6941133595      -16.5590422861      -22.0944496465  W2        3302            0.0000000000
      9907      3303  TIP3      OH2            10.7005433595      -11.8648822861      -18.0549596465  W2        3303            0.0000000000
      9908      3303  TIP3      H1             10.4650833595      -12.0842122861      -17.1534696465  W2        3303            0.0000000000
      9909      3303  TIP3      H2              9.9172333595      -12.0717622861      -18.5647096465  W2        3303            0.0000000000
      9910      3304  TIP3      OH2            13.4162033595      -12.7375322861      -18.9796096465  W2        3304            0.0000000000
      9911      3304  TIP3      H1             12.4687433595      -12.7055622861      -18.8472796465  W2        3304            0.0000000000
      9912      3304  TIP3      H2             13.7288733595      -13.3628222861      -18.3257896465  W2        3304            0.0000000000
      9913      3305  TIP3      OH2            15.0503533595      -14.1034222861      -16.9744196465  W2        3305            0.0000000000
      9914      3305  TIP3      H1             14.9535333595      -15.0556922861      -16.9802296465  W2        3305            0.0000000000
      9915      3305  TIP3      H2             14.7286633595      -13.8347422861      -16.1138696465  W2        3305            0.0000000000
      9916      3306  TIP3      OH2             4.8772833595      -12.8938422861      -17.9268696465  W2        3306            0.0000000000
      9917      3306  TIP3      H1              5.0890233595      -13.6002322861      -18.5371196465  W2        3306            0.0000000000
      9918      3306  TIP3      H2              4.7660333595      -13.3312422861      -17.0827496465  W2        3306            0.0000000000
      9919      3307  TIP3      OH2             9.6583033595      -16.8926822861      -18.9475196465  W2        3307            0.0000000000
      9920      3307  TIP3      H1             10.3701433595      -17.5324622861      -18.9616096465  W2        3307            0.0000000000
      9921      3307  TIP3      H2              9.5573433595      -16.6258522861      -19.8612096465  W2        3307            0.0000000000
      9922      3308  TIP3      OH2            10.0120533595      -15.2098422861      -16.8938896465  W2        3308            0.0000000000
      9923      3308  TIP3      H1              9.8802733595      -15.6854622861      -17.7140396465  W2        3308            0.0000000000
      9924      3308  TIP3      H2              9.4127933595      -14.4654822861      -16.9491796465  W2        3308            0.0000000000
      9925      3309  TIP3      OH2             9.5582833595        1.6731877139      -33.7174896465  W2        3309            0.0000000000
      9926      3309  TIP3      H1             10.4913533595        1.8310577139      -33.5736496465  W2        3309            0.0000000000
      9927      3309  TIP3      H2              9.2941633595        2.3484877139      -34.3423396465  W2        3309            0.0000000000
      9928      3310  TIP3      OH2             3.1267733595       -3.6904322861      -34.2346796465  W2        3310            0.0000000000
      9929      3310  TIP3      H1              4.0406933595       -3.6115422861      -33.9612896465  W2        3310            0.0000000000
      9930      3310  TIP3      H2              3.1340833595       -4.3774722861      -34.9011196465  W2        3310            0.0000000000
      9931      3311  TIP3      OH2             1.7758333595        1.7024177139      -29.1572896465  W2        3311            0.0000000000
      9932      3311  TIP3      H1              1.1285433595        1.2405877139      -29.6901696465  W2        3311            0.0000000000
      9933      3311  TIP3      H2              2.1302933595        1.0307477139      -28.5746696465  W2        3311            0.0000000000
      9934      3312  TIP3      OH2             2.6457533595       -0.2168822861      -27.3526696465  W2        3312            0.0000000000
      9935      3312  TIP3      H1              2.3114333595       -1.0971522861      -27.1806496465  W2        3312            0.0000000000
      9936      3312  TIP3      H2              2.8679933595        0.1286177139      -26.4881096465  W2        3312            0.0000000000
      9937      3313  TIP3      OH2            20.1942333595        0.5927577139      -24.3721896465  W2        3313            0.0000000000
      9938      3313  TIP3      H1             20.1729033595        0.7775977139      -23.4332496465  W2        3313            0.0000000000
      9939      3313  TIP3      H2             20.8848533595        1.1611577139      -24.7130496465  W2        3313            0.0000000000
      9940      3314  TIP3      OH2            19.7575233595        0.1598677139      -21.4502796465  W2        3314            0.0000000000
      9941      3314  TIP3      H1             19.2703933595       -0.5757222861      -21.8215396465  W2        3314            0.0000000000
      9942      3314  TIP3      H2             20.3067933595       -0.2337422861      -20.7723396465  W2        3314            0.0000000000
      9943      3315  TIP3      OH2            18.2082533595       -4.0503222861      -16.8122496465  W2        3315            0.0000000000
      9944      3315  TIP3      H1             17.3423633595       -4.1553522861      -16.4180196465  W2        3315            0.0000000000
      9945      3315  TIP3      H2             18.5848433595       -3.2919922861      -16.3657796465  W2        3315            0.0000000000
      9946      3316  TIP3      OH2            19.5092233595       -5.7939522861      -31.2979996465  W2        3316            0.0000000000
      9947      3316  TIP3      H1             20.3593633595       -5.3728622861      -31.1708396465  W2        3316            0.0000000000
      9948      3316  TIP3      H2             19.5147333595       -6.5339422861      -30.6908596465  W2        3316            0.0000000000
      9949      3317  TIP3      OH2            19.9037833595       -7.7402122861      -29.4744296465  W2        3317            0.0000000000
      9950      3317  TIP3      H1             19.1772433595       -8.2199522861      -29.0766696465  W2        3317            0.0000000000
      9951      3317  TIP3      H2             20.4851133595       -7.5347422861      -28.7422696465  W2        3317            0.0000000000
      9952      3318  TIP3      OH2            19.6629033595       -4.9554622861      -24.5266696465  W2        3318            0.0000000000
      9953      3318  TIP3      H1             20.4963233595       -5.3334622861      -24.8073096465  W2        3318            0.0000000000
      9954      3318  TIP3      H2             19.7749333595       -4.0123422861      -24.6457596465  W2        3318            0.0000000000
      9955      3319  TIP3      OH2            18.1491333595       -2.0777122861      -22.2198296465  W2        3319            0.0000000000
      9956      3319  TIP3      H1             17.5016633595       -1.7525622861      -21.5943096465  W2        3319            0.0000000000
      9957      3319  TIP3      H2             17.6315333595       -2.5179422861      -22.8939996465  W2        3319            0.0000000000
      9958      3320  TIP3      OH2            20.1720933595       -7.8393622861      -33.0832996465  W2        3320            0.0000000000
      9959      3320  TIP3      H1             19.6502033595       -7.4829522861      -33.8022096465  W2        3320            0.0000000000
      9960      3320  TIP3      H2             20.1390133595       -7.1645822861      -32.4052096465  W2        3320            0.0000000000
      9961      3321  TIP3      OH2            18.5209933595      -10.5998022861      -34.5325896465  W2        3321            0.0000000000
      9962      3321  TIP3      H1             18.6174333595       -9.9331022861      -35.2126196465  W2        3321            0.0000000000
      9963      3321  TIP3      H2             18.3809533595      -11.4151722861      -35.0140396465  W2        3321            0.0000000000
      9964      3322  TIP3      OH2            17.6904633595       -9.2195622861      -28.9115596465  W2        3322            0.0000000000
      9965      3322  TIP3      H1             17.5403433595      -10.1647022861      -28.9317796465  W2        3322            0.0000000000
      9966      3322  TIP3      H2             17.3369133595       -8.9384222861      -28.0676496465  W2        3322            0.0000000000
      9967      3323  TIP3      OH2             2.7257033595       -7.1413422861      -24.9011796465  W2        3323            0.0000000000
      9968      3323  TIP3      H1              2.9099933595       -7.2231722861      -25.8368896465  W2        3323            0.0000000000
      9969      3323  TIP3      H2              3.5749933595       -7.2656422861      -24.4775396465  W2        3323            0.0000000000
      9970      3324  TIP3      OH2            18.5467533595       -7.2492322861      -19.2727296465  W2        3324            0.0000000000
      9971      3324  TIP3      H1             19.1294833595       -7.9840022861      -19.0810096465  W2        3324            0.0000000000
      9972      3324  TIP3      H2             19.1106833595       -6.4772022861      -19.2261496465  W2        3324            0.0000000000
      9973      3325  TIP3      OH2            20.0434633595       -9.3466522861      -18.5881896465  W2        3325            0.0000000000
      9974      3325  TIP3      H1             19.1801333595       -9.7254422861      -18.7537196465  W2        3325            0.0000000000
      9975      3325  TIP3      H2             20.6478333595      -10.0851722861      -18.6626096465  W2        3325            0.0000000000
      9976      3326  TIP3      OH2            17.7683733595      -13.1918222861      -35.4150396465  W2        3326            0.0000000000
      9977      3326  TIP3      H1             18.3789533595      -13.5631422861      -34.7782196465  W2        3326            0.0000000000
      9978      3326  TIP3      H2             16.9315233595      -13.6131322861      -35.2190396465  W2        3326            0.0000000000
      9979      3327  TIP3      OH2            17.4009433595      -11.6369822861      -30.4490496465  W2        3327            0.0000000000
      9980      3327  TIP3      H1             17.6806533595      -12.5439422861      -30.3248796465  W2        3327            0.0000000000
      9981      3327  TIP3      H2             18.1601133595      -11.2028322861      -30.8381296465  W2        3327            0.0000000000
      9982      3328  TIP3      OH2            18.0127733595      -11.0552422861      -25.0131596465  W2        3328            0.0000000000
      9983      3328  TIP3      H1             18.9455733595      -10.8432522861      -25.0475596465  W2        3328            0.0000000000
      9984      3328  TIP3      H2             17.7775233595      -10.9540322861      -24.0908596465  W2        3328            0.0000000000
      9985      3329  TIP3      OH2            18.0419633595      -10.3187122861      -22.2372196465  W2        3329            0.0000000000
      9986      3329  TIP3      H1             17.1990933595      -10.0506722861      -21.8712396465  W2        3329            0.0000000000
      9987      3329  TIP3      H2             18.4843933595       -9.4965222861      -22.4481096465  W2        3329            0.0000000000
      9988      3330  TIP3      OH2             2.3231833595      -11.8708422861      -18.7602996465  W2        3330            0.0000000000
      9989      3330  TIP3      H1              3.2426733595      -11.9930122861      -18.5239896465  W2        3330            0.0000000000
      9990      3330  TIP3      H2              1.8736333595      -12.6208722861      -18.3709496465  W2        3330            0.0000000000
      9991      3331  TIP3      OH2            20.3251233595      -16.3386922861      -16.8837196465  W2        3331            0.0000000000
      9992      3331  TIP3      H1             20.6748233595      -16.9923422861      -17.4892496465  W2        3331            0.0000000000
      9993      3331  TIP3      H2             20.4720733595      -15.5012822861      -17.3234596465  W2        3331            0.0000000000
      9994      3332  TIP3      OH2            18.0144233595      -14.3740522861      -30.4008496465  W2        3332            0.0000000000
      9995      3332  TIP3      H1             18.1969233595      -14.8229022861      -29.5753496465  W2        3332            0.0000000000
      9996      3332  TIP3      H2             17.4147133595      -14.9586122861      -30.8643896465  W2        3332            0.0000000000
      9997      3333  TIP3      OH2             3.5444333595      -13.5586822861      -25.8690096465  W2        3333            0.0000000000
      9998      3333  TIP3      H1              3.9895933595      -14.3504322861      -25.5670396465  W2        3333            0.0000000000
      9999      3333  TIP3      H2              4.0107333595      -12.8421622861      -25.4384496465  W2        3333            0.0000000000
     10000      3334  TIP3      OH2             1.8484633595      -10.5593822861      -24.7999896465  W2        3334            0.0000000000
     10001      3334  TIP3      H1              2.3404433595      -10.7803322861      -25.5907896465  W2        3334            0.0000000000
     10002      3334  TIP3      H2              2.2105533595       -9.7190422861      -24.5190396465  W2        3334            0.0000000000
     10003      3335  TIP3      OH2            19.8448433595      -14.2292322861      -18.5345896465  W2        3335            0.0000000000
     10004      3335  TIP3      H1             18.9274133595      -13.9585222861      -18.5702396465  W2        3335            0.0000000000
     10005      3335  TIP3      H2             19.9677833595      -14.7643922861      -19.3186196465  W2        3335            0.0000000000
     10006      3336  TIP3      OH2            19.8810433595      -14.3062422861      -33.8728196465  W2        3336            0.0000000000
     10007      3336  TIP3      H1             20.2933033595      -15.0276722861      -34.3480196465  W2        3336            0.0000000000
     10008      3336  TIP3      H2             20.5626933595      -13.6367822861      -33.8143896465  W2        3336            0.0000000000
     10009      3337  TIP3      OH2             2.1621133595      -14.3014722861      -30.7457496465  W2        3337            0.0000000000
     10010      3337  TIP3      H1              1.2369533595      -14.0928122861      -30.8751996465  W2        3337            0.0000000000
     10011      3337  TIP3      H2              2.6161033595      -13.8173922861      -31.4355196465  W2        3337            0.0000000000
     10012      3338  TIP3      OH2            16.9328333595        0.6826977139      -28.8000096465  W2        3338            0.0000000000
     10013      3338  TIP3      H1             17.5851233595        0.3349077139      -29.4080996465  W2        3338            0.0000000000
     10014      3338  TIP3      H2             17.4432133595        1.1710177139      -28.1540396465  W2        3338            0.0000000000
     10015      3339  TIP3      OH2             2.1256533595      -15.5635722861      -22.4014996465  W2        3339            0.0000000000
     10016      3339  TIP3      H1              1.4607033595      -15.8095422861      -21.7584096465  W2        3339            0.0000000000
     10017      3339  TIP3      H2              1.6827833595      -14.9415322861      -22.9786996465  W2        3339            0.0000000000
     10018      3340  TIP3      OH2             4.3175833595       -2.3881622861      -18.2569196465  W2        3340            0.0000000000
     10019      3340  TIP3      H1              3.4968333595       -2.2135122861      -18.7174496465  W2        3340            0.0000000000
     10020      3340  TIP3      H2              4.0653633595       -2.4616922861      -17.3364796465  W2        3340            0.0000000000
     10021      3341  TIP3      OH2             7.2718733595       -1.4140422861      -21.9985196465  W2        3341            0.0000000000
     10022      3341  TIP3      H1              6.8469833595       -0.6041922861      -22.2810596465  W2        3341            0.0000000000
     10023      3341  TIP3      H2              8.1761533595       -1.3286322861      -22.3005396465  W2        3341            0.0000000000
     10024      3342  TIP3      OH2            11.5830133595       -0.0150422861      -19.0391496465  W2        3342            0.0000000000
     10025      3342  TIP3      H1             11.7677633595       -0.3484322861      -18.1611196465  W2        3342            0.0000000000
     10026      3342  TIP3      H2             12.4294633595        0.2948177139      -19.3612296465  W2        3342            0.0000000000
     10027      3343  TIP3      OH2            13.9280533595        1.2708477139      -19.7950096465  W2        3343            0.0000000000
     10028      3343  TIP3      H1             14.6049433595        0.6380777139      -20.0350896465  W2        3343            0.0000000000
     10029      3343  TIP3      H2             14.2499333595        1.6718977139      -18.9876796465  W2        3343            0.0000000000
     10030      3344  TIP3      OH2            18.8454333595      -16.1396022861      -20.7155096465  W2        3344            0.0000000000
     10031      3344  TIP3      H1             18.0327833595      -15.8145722861      -21.1030396465  W2        3344            0.0000000000
     10032      3344  TIP3      H2             19.0782833595      -16.8997522861      -21.2485996465  W2        3344            0.0000000000
     10033      3345  TIP3      OH2             4.6735433595        1.8423477139      -21.9509896465  W2        3345            0.0000000000
     10034      3345  TIP3      H1              3.9531833595        2.2824477139      -22.4022196465  W2        3345            0.0000000000
     10035      3345  TIP3      H2              4.3079433595        1.5918177139      -21.1025896465  W2        3345            0.0000000000
     10036      3346  TIP3      OH2             7.1408033595        1.4427377139      -22.9212696465  W2        3346            0.0000000000
     10037      3346  TIP3      H1              6.2760233595        1.5145877139      -22.5172596465  W2        3346            0.0000000000
     10038      3346  TIP3      H2              7.0857033595        1.9894677139      -23.7050196465  W2        3346            0.0000000000
     10039      3347  TIP3      OH2            11.8513633595        1.3306277139      -23.7456696465  W2        3347            0.0000000000
     10040      3347  TIP3      H1             11.3947633595        1.8595977139      -24.3998296465  W2        3347            0.0000000000
     10041      3347  TIP3      H2             12.0141633595        1.9337677139      -23.0204396465  W2        3347            0.0000000000
     10042      3348  TIP3      OH2            14.1789933595        0.2085877139      -22.8006396465  W2        3348            0.0000000000
     10043      3348  TIP3      H1             13.2743633595        0.3736077139      -23.0664296465  W2        3348            0.0000000000
     10044      3348  TIP3      H2             14.6078533595        1.0618077139      -22.8662996465  W2        3348            0.0000000000
     10045      3349  TIP3      OH2            16.7831833595        1.7784977139      -22.5058596465  W2        3349            0.0000000000
     10046      3349  TIP3      H1             16.6013833595        2.6943877139      -22.7163696465  W2        3349            0.0000000000
     10047      3349  TIP3      H2             16.9599633595        1.3682077139      -23.3523996465  W2        3349            0.0000000000
     10048      3350  TIP3      OH2             4.0883533595        0.4655977139      -25.0408096465  W2        3350            0.0000000000
     10049      3350  TIP3      H1              4.0699533595        0.0401077139      -24.1835796465  W2        3350            0.0000000000
     10050      3350  TIP3      H2              4.8931433595        0.1470977139      -25.4495896465  W2        3350            0.0000000000
     10051      3351  TIP3      OH2             6.2296633595       -0.8245322861      -26.3858196465  W2        3351            0.0000000000
     10052      3351  TIP3      H1              6.0107333595       -1.7407922861      -26.2162196465  W2        3351            0.0000000000
     10053      3351  TIP3      H2              7.0538833595       -0.6844922861      -25.9196796465  W2        3351            0.0000000000
     10054      3352  TIP3      OH2             8.7669133595       -0.3546022861      -25.5370196465  W2        3352            0.0000000000
     10055      3352  TIP3      H1              8.9794833595       -1.2427022861      -25.8239296465  W2        3352            0.0000000000
     10056      3352  TIP3      H2              8.8314233595       -0.3888322861      -24.5826196465  W2        3352            0.0000000000
     10057      3353  TIP3      OH2            12.2752833595      -14.6905422861      -26.3926896465  W2        3353            0.0000000000
     10058      3353  TIP3      H1             11.6009633595      -15.3199822861      -26.1371096465  W2        3353            0.0000000000
     10059      3353  TIP3      H2             12.8392033595      -15.1746522861      -26.9958996465  W2        3353            0.0000000000
     10060      3354  TIP3      OH2            17.4180033595      -16.5831422861      -26.2799796465  W2        3354            0.0000000000
     10061      3354  TIP3      H1             18.0217633595      -16.0356022861      -26.7818796465  W2        3354            0.0000000000
     10062      3354  TIP3      H2             16.5482033595      -16.2641022861      -26.5205696465  W2        3354            0.0000000000
     10063      3355  TIP3      OH2            19.1450433595      -15.4442722861      -27.9468896465  W2        3355            0.0000000000
     10064      3355  TIP3      H1             19.7567933595      -15.9587022861      -28.4735296465  W2        3355            0.0000000000
     10065      3355  TIP3      H2             19.5273833595      -14.5670622861      -27.9234496465  W2        3355            0.0000000000
     10066      3356  TIP3      OH2             4.6020333595      -16.0565122861      -28.5706996465  W2        3356            0.0000000000
     10067      3356  TIP3      H1              3.8250133595      -16.2910222861      -29.0781096465  W2        3356            0.0000000000
     10068      3356  TIP3      H2              5.1323933595      -16.8533022861      -28.5618996465  W2        3356            0.0000000000
     10069      3357  TIP3      OH2             3.4383733595      -16.2587022861      -32.7670896465  W2        3357            0.0000000000
     10070      3357  TIP3      H1              3.8774433595      -15.6476522861      -33.3587396465  W2        3357            0.0000000000
     10071      3357  TIP3      H2              2.8046133595      -15.7202922861      -32.2930896465  W2        3357            0.0000000000
     10072      3358  TIP3      OH2             9.1812933595      -16.1298022861      -28.7573896465  W2        3358            0.0000000000
     10073      3358  TIP3      H1             10.0556333595      -15.7413722861      -28.7869596465  W2        3358            0.0000000000
     10074      3358  TIP3      H2              9.0453733595      -16.3450222861      -27.8346696465  W2        3358            0.0000000000
     10075      3359  TIP3      OH2            14.7381333595      -16.0998222861      -27.1082196465  W2        3359            0.0000000000
     10076      3359  TIP3      H1             14.8142933595      -16.0046622861      -28.0576196465  W2        3359            0.0000000000
     10077      3359  TIP3      H2             14.4630533595      -17.0075322861      -26.9793096465  W2        3359            0.0000000000
     10078      3360  TIP3      OH2            16.0913933595      -16.0740422861      -31.4157196465  W2        3360            0.0000000000
     10079      3360  TIP3      H1             15.3885033595      -15.4591222861      -31.6255796465  W2        3360            0.0000000000
     10080      3360  TIP3      H2             15.6465333595      -16.9113722861      -31.2846296465  W2        3360            0.0000000000
     10081      3361  TIP3      OH2             3.3393233595       -0.3104822861      -31.8695796465  W2        3361            0.0000000000
     10082      3361  TIP3      H1              2.6543133595       -0.3485922861      -32.5370696465  W2        3361            0.0000000000
     10083      3361  TIP3      H2              3.3430433595        0.6022777139      -31.5813696465  W2        3361            0.0000000000
     10084      3362  TIP3      OH2             5.2992833595      -14.3425522861      -34.3246796465  W2        3362            0.0000000000
     10085      3362  TIP3      H1              5.7906233595      -14.9723122861      -34.8521296465  W2        3362            0.0000000000
     10086      3362  TIP3      H2              5.9229133595      -14.0466122861      -33.6615596465  W2        3362            0.0000000000
     10087      3363  TIP3      OH2            10.3252933595      -14.0494022861      -31.8676296465  W2        3363            0.0000000000
     10088      3363  TIP3      H1             10.5034233595      -14.6960822861      -31.1847696465  W2        3363            0.0000000000
     10089      3363  TIP3      H2             10.2719133595      -13.2156322861      -31.4005196465  W2        3363            0.0000000000
     10090      3364  TIP3      OH2            12.2036733595        0.8990077139      -33.4719596465  W2        3364            0.0000000000
     10091      3364  TIP3      H1             13.0696933595        1.2657477139      -33.6501396465  W2        3364            0.0000000000
     10092      3364  TIP3      H2             11.9569533595        0.4598077139      -34.2858796465  W2        3364            0.0000000000
     10093      3365  TIP3      OH2            18.9126333595        0.4620377139      -30.7928496465  W2        3365            0.0000000000
     10094      3365  TIP3      H1             18.7183433595       -0.2857522861      -31.3578896465  W2        3365            0.0000000000
     10095      3365  TIP3      H2             18.8736433595        1.2200477139      -31.3760596465  W2        3365            0.0000000000
     10096      3366  TIP3      OH2             4.5598333595      -15.5423222861      -19.0530796465  W2        3366            0.0000000000
     10097      3366  TIP3      H1              4.1936533595      -16.3080622861      -18.6106096465  W2        3366            0.0000000000
     10098      3366  TIP3      H2              5.4726833595      -15.5133022861      -18.7665696465  W2        3366            0.0000000000
     10099      3367  TIP3      OH2             6.5329133595      -16.1918822861      -17.5173696465  W2        3367            0.0000000000
     10100      3367  TIP3      H1              7.4312733595      -16.4658622861      -17.7020296465  W2        3367            0.0000000000
     10101      3367  TIP3      H2              6.1462233595      -16.9342822861      -17.0531096465  W2        3367            0.0000000000
     10102      3368  TIP3      OH2             5.1574433595        0.6095977139      -34.8443696465  W2        3368            0.0000000000
     10103      3368  TIP3      H1              4.8899033595        0.8958877139      -33.9710596465  W2        3368            0.0000000000
     10104      3368  TIP3      H2              5.9287033595        0.0635177139      -34.6921196465  W2        3368            0.0000000000
     10105      3369  TIP3      OH2            14.9541433595      -16.8593522861      -17.3350896465  W2        3369            0.0000000000
     10106      3369  TIP3      H1             15.0308633595      -17.2852822861      -16.4813196465  W2        3369            0.0000000000
     10107      3369  TIP3      H2             15.8478033595      -16.8458822861      -17.6777396465  W2        3369            0.0000000000
     10108      3370  TIP3      OH2            18.1302533595       -0.7867222861      -18.6426696465  W2        3370            0.0000000000
     10109      3370  TIP3      H1             17.3484433595       -0.9729222861      -19.1626096465  W2        3370            0.0000000000
     10110      3370  TIP3      H2             18.0582433595        0.1427077139      -18.4254196465  W2        3370            0.0000000000
     10111      3371  TIP3      OH2            32.5362933595       -6.9002822861      -28.6119496465  W2        3371            0.0000000000
     10112      3371  TIP3      H1             32.6254033595       -5.9564622861      -28.7442396465  W2        3371            0.0000000000
     10113      3371  TIP3      H2             31.8980533595       -7.1756422861      -29.2700096465  W2        3371            0.0000000000
     10114      3372  TIP3      OH2            31.4694233595       -7.6452122861      -25.1931296465  W2        3372            0.0000000000
     10115      3372  TIP3      H1             31.4311733595       -8.2915822861      -24.4881696465  W2        3372            0.0000000000
     10116      3372  TIP3      H2             31.1470733595       -8.1117722861      -25.9642596465  W2        3372            0.0000000000
     10117      3373  TIP3      OH2            23.8379233595       -8.0310022861      -23.6001396465  W2        3373            0.0000000000
     10118      3373  TIP3      H1             23.8791333595       -8.6566722861      -22.8768996465  W2        3373            0.0000000000
     10119      3373  TIP3      H2             24.5406933595       -7.4071422861      -23.4180996465  W2        3373            0.0000000000
     10120      3374  TIP3      OH2            35.1754433595       -4.7061722861      -26.8916196465  W2        3374            0.0000000000
     10121      3374  TIP3      H1             34.7347133595       -5.4265722861      -26.4410596465  W2        3374            0.0000000000
     10122      3374  TIP3      H2             35.1624133595       -3.9854522861      -26.2618496465  W2        3374            0.0000000000
     10123      3375  TIP3      OH2            24.7612333595       -3.5811122861      -25.0652296465  W2        3375            0.0000000000
     10124      3375  TIP3      H1             24.3917533595       -4.3830622861      -25.4347996465  W2        3375            0.0000000000
     10125      3375  TIP3      H2             25.7023433595       -3.7496222861      -25.0188896465  W2        3375            0.0000000000
     10126      3376  TIP3      OH2            21.3712833595       -9.9208522861      -29.6723496465  W2        3376            0.0000000000
     10127      3376  TIP3      H1             20.9236233595       -9.0749822861      -29.6906996465  W2        3376            0.0000000000
     10128      3376  TIP3      H2             20.8104033595      -10.5004322861      -30.1878396465  W2        3376            0.0000000000
     10129      3377  TIP3      OH2            22.0818933595       -7.7588922861      -27.5465496465  W2        3377            0.0000000000
     10130      3377  TIP3      H1             22.2952433595       -8.5287322861      -27.0192496465  W2        3377            0.0000000000
     10131      3377  TIP3      H2             22.8196533595       -7.6692222861      -28.1497896465  W2        3377            0.0000000000
     10132      3378  TIP3      OH2            32.2869933595        0.3979977139      -26.6795796465  W2        3378            0.0000000000
     10133      3378  TIP3      H1             32.9066333595       -0.2785322861      -26.9526596465  W2        3378            0.0000000000
     10134      3378  TIP3      H2             32.0787333595        0.1800777139      -25.7710896465  W2        3378            0.0000000000
     10135      3379  TIP3      OH2            29.8588633595       -5.2130722861      -24.7870296465  W2        3379            0.0000000000
     10136      3379  TIP3      H1             30.1626533595       -5.8989322861      -25.3816196465  W2        3379            0.0000000000
     10137      3379  TIP3      H2             30.5802633595       -5.0942022861      -24.1692296465  W2        3379            0.0000000000
     10138      3380  TIP3      OH2            38.5218433595      -13.6115422861      -23.9264096465  W2        3380            0.0000000000
     10139      3380  TIP3      H1             38.5710633595      -13.0014222861      -23.1904996465  W2        3380            0.0000000000
     10140      3380  TIP3      H2             38.9473533595      -13.1504522861      -24.6492996465  W2        3380            0.0000000000
     10141      3381  TIP3      OH2            32.9995633595      -10.8188322861      -24.4595496465  W2        3381            0.0000000000
     10142      3381  TIP3      H1             33.1421533595      -11.7651322861      -24.4393896465  W2        3381            0.0000000000
     10143      3381  TIP3      H2             32.8934633595      -10.6118522861      -25.3880596465  W2        3381            0.0000000000
     10144      3382  TIP3      OH2            26.1543933595      -12.7171922861      -27.1870696465  W2        3382            0.0000000000
     10145      3382  TIP3      H1             26.1975033595      -11.8573422861      -27.6054396465  W2        3382            0.0000000000
     10146      3382  TIP3      H2             25.6968033595      -13.2697222861      -27.8207496465  W2        3382            0.0000000000
     10147      3383  TIP3      OH2            33.8766633595      -12.5866322861      -28.7862396465  W2        3383            0.0000000000
     10148      3383  TIP3      H1             34.5230933595      -12.9153122861      -28.1614796465  W2        3383            0.0000000000
     10149      3383  TIP3      H2             34.3866033595      -12.0687322861      -29.4090996465  W2        3383            0.0000000000
     10150      3384  TIP3      OH2            22.7745433595      -10.3206122861      -26.4249296465  W2        3384            0.0000000000
     10151      3384  TIP3      H1             23.4282033595      -10.8704422861      -25.9929196465  W2        3384            0.0000000000
     10152      3384  TIP3      H2             22.7984733595      -10.5947122861      -27.3417296465  W2        3384            0.0000000000
     10153      3385  TIP3      OH2            27.9309933595       -8.7704822861      -27.2097796465  W2        3385            0.0000000000
     10154      3385  TIP3      H1             28.5470933595       -9.2969422861      -26.7003796465  W2        3385            0.0000000000
     10155      3385  TIP3      H2             27.3448733595       -9.4106122861      -27.6134196465  W2        3385            0.0000000000
     10156      3386  TIP3      OH2            38.9133033595      -12.1336222861      -21.6904296465  W2        3386            0.0000000000
     10157      3386  TIP3      H1             38.2247633595      -11.4755522861      -21.7857696465  W2        3386            0.0000000000
     10158      3386  TIP3      H2             38.9287633595      -12.3308322861      -20.7538896465  W2        3386            0.0000000000
     10159      3387  TIP3      OH2            24.9645833595      -13.7993522861      -23.1129896465  W2        3387            0.0000000000
     10160      3387  TIP3      H1             24.7457533595      -13.2692922861      -23.8793896465  W2        3387            0.0000000000
     10161      3387  TIP3      H2             24.2966733595      -13.5728022861      -22.4658496465  W2        3387            0.0000000000
     10162      3388  TIP3      OH2            32.3335633595       -4.2992422861      -29.5690796465  W2        3388            0.0000000000
     10163      3388  TIP3      H1             32.0380733595       -4.6220122861      -30.4203896465  W2        3388            0.0000000000
     10164      3388  TIP3      H2             32.0093433595       -3.3995722861      -29.5278196465  W2        3388            0.0000000000
     10165      3389  TIP3      OH2            27.5337233595       -6.1237822861      -22.8256196465  W2        3389            0.0000000000
     10166      3389  TIP3      H1             26.7936333595       -5.5256322861      -22.7220996465  W2        3389            0.0000000000
     10167      3389  TIP3      H2             28.2476733595       -5.5698222861      -23.1412596465  W2        3389            0.0000000000
     10168      3390  TIP3      OH2            35.6405033595      -13.2957022861      -26.8056496465  W2        3390            0.0000000000
     10169      3390  TIP3      H1             35.4253033595      -14.0613622861      -26.2730496465  W2        3390            0.0000000000
     10170      3390  TIP3      H2             36.2962433595      -12.8232422861      -26.2927996465  W2        3390            0.0000000000
     10171      3391  TIP3      OH2            24.5583133595      -11.9071722861      -25.1607696465  W2        3391            0.0000000000
     10172      3391  TIP3      H1             25.1719433595      -11.2744122861      -24.7875296465  W2        3391            0.0000000000
     10173      3391  TIP3      H2             25.0703833595      -12.3796722861      -25.8170796465  W2        3391            0.0000000000
     10174      3392  TIP3      OH2            25.9411533595       -4.1594822861      -22.0384696465  W2        3392            0.0000000000
     10175      3392  TIP3      H1             25.9359133595       -3.2801322861      -22.4165396465  W2        3392            0.0000000000
     10176      3392  TIP3      H2             25.0875633595       -4.2430722861      -21.6134796465  W2        3392            0.0000000000
     10177      3393  TIP3      OH2            22.0622433595       -4.4886922861      -31.2565396465  W2        3393            0.0000000000
     10178      3393  TIP3      H1             21.7903333595       -4.2595922861      -32.1452496465  W2        3393            0.0000000000
     10179      3393  TIP3      H2             22.1078133595       -3.6508122861      -30.7960096465  W2        3393            0.0000000000
     10180      3394  TIP3      OH2            35.6872133595       -2.8671022861      -24.5436896465  W2        3394            0.0000000000
     10181      3394  TIP3      H1             34.7455833595       -2.8087122861      -24.3819996465  W2        3394            0.0000000000
     10182      3394  TIP3      H2             35.9638233595       -1.9610522861      -24.6807196465  W2        3394            0.0000000000
     10183      3395  TIP3      OH2            35.9879133595      -14.5805722861      -23.1262996465  W2        3395            0.0000000000
     10184      3395  TIP3      H1             35.2518333595      -13.9698622861      -23.1641696465  W2        3395            0.0000000000
     10185      3395  TIP3      H2             36.6713133595      -14.1656722861      -23.6526596465  W2        3395            0.0000000000
     10186      3396  TIP3      OH2            28.9910533595      -16.4938422861      -25.6604996465  W2        3396            0.0000000000
     10187      3396  TIP3      H1             28.8734733595      -17.4422422861      -25.7146696465  W2        3396            0.0000000000
     10188      3396  TIP3      H2             28.1360633595      -16.1612322861      -25.3873896465  W2        3396            0.0000000000
     10189      3397  TIP3      OH2            33.9393333595       -1.0857522861      -27.9185296465  W2        3397            0.0000000000
     10190      3397  TIP3      H1             34.3645633595       -1.7929622861      -28.4035696465  W2        3397            0.0000000000
     10191      3397  TIP3      H2             34.2563333595       -0.2844822861      -28.3353096465  W2        3397            0.0000000000
     10192      3398  TIP3      OH2            35.0989833595       -3.1849022861      -29.4098696465  W2        3398            0.0000000000
     10193      3398  TIP3      H1             34.8414633595       -3.8748922861      -30.0212796465  W2        3398            0.0000000000
     10194      3398  TIP3      H2             35.1700633595       -3.6277822861      -28.5642796465  W2        3398            0.0000000000
     10195      3399  TIP3      OH2            36.7850033595       -4.6182322861      -20.9325196465  W2        3399            0.0000000000
     10196      3399  TIP3      H1             36.9246333595       -5.2099822861      -21.6718196465  W2        3399            0.0000000000
     10197      3399  TIP3      H2             36.9522833595       -3.7456422861      -21.2886396465  W2        3399            0.0000000000
     10198      3400  TIP3      OH2            31.2575433595       -7.6562822861      -31.1599196465  W2        3400            0.0000000000
     10199      3400  TIP3      H1             30.5460933595       -7.1213122861      -31.5118696465  W2        3400            0.0000000000
     10200      3400  TIP3      H2             31.9485033595       -7.6010722861      -31.8200296465  W2        3400            0.0000000000
     10201      3401  TIP3      OH2            31.3114633595       -9.1988522861      -34.1214196465  W2        3401            0.0000000000
     10202      3401  TIP3      H1             32.0124533595       -9.1761622861      -33.4700196465  W2        3401            0.0000000000
     10203      3401  TIP3      H2             31.6137533595       -9.8268822861      -34.7774896465  W2        3401            0.0000000000
     10204      3402  TIP3      OH2            38.6269333595       -8.2784322861      -22.8664796465  W2        3402            0.0000000000
     10205      3402  TIP3      H1             37.9743433595       -7.5838722861      -22.7773896465  W2        3402            0.0000000000
     10206      3402  TIP3      H2             39.0919633595       -8.0683422861      -23.6763196465  W2        3402            0.0000000000
     10207      3403  TIP3      OH2            34.6633133595       -7.4469522861      -30.2083296465  W2        3403            0.0000000000
     10208      3403  TIP3      H1             33.9314133595       -7.2185822861      -29.6352696465  W2        3403            0.0000000000
     10209      3403  TIP3      H2             35.1105333595       -8.1606822861      -29.7535796465  W2        3403            0.0000000000
     10210      3404  TIP3      OH2            34.5606633595       -9.2726922861      -21.1406296465  W2        3404            0.0000000000
     10211      3404  TIP3      H1             34.6405733595       -8.5092522861      -20.5687796465  W2        3404            0.0000000000
     10212      3404  TIP3      H2             33.9594333595       -8.9934522861      -21.8311196465  W2        3404            0.0000000000
     10213      3405  TIP3      OH2            26.3086833595       -6.8163322861      -28.3258296465  W2        3405            0.0000000000
     10214      3405  TIP3      H1             25.9782033595       -7.1869922861      -29.1441296465  W2        3405            0.0000000000
     10215      3405  TIP3      H2             26.8970933595       -7.4869322861      -27.9789996465  W2        3405            0.0000000000
     10216      3406  TIP3      OH2            27.6754333595       -3.3882722861      -25.6446096465  W2        3406            0.0000000000
     10217      3406  TIP3      H1             27.5805633595       -3.9669622861      -26.4011496465  W2        3406            0.0000000000
     10218      3406  TIP3      H2             28.4047933595       -3.7597022861      -25.1483296465  W2        3406            0.0000000000
     10219      3407  TIP3      OH2            26.6752333595       -8.0477722861      -24.6923296465  W2        3407            0.0000000000
     10220      3407  TIP3      H1             27.2404833595       -7.9263522861      -25.4552096465  W2        3407            0.0000000000
     10221      3407  TIP3      H2             26.9941233595       -7.4102722861      -24.0534796465  W2        3407            0.0000000000
     10222      3408  TIP3      OH2            32.9844533595       -2.5445822861      -23.9582796465  W2        3408            0.0000000000
     10223      3408  TIP3      H1             32.7441133595       -1.8822722861      -23.3103596465  W2        3408            0.0000000000
     10224      3408  TIP3      H2             32.7862733595       -3.3790622861      -23.5333196465  W2        3408            0.0000000000
     10225      3409  TIP3      OH2            27.5553033595       -3.6485022861      -19.9751396465  W2        3409            0.0000000000
     10226      3409  TIP3      H1             27.2440533595       -2.8661822861      -19.5198196465  W2        3409            0.0000000000
     10227      3409  TIP3      H2             26.9053233595       -3.8015922861      -20.6609396465  W2        3409            0.0000000000
     10228      3410  TIP3      OH2            33.5342633595       -8.2846622861      -32.5232096465  W2        3410            0.0000000000
     10229      3410  TIP3      H1             34.1138133595       -8.1346322861      -31.7763196465  W2        3410            0.0000000000
     10230      3410  TIP3      H2             33.9482633595       -7.8139222861      -33.2465696465  W2        3410            0.0000000000
     10231      3411  TIP3      OH2            24.4752933595       -7.4503922861      -20.7465696465  W2        3411            0.0000000000
     10232      3411  TIP3      H1             24.5456133595       -6.7997122861      -20.0480696465  W2        3411            0.0000000000
     10233      3411  TIP3      H2             23.5845133595       -7.3476422861      -21.0814796465  W2        3411            0.0000000000
     10234      3412  TIP3      OH2            31.2607533595       -1.5478122861      -29.0878996465  W2        3412            0.0000000000
     10235      3412  TIP3      H1             31.7345133595       -1.2521822861      -28.3104796465  W2        3412            0.0000000000
     10236      3412  TIP3      H2             30.6976833595       -0.8096522861      -29.3209396465  W2        3412            0.0000000000
     10237      3413  TIP3      OH2            25.7948933595       -1.5770022861      -19.2117596465  W2        3413            0.0000000000
     10238      3413  TIP3      H1             25.8024233595       -1.7130322861      -20.1592096465  W2        3413            0.0000000000
     10239      3413  TIP3      H2             24.8789333595       -1.6941922861      -18.9597596465  W2        3413            0.0000000000
     10240      3414  TIP3      OH2            37.2331033595      -16.5346222861      -32.7102396465  W2        3414            0.0000000000
     10241      3414  TIP3      H1             36.3331733595      -16.3957222861      -32.4151796465  W2        3414            0.0000000000
     10242      3414  TIP3      H2             37.4849433595      -15.7031622861      -33.1120696465  W2        3414            0.0000000000
     10243      3415  TIP3      OH2            25.2989533595       -7.7469022861      -30.7365496465  W2        3415            0.0000000000
     10244      3415  TIP3      H1             25.0070833595       -6.9787322861      -31.2274196465  W2        3415            0.0000000000
     10245      3415  TIP3      H2             24.6244733595       -8.4062822861      -30.8994096465  W2        3415            0.0000000000
     10246      3416  TIP3      OH2            38.4222433595       -2.1683822861      -34.3338496465  W2        3416            0.0000000000
     10247      3416  TIP3      H1             38.4955933595       -1.2293622861      -34.1633196465  W2        3416            0.0000000000
     10248      3416  TIP3      H2             39.3277533595       -2.4735222861      -34.3901196465  W2        3416            0.0000000000
     10249      3417  TIP3      OH2            21.3919633595       -5.3839822861      -21.9215696465  W2        3417            0.0000000000
     10250      3417  TIP3      H1             20.8908033595       -5.4120422861      -22.7365996465  W2        3417            0.0000000000
     10251      3417  TIP3      H2             21.3973333595       -6.2896622861      -21.6118396465  W2        3417            0.0000000000
     10252      3418  TIP3      OH2            21.1422333595       -2.6036022861      -25.0375496465  W2        3418            0.0000000000
     10253      3418  TIP3      H1             22.0882933595       -2.7479022861      -25.0565996465  W2        3418            0.0000000000
     10254      3418  TIP3      H2             21.0298633595       -1.8193222861      -24.5004296465  W2        3418            0.0000000000
     10255      3419  TIP3      OH2            39.3400833595       -1.9376322861      -19.3551796465  W2        3419            0.0000000000
     10256      3419  TIP3      H1             39.2907633595       -2.8928222861      -19.3924196465  W2        3419            0.0000000000
     10257      3419  TIP3      H2             38.5133133595       -1.6701022861      -18.9537996465  W2        3419            0.0000000000
     10258      3420  TIP3      OH2            30.3184833595       -2.3637122861      -20.4790396465  W2        3420            0.0000000000
     10259      3420  TIP3      H1             30.4059433595       -1.5372522861      -20.0041296465  W2        3420            0.0000000000
     10260      3420  TIP3      H2             29.4549933595       -2.6933322861      -20.2301096465  W2        3420            0.0000000000
     10261      3421  TIP3      OH2            30.7330633595        1.4086577139      -30.6729796465  W2        3421            0.0000000000
     10262      3421  TIP3      H1             30.6576633595        1.2873777139      -31.6194596465  W2        3421            0.0000000000
     10263      3421  TIP3      H2             30.7659333595        2.3579277139      -30.5545196465  W2        3421            0.0000000000
     10264      3422  TIP3      OH2            24.3864433595        0.1973577139      -28.8920796465  W2        3422            0.0000000000
     10265      3422  TIP3      H1             24.5384833595       -0.1506022861      -28.0134296465  W2        3422            0.0000000000
     10266      3422  TIP3      H2             23.5354833595       -0.1589122861      -29.1473596465  W2        3422            0.0000000000
     10267      3423  TIP3      OH2            33.8346633595        0.5626777139      -33.6707396465  W2        3423            0.0000000000
     10268      3423  TIP3      H1             34.2095033595       -0.1817122861      -34.1414796465  W2        3423            0.0000000000
     10269      3423  TIP3      H2             33.8390333595        0.2927377139      -32.7524096465  W2        3423            0.0000000000
     10270      3424  TIP3      OH2            33.5034733595        0.4883877139      -30.9215196465  W2        3424            0.0000000000
     10271      3424  TIP3      H1             32.5684533595        0.5885777139      -30.7428196465  W2        3424            0.0000000000
     10272      3424  TIP3      H2             33.7836633595       -0.2210122861      -30.3431996465  W2        3424            0.0000000000
     10273      3425  TIP3      OH2            36.4920633595      -10.4443822861      -18.8749596465  W2        3425            0.0000000000
     10274      3425  TIP3      H1             36.0847433595       -9.9638222861      -19.5956296465  W2        3425            0.0000000000
     10275      3425  TIP3      H2             36.5326333595      -11.3497822861      -19.1828796465  W2        3425            0.0000000000
     10276      3426  TIP3      OH2            23.6410133595       -4.0604422861      -20.8782896465  W2        3426            0.0000000000
     10277      3426  TIP3      H1             23.8571433595       -4.4218822861      -20.0187096465  W2        3426            0.0000000000
     10278      3426  TIP3      H2             22.7854833595       -4.4350622861      -21.0879396465  W2        3426            0.0000000000
     10279      3427  TIP3      OH2            26.2598133595      -15.5903922861      -24.8828696465  W2        3427            0.0000000000
     10280      3427  TIP3      H1             25.3981833595      -15.6775722861      -25.2905796465  W2        3427            0.0000000000
     10281      3427  TIP3      H2             26.2373833595      -14.7343822861      -24.4551096465  W2        3427            0.0000000000
     10282      3428  TIP3      OH2            30.9225933595      -15.8683522861      -21.5081696465  W2        3428            0.0000000000
     10283      3428  TIP3      H1             31.3429033595      -16.2836422861      -20.7551096465  W2        3428            0.0000000000
     10284      3428  TIP3      H2             29.9895533595      -16.0470222861      -21.3909696465  W2        3428            0.0000000000
     10285      3429  TIP3      OH2            34.2490833595      -12.1128322861      -20.6547196465  W2        3429            0.0000000000
     10286      3429  TIP3      H1             33.7350333595      -12.2386122861      -19.8571196465  W2        3429            0.0000000000
     10287      3429  TIP3      H2             34.0935533595      -11.2005222861      -20.8990996465  W2        3429            0.0000000000
     10288      3430  TIP3      OH2            35.0115733595       -7.2518322861      -34.8934196465  W2        3430            0.0000000000
     10289      3430  TIP3      H1             35.0536533595       -7.4744422861      -35.8234196465  W2        3430            0.0000000000
     10290      3430  TIP3      H2             35.8607833595       -6.8531222861      -34.7034296465  W2        3430            0.0000000000
     10291      3431  TIP3      OH2            30.5843233595      -13.3760122861      -34.2230896465  W2        3431            0.0000000000
     10292      3431  TIP3      H1             30.3308033595      -13.3568522861      -33.3002796465  W2        3431            0.0000000000
     10293      3431  TIP3      H2             30.3275333595      -14.2474722861      -34.5244696465  W2        3431            0.0000000000
     10294      3432  TIP3      OH2            26.3508233595      -10.6249422861      -23.7878496465  W2        3432            0.0000000000
     10295      3432  TIP3      H1             25.7090333595      -10.6652122861      -23.0788396465  W2        3432            0.0000000000
     10296      3432  TIP3      H2             26.3880233595       -9.6984722861      -24.0255496465  W2        3432            0.0000000000
     10297      3433  TIP3      OH2            26.3477333595      -10.4039322861      -28.8758496465  W2        3433            0.0000000000
     10298      3433  TIP3      H1             25.4550233595      -10.7443222861      -28.9344696465  W2        3433            0.0000000000
     10299      3433  TIP3      H2             26.7983933595      -10.7808422861      -29.6315296465  W2        3433            0.0000000000
     10300      3434  TIP3      OH2            31.8832833595       -9.9879022861      -30.0587696465  W2        3434            0.0000000000
     10301      3434  TIP3      H1             31.4743133595       -9.1730422861      -30.3502896465  W2        3434            0.0000000000
     10302      3434  TIP3      H2             32.6039033595      -10.1278922861      -30.6730596465  W2        3434            0.0000000000
     10303      3435  TIP3      OH2            30.9854433595       -9.8122622861      -18.5706996465  W2        3435            0.0000000000
     10304      3435  TIP3      H1             30.4228233595      -10.5171022861      -18.2499196465  W2        3435            0.0000000000
     10305      3435  TIP3      H2             31.8117833595       -9.9330722861      -18.1029396465  W2        3435            0.0000000000
     10306      3436  TIP3      OH2            32.8880533595      -10.5418622861      -27.2447996465  W2        3436            0.0000000000
     10307      3436  TIP3      H1             32.6925033595       -9.9361822861      -27.9597396465  W2        3436            0.0000000000
     10308      3436  TIP3      H2             33.0693133595      -11.3753422861      -27.6791696465  W2        3436            0.0000000000
     10309      3437  TIP3      OH2            24.1008733595      -10.3045922861      -21.9206496465  W2        3437            0.0000000000
     10310      3437  TIP3      H1             24.0628133595       -9.9044322861      -21.0519396465  W2        3437            0.0000000000
     10311      3437  TIP3      H2             23.6099833595      -11.1213522861      -21.8303596465  W2        3437            0.0000000000
     10312      3438  TIP3      OH2            27.4666133595      -12.9303622861      -35.1220496465  W2        3438            0.0000000000
     10313      3438  TIP3      H1             27.0356833595      -13.3753522861      -34.3923096465  W2        3438            0.0000000000
     10314      3438  TIP3      H2             26.7484833595      -12.5587322861      -35.6342996465  W2        3438            0.0000000000
     10315      3439  TIP3      OH2            20.7089533595      -13.1884122861      -28.0701796465  W2        3439            0.0000000000
     10316      3439  TIP3      H1             21.3397233595      -13.2172022861      -27.3507896465  W2        3439            0.0000000000
     10317      3439  TIP3      H2             21.1583833595      -13.6135422861      -28.8005896465  W2        3439            0.0000000000
     10318      3440  TIP3      OH2            21.9831633595      -12.4422122861      -32.6461396465  W2        3440            0.0000000000
     10319      3440  TIP3      H1             22.4573333595      -11.8512222861      -33.2310496465  W2        3440            0.0000000000
     10320      3440  TIP3      H2             21.2658033595      -11.9119222861      -32.2991296465  W2        3440            0.0000000000
     10321      3441  TIP3      OH2            32.1519733595       -8.9037322861      -22.5735596465  W2        3441            0.0000000000
     10322      3441  TIP3      H1             32.4754533595       -9.5347622861      -23.2165096465  W2        3441            0.0000000000
     10323      3441  TIP3      H2             31.7119033595       -9.4385122861      -21.9128196465  W2        3441            0.0000000000
     10324      3442  TIP3      OH2            28.9292633595      -12.9761822861      -27.7894396465  W2        3442            0.0000000000
     10325      3442  TIP3      H1             28.0183733595      -12.9195022861      -27.5008396465  W2        3442            0.0000000000
     10326      3442  TIP3      H2             29.4345533595      -13.0366322861      -26.9787196465  W2        3442            0.0000000000
     10327      3443  TIP3      OH2            23.7576033595      -11.3475522861      -28.9626796465  W2        3443            0.0000000000
     10328      3443  TIP3      H1             22.8684033595      -11.2480022861      -29.3027196465  W2        3443            0.0000000000
     10329      3443  TIP3      H2             24.0540933595      -12.1892522861      -29.3088896465  W2        3443            0.0000000000
     10330      3444  TIP3      OH2            27.4107833595      -11.3472922861      -31.3062196465  W2        3444            0.0000000000
     10331      3444  TIP3      H1             28.3423333595      -11.2182922861      -31.1279096465  W2        3444            0.0000000000
     10332      3444  TIP3      H2             27.1958133595      -10.6778622861      -31.9557496465  W2        3444            0.0000000000
     10333      3445  TIP3      OH2            33.3344533595      -13.7415522861      -24.5252596465  W2        3445            0.0000000000
     10334      3445  TIP3      H1             32.6576133595      -13.6102422861      -23.8612896465  W2        3445            0.0000000000
     10335      3445  TIP3      H2             32.8489433595      -13.8966022861      -25.3354896465  W2        3445            0.0000000000
     10336      3446  TIP3      OH2            26.0848033595      -10.1530722861      -33.7396096465  W2        3446            0.0000000000
     10337      3446  TIP3      H1             25.5423133595      -10.5326922861      -34.4308496465  W2        3446            0.0000000000
     10338      3446  TIP3      H2             26.9182933595       -9.9586022861      -34.1681996465  W2        3446            0.0000000000
     10339      3447  TIP3      OH2            36.6219633595        1.9299877139      -18.2484996465  W2        3447            0.0000000000
     10340      3447  TIP3      H1             36.8218333595        2.3541777139      -19.0829696465  W2        3447            0.0000000000
     10341      3447  TIP3      H2             37.2773333595        2.2738077139      -17.6414596465  W2        3447            0.0000000000
     10342      3448  TIP3      OH2            24.2199433595       -5.5958822861      -18.6404496465  W2        3448            0.0000000000
     10343      3448  TIP3      H1             24.9521833595       -5.3412922861      -18.0789996465  W2        3448            0.0000000000
     10344      3448  TIP3      H2             23.4398133595       -5.3913422861      -18.1249096465  W2        3448            0.0000000000
     10345      3449  TIP3      OH2            30.2492333595      -10.1888822861      -25.9024796465  W2        3449            0.0000000000
     10346      3449  TIP3      H1             30.8135733595      -10.7352222861      -26.4495196465  W2        3449            0.0000000000
     10347      3449  TIP3      H2             30.1015733595      -10.7106922861      -25.1137196465  W2        3449            0.0000000000
     10348      3450  TIP3      OH2            25.2512033595      -14.0522722861      -29.4839996465  W2        3450            0.0000000000
     10349      3450  TIP3      H1             24.9341533595      -14.9547422861      -29.5194596465  W2        3450            0.0000000000
     10350      3450  TIP3      H2             26.0326133595      -14.0505322861      -30.0368396465  W2        3450            0.0000000000
     10351      3451  TIP3      OH2            28.8758233595      -11.8002722861      -23.4884396465  W2        3451            0.0000000000
     10352      3451  TIP3      H1             28.0403533595      -11.3463222861      -23.3781996465  W2        3451            0.0000000000
     10353      3451  TIP3      H2             29.3998833595      -11.5244222861      -22.7364496465  W2        3451            0.0000000000
     10354      3452  TIP3      OH2            29.4200833595       -5.5875022861      -31.8037996465  W2        3452            0.0000000000
     10355      3452  TIP3      H1             28.6751833595       -6.0949722861      -32.1260096465  W2        3452            0.0000000000
     10356      3452  TIP3      H2             29.2858033595       -5.5387022861      -30.8573196465  W2        3452            0.0000000000
     10357      3453  TIP3      OH2            36.5699733595       -6.4546822861      -23.0170396465  W2        3453            0.0000000000
     10358      3453  TIP3      H1             37.2118533595       -5.9980522861      -23.5608196465  W2        3453            0.0000000000
     10359      3453  TIP3      H2             35.7396633595       -6.3414422861      -23.4796296465  W2        3453            0.0000000000
     10360      3454  TIP3      OH2            33.3177633595      -12.7735122861      -33.6045396465  W2        3454            0.0000000000
     10361      3454  TIP3      H1             32.3791833595      -12.6619522861      -33.7556596465  W2        3454            0.0000000000
     10362      3454  TIP3      H2             33.6149733595      -11.9168222861      -33.2979696465  W2        3454            0.0000000000
     10363      3455  TIP3      OH2            30.9392933595       -5.4031722861      -20.5668896465  W2        3455            0.0000000000
     10364      3455  TIP3      H1             30.5939033595       -5.7849322861      -19.7599296465  W2        3455            0.0000000000
     10365      3455  TIP3      H2             30.7393033595       -4.4698122861      -20.4955996465  W2        3455            0.0000000000
     10366      3456  TIP3      OH2            34.0361133595      -10.9062422861      -31.9437996465  W2        3456            0.0000000000
     10367      3456  TIP3      H1             34.9280133595      -11.0437422861      -31.6246796465  W2        3456            0.0000000000
     10368      3456  TIP3      H2             34.0924733595      -10.1156322861      -32.4804496465  W2        3456            0.0000000000
     10369      3457  TIP3      OH2            24.5449133595       -6.2925022861      -26.0340096465  W2        3457            0.0000000000
     10370      3457  TIP3      H1             25.2896333595       -6.2949322861      -26.6353596465  W2        3457            0.0000000000
     10371      3457  TIP3      H2             24.6225733595       -7.1161222861      -25.5524996465  W2        3457            0.0000000000
     10372      3458  TIP3      OH2            31.5454933595       -4.1290722861      -32.7783396465  W2        3458            0.0000000000
     10373      3458  TIP3      H1             31.2503333595       -3.3022822861      -32.3968596465  W2        3458            0.0000000000
     10374      3458  TIP3      H2             30.8424933595       -4.7483822861      -32.5821996465  W2        3458            0.0000000000
     10375      3459  TIP3      OH2            21.5528833595       -7.8318122861      -20.7191596465  W2        3459            0.0000000000
     10376      3459  TIP3      H1             21.7757433595       -8.2498522861      -19.8874096465  W2        3459            0.0000000000
     10377      3459  TIP3      H2             20.9508933595       -8.4443122861      -21.1418796465  W2        3459            0.0000000000
     10378      3460  TIP3      OH2            28.5693733595       -8.3148222861      -18.5061896465  W2        3460            0.0000000000
     10379      3460  TIP3      H1             28.2734533595       -8.4805222861      -19.4012796465  W2        3460            0.0000000000
     10380      3460  TIP3      H2             29.5008933595       -8.5347922861      -18.5167996465  W2        3460            0.0000000000
     10381      3461  TIP3      OH2            33.1896533595       -2.9416222861      -20.6163896465  W2        3461            0.0000000000
     10382      3461  TIP3      H1             32.2890833595       -2.7583622861      -20.8839996465  W2        3461            0.0000000000
     10383      3461  TIP3      H2             33.2237633595       -2.6826922861      -19.6955096465  W2        3461            0.0000000000
     10384      3462  TIP3      OH2            38.9209833595      -10.6968322861      -32.2491296465  W2        3462            0.0000000000
     10385      3462  TIP3      H1             38.3666133595      -11.0930322861      -32.9213796465  W2        3462            0.0000000000
     10386      3462  TIP3      H2             39.0213433595       -9.7863122861      -32.5267996465  W2        3462            0.0000000000
     10387      3463  TIP3      OH2            38.8841833595       -4.8966622861      -19.4119796465  W2        3463            0.0000000000
     10388      3463  TIP3      H1             38.0330333595       -4.6582822861      -19.7793396465  W2        3463            0.0000000000
     10389      3463  TIP3      H2             39.4745233595       -4.9133422861      -20.1652696465  W2        3463            0.0000000000
     10390      3464  TIP3      OH2            37.2161533595       -1.9107922861      -31.7839196465  W2        3464            0.0000000000
     10391      3464  TIP3      H1             36.8432633595       -2.7364122861      -31.4748596465  W2        3464            0.0000000000
     10392      3464  TIP3      H2             37.4935033595       -2.0938522861      -32.6815796465  W2        3464            0.0000000000
     10393      3465  TIP3      OH2            34.3765433595       -7.1028422861      -24.7627296465  W2        3465            0.0000000000
     10394      3465  TIP3      H1             33.4482333595       -7.3346522861      -24.7897996465  W2        3465            0.0000000000
     10395      3465  TIP3      H2             34.8276533595       -7.8798622861      -25.0928496465  W2        3465            0.0000000000
     10396      3466  TIP3      OH2            26.9198533595       -2.7746822861      -28.6298596465  W2        3466            0.0000000000
     10397      3466  TIP3      H1             27.4470733595       -2.0012422861      -28.8299796465  W2        3466            0.0000000000
     10398      3466  TIP3      H2             26.0397033595       -2.5497622861      -28.9314596465  W2        3466            0.0000000000
     10399      3467  TIP3      OH2            22.6746233595       -7.9122722861      -34.0426196465  W2        3467            0.0000000000
     10400      3467  TIP3      H1             23.2906133595       -7.2855522861      -33.6631396465  W2        3467            0.0000000000
     10401      3467  TIP3      H2             21.8128833595       -7.5962922861      -33.7709696465  W2        3467            0.0000000000
     10402      3468  TIP3      OH2            28.3470833595       -5.1116922861      -29.0534296465  W2        3468            0.0000000000
     10403      3468  TIP3      H1             28.1060833595       -4.1862522861      -29.0118996465  W2        3468            0.0000000000
     10404      3468  TIP3      H2             27.6064433595       -5.5705622861      -28.6570396465  W2        3468            0.0000000000
     10405      3469  TIP3      OH2            28.8617433595       -0.9623322861      -22.7383196465  W2        3469            0.0000000000
     10406      3469  TIP3      H1             29.2242133595       -0.1077722861      -22.9718796465  W2        3469            0.0000000000
     10407      3469  TIP3      H2             29.3932633595       -1.2541722861      -21.9976896465  W2        3469            0.0000000000
     10408      3470  TIP3      OH2            27.0301633595       -0.0899322861      -29.5082096465  W2        3470            0.0000000000
     10409      3470  TIP3      H1             26.0802133595        0.0158077139      -29.4568796465  W2        3470            0.0000000000
     10410      3470  TIP3      H2             27.3819733595        0.7308077139      -29.1634596465  W2        3470            0.0000000000
     10411      3471  TIP3      OH2            32.4058233595       -4.8632622861      -23.0377596465  W2        3471            0.0000000000
     10412      3471  TIP3      H1             31.9799533595       -5.0910922861      -22.2113596465  W2        3471            0.0000000000
     10413      3471  TIP3      H2             32.9864033595       -5.6020822861      -23.2202296465  W2        3471            0.0000000000
     10414      3472  TIP3      OH2            34.6087133595       -3.9342122861      -33.9638596465  W2        3472            0.0000000000
     10415      3472  TIP3      H1             34.9620233595       -4.3142322861      -33.1595096465  W2        3472            0.0000000000
     10416      3472  TIP3      H2             33.6600633595       -4.0277322861      -33.8769296465  W2        3472            0.0000000000
     10417      3473  TIP3      OH2            35.0642433595       -0.3113122861      -20.5682796465  W2        3473            0.0000000000
     10418      3473  TIP3      H1             34.4625633595       -0.8670222861      -21.0636496465  W2        3473            0.0000000000
     10419      3473  TIP3      H2             35.3456133595        0.3556677139      -21.1945396465  W2        3473            0.0000000000
     10420      3474  TIP3      OH2            39.1121533595        0.5450377139      -33.7628396465  W2        3474            0.0000000000
     10421      3474  TIP3      H1             39.8559433595        1.1310877139      -33.9026796465  W2        3474            0.0000000000
     10422      3474  TIP3      H2             38.4179633595        1.1136177139      -33.4295996465  W2        3474            0.0000000000
     10423      3475  TIP3      OH2            23.1868333595      -13.0785422861      -21.1610196465  W2        3475            0.0000000000
     10424      3475  TIP3      H1             22.2940633595      -12.7400022861      -21.2286196465  W2        3475            0.0000000000
     10425      3475  TIP3      H2             23.0881133595      -13.9339322861      -20.7429396465  W2        3475            0.0000000000
     10426      3476  TIP3      OH2            35.4746433595       -5.2620122861      -31.7370696465  W2        3476            0.0000000000
     10427      3476  TIP3      H1             35.1974033595       -5.9900822861      -31.1809596465  W2        3476            0.0000000000
     10428      3476  TIP3      H2             36.4019433595       -5.1428122861      -31.5318096465  W2        3476            0.0000000000
     10429      3477  TIP3      OH2            22.8380333595       -1.2741022861      -22.7260796465  W2        3477            0.0000000000
     10430      3477  TIP3      H1             23.0550633595       -2.2058622861      -22.7571096465  W2        3477            0.0000000000
     10431      3477  TIP3      H2             23.0843833595       -0.9996022861      -21.8427996465  W2        3477            0.0000000000
     10432      3478  TIP3      OH2            28.6994933595       -2.8226022861      -35.5168596465  W2        3478            0.0000000000
     10433      3478  TIP3      H1             28.9384733595       -3.5707922861      -36.0639696465  W2        3478            0.0000000000
     10434      3478  TIP3      H2             28.4306233595       -3.2104322861      -34.6840796465  W2        3478            0.0000000000
     10435      3479  TIP3      OH2            27.6365533595       -3.2522222861      -33.0605996465  W2        3479            0.0000000000
     10436      3479  TIP3      H1             27.7833533595       -3.7722422861      -32.2705096465  W2        3479            0.0000000000
     10437      3479  TIP3      H2             27.6337233595       -2.3454622861      -32.7540096465  W2        3479            0.0000000000
     10438      3480  TIP3      OH2            24.0896633595       -5.9998922861      -32.5500596465  W2        3480            0.0000000000
     10439      3480  TIP3      H1             23.4035933595       -5.6476422861      -31.9830896465  W2        3480            0.0000000000
     10440      3480  TIP3      H2             24.6124533595       -5.2369322861      -32.7966296465  W2        3480            0.0000000000
     10441      3481  TIP3      OH2            31.9211733595      -13.3375122861      -22.2711596465  W2        3481            0.0000000000
     10442      3481  TIP3      H1             32.6199633595      -13.2636422861      -21.6211896465  W2        3481            0.0000000000
     10443      3481  TIP3      H2             31.5403133595      -14.2020122861      -22.1168696465  W2        3481            0.0000000000
     10444      3482  TIP3      OH2            32.7056633595      -13.6853422861      -31.1739296465  W2        3482            0.0000000000
     10445      3482  TIP3      H1             32.9254933595      -13.2138022861      -31.9773896465  W2        3482            0.0000000000
     10446      3482  TIP3      H2             33.2640633595      -13.2910822861      -30.5038696465  W2        3482            0.0000000000
     10447      3483  TIP3      OH2            30.3742733595       -1.5548622861      -32.3111796465  W2        3483            0.0000000000
     10448      3483  TIP3      H1             29.5578833595       -1.0578922861      -32.2587496465  W2        3483            0.0000000000
     10449      3483  TIP3      H2             30.9039033595       -1.0795122861      -32.9512996465  W2        3483            0.0000000000
     10450      3484  TIP3      OH2            29.9056533595      -11.9574622861      -30.3390896465  W2        3484            0.0000000000
     10451      3484  TIP3      H1             30.7179133595      -11.4531422861      -30.2929196465  W2        3484            0.0000000000
     10452      3484  TIP3      H2             29.6609533595      -12.1024922861      -29.4251296465  W2        3484            0.0000000000
     10453      3485  TIP3      OH2            30.4412933595      -10.9711922861      -21.1544296465  W2        3485            0.0000000000
     10454      3485  TIP3      H1             30.5603233595      -10.3976522861      -20.3973896465  W2        3485            0.0000000000
     10455      3485  TIP3      H2             31.0967533595      -11.6592522861      -21.0396496465  W2        3485            0.0000000000
     10456      3486  TIP3      OH2            30.7893233595      -14.8761622861      -29.4009796465  W2        3486            0.0000000000
     10457      3486  TIP3      H1             30.4426733595      -14.2591022861      -28.7565496465  W2        3486            0.0000000000
     10458      3486  TIP3      H2             31.4480133595      -14.3755922861      -29.8824296465  W2        3486            0.0000000000
     10459      3487  TIP3      OH2            27.7125833595       -0.5111422861      -32.3294896465  W2        3487            0.0000000000
     10460      3487  TIP3      H1             27.8734533595        0.2886077139      -32.8302296465  W2        3487            0.0000000000
     10461      3487  TIP3      H2             27.5153633595       -0.2045422861      -31.4444296465  W2        3487            0.0000000000
     10462      3488  TIP3      OH2            26.4470233595      -13.8132222861      -32.7137296465  W2        3488            0.0000000000
     10463      3488  TIP3      H1             26.3635033595      -12.9249122861      -32.3670896465  W2        3488            0.0000000000
     10464      3488  TIP3      H2             27.3370533595      -14.0785522861      -32.4820496465  W2        3488            0.0000000000
     10465      3489  TIP3      OH2            36.6458733595      -13.0641622861      -20.3194596465  W2        3489            0.0000000000
     10466      3489  TIP3      H1             35.7294533595      -12.8019922861      -20.4070896465  W2        3489            0.0000000000
     10467      3489  TIP3      H2             36.9813733595      -13.0672622861      -21.2159296465  W2        3489            0.0000000000
     10468      3490  TIP3      OH2            35.2479733595       -9.3140622861      -26.2237296465  W2        3490            0.0000000000
     10469      3490  TIP3      H1             34.4504133595       -9.7290422861      -26.5522296465  W2        3490            0.0000000000
     10470      3490  TIP3      H2             35.6930833595      -10.0046922861      -25.7326796465  W2        3490            0.0000000000
     10471      3491  TIP3      OH2            24.7055533595       -3.3860022861      -33.6532796465  W2        3491            0.0000000000
     10472      3491  TIP3      H1             25.2977033595       -2.6865222861      -33.3770396465  W2        3491            0.0000000000
     10473      3491  TIP3      H2             25.1648533595       -3.8190522861      -34.3728196465  W2        3491            0.0000000000
     10474      3492  TIP3      OH2            23.0214733595      -10.7217022861      -34.5373396465  W2        3492            0.0000000000
     10475      3492  TIP3      H1             22.9767333595       -9.7823922861      -34.3586396465  W2        3492            0.0000000000
     10476      3492  TIP3      H2             22.1337933595      -10.9572122861      -34.8071296465  W2        3492            0.0000000000
     10477      3493  TIP3      OH2            36.3344333595       -0.0578122861      -24.6013796465  W2        3493            0.0000000000
     10478      3493  TIP3      H1             36.1788633595        0.6206277139      -25.2584496465  W2        3493            0.0000000000
     10479      3493  TIP3      H2             37.2670733595        0.0141177139      -24.3983196465  W2        3493            0.0000000000
     10480      3494  TIP3      OH2            23.8296733595      -15.9400422861      -25.8642396465  W2        3494            0.0000000000
     10481      3494  TIP3      H1             23.6006533595      -15.8807922861      -26.7917396465  W2        3494            0.0000000000
     10482      3494  TIP3      H2             23.3870133595      -16.7314922861      -25.5578296465  W2        3494            0.0000000000
     10483      3495  TIP3      OH2            22.7600033595       -1.9993322861      -29.7036596465  W2        3495            0.0000000000
     10484      3495  TIP3      H1             21.9278633595       -1.5270622861      -29.6765196465  W2        3495            0.0000000000
     10485      3495  TIP3      H2             23.3058333595       -1.4895722861      -30.3023496465  W2        3495            0.0000000000
     10486      3496  TIP3      OH2            22.0483733595        0.6130377139      -18.3738596465  W2        3496            0.0000000000
     10487      3496  TIP3      H1             22.5885933595        0.3964377139      -17.6139396465  W2        3496            0.0000000000
     10488      3496  TIP3      H2             21.5671733595       -0.1923622861      -18.5636096465  W2        3496            0.0000000000
     10489      3497  TIP3      OH2            26.6457133595       -0.4675222861      -16.7534396465  W2        3497            0.0000000000
     10490      3497  TIP3      H1             27.4134333595       -0.9264422861      -16.4125196465  W2        3497            0.0000000000
     10491      3497  TIP3      H2             26.6243333595       -0.6935422861      -17.6833196465  W2        3497            0.0000000000
     10492      3498  TIP3      OH2            30.7376733595       -0.9594622861      -35.3782596465  W2        3498            0.0000000000
     10493      3498  TIP3      H1             30.0937733595       -1.5906022861      -35.0568896465  W2        3498            0.0000000000
     10494      3498  TIP3      H2             31.4995033595       -1.4906622861      -35.6099096465  W2        3498            0.0000000000
     10495      3499  TIP3      OH2            33.2225833595       -2.0874122861      -18.0242896465  W2        3499            0.0000000000
     10496      3499  TIP3      H1             32.8715333595       -2.9441122861      -17.7812496465  W2        3499            0.0000000000
     10497      3499  TIP3      H2             33.9489033595       -1.9447422861      -17.4173896465  W2        3499            0.0000000000
     10498      3500  TIP3      OH2            35.3419633595       -1.1424722861      -35.1444596465  W2        3500            0.0000000000
     10499      3500  TIP3      H1             35.6250033595       -1.9369522861      -34.6917696465  W2        3500            0.0000000000
     10500      3500  TIP3      H2             36.0817533595       -0.9093722861      -35.7053496465  W2        3500            0.0000000000
     10501      3501  TIP3      OH2            21.9553233595       -5.5765522861      -17.4194296465  W2        3501            0.0000000000
     10502      3501  TIP3      H1             22.0993733595       -6.4784822861      -17.7057596465  W2        3501            0.0000000000
     10503      3501  TIP3      H2             21.1830633595       -5.2903422861      -17.9071996465  W2        3501            0.0000000000
     10504      3502  TIP3      OH2            26.2966933595       -5.2329822861      -35.2869696465  W2        3502            0.0000000000
     10505      3502  TIP3      H1             26.3611033595       -6.0270222861      -34.7563296465  W2        3502            0.0000000000
     10506      3502  TIP3      H2             26.9496133595       -5.3517022861      -35.9767696465  W2        3502            0.0000000000
     10507      3503  TIP3      OH2            28.6109333595       -5.6067422861      -17.9867896465  W2        3503            0.0000000000
     10508      3503  TIP3      H1             28.2823133595       -5.3359322861      -18.8440496465  W2        3503            0.0000000000
     10509      3503  TIP3      H2             28.7627533595       -6.5477622861      -18.0742896465  W2        3503            0.0000000000
     10510      3504  TIP3      OH2            31.6490333595       -4.1858122861      -35.5511696465  W2        3504            0.0000000000
     10511      3504  TIP3      H1             31.3804433595       -4.0056022861      -34.6502796465  W2        3504            0.0000000000
     10512      3504  TIP3      H2             31.4425933595       -5.1111922861      -35.6825896465  W2        3504            0.0000000000
     10513      3505  TIP3      OH2            34.3454533595       -5.6910122861      -20.6035596465  W2        3505            0.0000000000
     10514      3505  TIP3      H1             35.0909333595       -5.1026422861      -20.7231596465  W2        3505            0.0000000000
     10515      3505  TIP3      H2             33.5881333595       -5.1090422861      -20.5402496465  W2        3505            0.0000000000
     10516      3506  TIP3      OH2            22.7879733595       -8.3762222861      -17.9994996465  W2        3506            0.0000000000
     10517      3506  TIP3      H1             23.1960933595       -9.2335622861      -18.1204396465  W2        3506            0.0000000000
     10518      3506  TIP3      H2             22.5277333595       -8.3620922861      -17.0784696465  W2        3506            0.0000000000
     10519      3507  TIP3      OH2            27.4460733595       -7.2603622861      -32.9811696465  W2        3507            0.0000000000
     10520      3507  TIP3      H1             26.9862733595       -7.7445322861      -32.2953196465  W2        3507            0.0000000000
     10521      3507  TIP3      H2             27.7009433595       -7.9288222861      -33.6171196465  W2        3507            0.0000000000
     10522      3508  TIP3      OH2            26.7350033595       -9.3676522861      -20.6252096465  W2        3508            0.0000000000
     10523      3508  TIP3      H1             26.1166133595       -8.6929922861      -20.3447396465  W2        3508            0.0000000000
     10524      3508  TIP3      H2             27.0791233595       -9.0462622861      -21.4585896465  W2        3508            0.0000000000
     10525      3509  TIP3      OH2            28.5171133595       -9.0171822861      -34.7188496465  W2        3509            0.0000000000
     10526      3509  TIP3      H1             28.3366133595       -9.1720622861      -35.6460196465  W2        3509            0.0000000000
     10527      3509  TIP3      H2             29.4671633595       -8.9093122861      -34.6740596465  W2        3509            0.0000000000
     10528      3510  TIP3      OH2            31.7548233595       -6.8961222861      -17.3477296465  W2        3510            0.0000000000
     10529      3510  TIP3      H1             32.7079433595       -6.8122122861      -17.3751296465  W2        3510            0.0000000000
     10530      3510  TIP3      H2             31.5942833595       -7.6079422861      -16.7282396465  W2        3510            0.0000000000
     10531      3511  TIP3      OH2            37.9069433595       -6.6627622861      -35.2730396465  W2        3511            0.0000000000
     10532      3511  TIP3      H1             37.6334233595       -7.0872122861      -36.0862096465  W2        3511            0.0000000000
     10533      3511  TIP3      H2             37.9463533595       -5.7313122861      -35.4899996465  W2        3511            0.0000000000
     10534      3512  TIP3      OH2            27.0743733595      -12.0125722861      -19.5428996465  W2        3512            0.0000000000
     10535      3512  TIP3      H1             27.2244633595      -12.7414422861      -20.1449296465  W2        3512            0.0000000000
     10536      3512  TIP3      H2             27.0766133595      -11.2354022861      -20.1016796465  W2        3512            0.0000000000
     10537      3513  TIP3      OH2            27.4869433595      -13.6429922861      -22.0501596465  W2        3513            0.0000000000
     10538      3513  TIP3      H1             28.0226933595      -13.1913222861      -22.7022296465  W2        3513            0.0000000000
     10539      3513  TIP3      H2             26.6349033595      -13.7510122861      -22.4727496465  W2        3513            0.0000000000
     10540      3514  TIP3      OH2            29.0687833595       -8.2033722861      -21.8106396465  W2        3514            0.0000000000
     10541      3514  TIP3      H1             29.8192633595       -8.3596222861      -22.3838596465  W2        3514            0.0000000000
     10542      3514  TIP3      H2             28.7296133595       -7.3517122861      -22.0860896465  W2        3514            0.0000000000
     10543      3515  TIP3      OH2            33.4844033595      -10.3881922861      -16.7821096465  W2        3515            0.0000000000
     10544      3515  TIP3      H1             33.6765333595      -11.3192522861      -16.8936596465  W2        3515            0.0000000000
     10545      3515  TIP3      H2             34.3420333595       -9.9632422861      -16.7925696465  W2        3515            0.0000000000
     10546      3516  TIP3      OH2            34.8011233595       -7.5996722861      -18.7048396465  W2        3516            0.0000000000
     10547      3516  TIP3      H1             34.5196233595       -6.8902122861      -19.2824596465  W2        3516            0.0000000000
     10548      3516  TIP3      H2             35.7435533595       -7.6723722861      -18.8557196465  W2        3516            0.0000000000
     10549      3517  TIP3      OH2            25.5530033595      -10.8142222861      -17.6313396465  W2        3517            0.0000000000
     10550      3517  TIP3      H1             24.7859033595      -11.3467422861      -17.8415796465  W2        3517            0.0000000000
     10551      3517  TIP3      H2             26.2319033595      -11.1241822861      -18.2307096465  W2        3517            0.0000000000
     10552      3518  TIP3      OH2            28.2924933595      -16.1864222861      -21.6187996465  W2        3518            0.0000000000
     10553      3518  TIP3      H1             28.1944533595      -15.2401022861      -21.7241796465  W2        3518            0.0000000000
     10554      3518  TIP3      H2             27.5501133595      -16.5590422861      -22.0944496465  W2        3518            0.0000000000
     10555      3519  TIP3      OH2            29.5565433595      -11.8648822861      -18.0549596465  W2        3519            0.0000000000
     10556      3519  TIP3      H1             29.3210833595      -12.0842122861      -17.1534696465  W2        3519            0.0000000000
     10557      3519  TIP3      H2             28.7732333595      -12.0717622861      -18.5647096465  W2        3519            0.0000000000
     10558      3520  TIP3      OH2            32.2722033595      -12.7375322861      -18.9796096465  W2        3520            0.0000000000
     10559      3520  TIP3      H1             31.3247433595      -12.7055622861      -18.8472796465  W2        3520            0.0000000000
     10560      3520  TIP3      H2             32.5848733595      -13.3628222861      -18.3257896465  W2        3520            0.0000000000
     10561      3521  TIP3      OH2            33.9063533595      -14.1034222861      -16.9744196465  W2        3521            0.0000000000
     10562      3521  TIP3      H1             33.8095333595      -15.0556922861      -16.9802296465  W2        3521            0.0000000000
     10563      3521  TIP3      H2             33.5846633595      -13.8347422861      -16.1138696465  W2        3521            0.0000000000
     10564      3522  TIP3      OH2            23.7332833595      -12.8938422861      -17.9268696465  W2        3522            0.0000000000
     10565      3522  TIP3      H1             23.9450233595      -13.6002322861      -18.5371196465  W2        3522            0.0000000000
     10566      3522  TIP3      H2             23.6220333595      -13.3312422861      -17.0827496465  W2        3522            0.0000000000
     10567      3523  TIP3      OH2            28.5143033595      -16.8926822861      -18.9475196465  W2        3523            0.0000000000
     10568      3523  TIP3      H1             29.2261433595      -17.5324622861      -18.9616096465  W2        3523            0.0000000000
     10569      3523  TIP3      H2             28.4133433595      -16.6258522861      -19.8612096465  W2        3523            0.0000000000
     10570      3524  TIP3      OH2            28.8680533595      -15.2098422861      -16.8938896465  W2        3524            0.0000000000
     10571      3524  TIP3      H1             28.7362733595      -15.6854622861      -17.7140396465  W2        3524            0.0000000000
     10572      3524  TIP3      H2             28.2687933595      -14.4654822861      -16.9491796465  W2        3524            0.0000000000
     10573      3525  TIP3      OH2            28.4142833595        1.6731877139      -33.7174896465  W2        3525            0.0000000000
     10574      3525  TIP3      H1             29.3473533595        1.8310577139      -33.5736496465  W2        3525            0.0000000000
     10575      3525  TIP3      H2             28.1501633595        2.3484877139      -34.3423396465  W2        3525            0.0000000000
     10576      3526  TIP3      OH2            21.9827733595       -3.6904322861      -34.2346796465  W2        3526            0.0000000000
     10577      3526  TIP3      H1             22.8966933595       -3.6115422861      -33.9612896465  W2        3526            0.0000000000
     10578      3526  TIP3      H2             21.9900833595       -4.3774722861      -34.9011196465  W2        3526            0.0000000000
     10579      3527  TIP3      OH2            20.6318333595        1.7024177139      -29.1572896465  W2        3527            0.0000000000
     10580      3527  TIP3      H1             19.9845433595        1.2405877139      -29.6901696465  W2        3527            0.0000000000
     10581      3527  TIP3      H2             20.9862933595        1.0307477139      -28.5746696465  W2        3527            0.0000000000
     10582      3528  TIP3      OH2            21.5017533595       -0.2168822861      -27.3526696465  W2        3528            0.0000000000
     10583      3528  TIP3      H1             21.1674333595       -1.0971522861      -27.1806496465  W2        3528            0.0000000000
     10584      3528  TIP3      H2             21.7239933595        0.1286177139      -26.4881096465  W2        3528            0.0000000000
     10585      3529  TIP3      OH2            39.0502333595        0.5927577139      -24.3721896465  W2        3529            0.0000000000
     10586      3529  TIP3      H1             39.0289033595        0.7775977139      -23.4332496465  W2        3529            0.0000000000
     10587      3529  TIP3      H2             39.7408533595        1.1611577139      -24.7130496465  W2        3529            0.0000000000
     10588      3530  TIP3      OH2            38.6135233595        0.1598677139      -21.4502796465  W2        3530            0.0000000000
     10589      3530  TIP3      H1             38.1263933595       -0.5757222861      -21.8215396465  W2        3530            0.0000000000
     10590      3530  TIP3      H2             39.1627933595       -0.2337422861      -20.7723396465  W2        3530            0.0000000000
     10591      3531  TIP3      OH2            37.0642533595       -4.0503222861      -16.8122496465  W2        3531            0.0000000000
     10592      3531  TIP3      H1             36.1983633595       -4.1553522861      -16.4180196465  W2        3531            0.0000000000
     10593      3531  TIP3      H2             37.4408433595       -3.2919922861      -16.3657796465  W2        3531            0.0000000000
     10594      3532  TIP3      OH2            38.3652233595       -5.7939522861      -31.2979996465  W2        3532            0.0000000000
     10595      3532  TIP3      H1             39.2153633595       -5.3728622861      -31.1708396465  W2        3532            0.0000000000
     10596      3532  TIP3      H2             38.3707333595       -6.5339422861      -30.6908596465  W2        3532            0.0000000000
     10597      3533  TIP3      OH2            38.7597833595       -7.7402122861      -29.4744296465  W2        3533            0.0000000000
     10598      3533  TIP3      H1             38.0332433595       -8.2199522861      -29.0766696465  W2        3533            0.0000000000
     10599      3533  TIP3      H2             39.3411133595       -7.5347422861      -28.7422696465  W2        3533            0.0000000000
     10600      3534  TIP3      OH2            38.5189033595       -4.9554622861      -24.5266696465  W2        3534            0.0000000000
     10601      3534  TIP3      H1             39.3523233595       -5.3334622861      -24.8073096465  W2        3534            0.0000000000
     10602      3534  TIP3      H2             38.6309333595       -4.0123422861      -24.6457596465  W2        3534            0.0000000000
     10603      3535  TIP3      OH2            37.0051333595       -2.0777122861      -22.2198296465  W2        3535            0.0000000000
     10604      3535  TIP3      H1             36.3576633595       -1.7525622861      -21.5943096465  W2        3535            0.0000000000
     10605      3535  TIP3      H2             36.4875333595       -2.5179422861      -22.8939996465  W2        3535            0.0000000000
     10606      3536  TIP3      OH2            39.0280933595       -7.8393622861      -33.0832996465  W2        3536            0.0000000000
     10607      3536  TIP3      H1             38.5062033595       -7.4829522861      -33.8022096465  W2        3536            0.0000000000
     10608      3536  TIP3      H2             38.9950133595       -7.1645822861      -32.4052096465  W2        3536            0.0000000000
     10609      3537  TIP3      OH2            37.3769933595      -10.5998022861      -34.5325896465  W2        3537            0.0000000000
     10610      3537  TIP3      H1             37.4734333595       -9.9331022861      -35.2126196465  W2        3537            0.0000000000
     10611      3537  TIP3      H2             37.2369533595      -11.4151722861      -35.0140396465  W2        3537            0.0000000000
     10612      3538  TIP3      OH2            36.5464633595       -9.2195622861      -28.9115596465  W2        3538            0.0000000000
     10613      3538  TIP3      H1             36.3963433595      -10.1647022861      -28.9317796465  W2        3538            0.0000000000
     10614      3538  TIP3      H2             36.1929133595       -8.9384222861      -28.0676496465  W2        3538            0.0000000000
     10615      3539  TIP3      OH2            21.5817033595       -7.1413422861      -24.9011796465  W2        3539            0.0000000000
     10616      3539  TIP3      H1             21.7659933595       -7.2231722861      -25.8368896465  W2        3539            0.0000000000
     10617      3539  TIP3      H2             22.4309933595       -7.2656422861      -24.4775396465  W2        3539            0.0000000000
     10618      3540  TIP3      OH2            37.4027533595       -7.2492322861      -19.2727296465  W2        3540            0.0000000000
     10619      3540  TIP3      H1             37.9854833595       -7.9840022861      -19.0810096465  W2        3540            0.0000000000
     10620      3540  TIP3      H2             37.9666833595       -6.4772022861      -19.2261496465  W2        3540            0.0000000000
     10621      3541  TIP3      OH2            38.8994633595       -9.3466522861      -18.5881896465  W2        3541            0.0000000000
     10622      3541  TIP3      H1             38.0361333595       -9.7254422861      -18.7537196465  W2        3541            0.0000000000
     10623      3541  TIP3      H2             39.5038333595      -10.0851722861      -18.6626096465  W2        3541            0.0000000000
     10624      3542  TIP3      OH2            36.6243733595      -13.1918222861      -35.4150396465  W2        3542            0.0000000000
     10625      3542  TIP3      H1             37.2349533595      -13.5631422861      -34.7782196465  W2        3542            0.0000000000
     10626      3542  TIP3      H2             35.7875233595      -13.6131322861      -35.2190396465  W2        3542            0.0000000000
     10627      3543  TIP3      OH2            36.2569433595      -11.6369822861      -30.4490496465  W2        3543            0.0000000000
     10628      3543  TIP3      H1             36.5366533595      -12.5439422861      -30.3248796465  W2        3543            0.0000000000
     10629      3543  TIP3      H2             37.0161133595      -11.2028322861      -30.8381296465  W2        3543            0.0000000000
     10630      3544  TIP3      OH2            36.8687733595      -11.0552422861      -25.0131596465  W2        3544            0.0000000000
     10631      3544  TIP3      H1             37.8015733595      -10.8432522861      -25.0475596465  W2        3544            0.0000000000
     10632      3544  TIP3      H2             36.6335233595      -10.9540322861      -24.0908596465  W2        3544            0.0000000000
     10633      3545  TIP3      OH2            36.8979633595      -10.3187122861      -22.2372196465  W2        3545            0.0000000000
     10634      3545  TIP3      H1             36.0550933595      -10.0506722861      -21.8712396465  W2        3545            0.0000000000
     10635      3545  TIP3      H2             37.3403933595       -9.4965222861      -22.4481096465  W2        3545            0.0000000000
     10636      3546  TIP3      OH2            21.1791833595      -11.8708422861      -18.7602996465  W2        3546            0.0000000000
     10637      3546  TIP3      H1             22.0986733595      -11.9930122861      -18.5239896465  W2        3546            0.0000000000
     10638      3546  TIP3      H2             20.7296333595      -12.6208722861      -18.3709496465  W2        3546            0.0000000000
     10639      3547  TIP3      OH2            39.1811233595      -16.3386922861      -16.8837196465  W2        3547            0.0000000000
     10640      3547  TIP3      H1             39.5308233595      -16.9923422861      -17.4892496465  W2        3547            0.0000000000
     10641      3547  TIP3      H2             39.3280733595      -15.5012822861      -17.3234596465  W2        3547            0.0000000000
     10642      3548  TIP3      OH2            36.8704233595      -14.3740522861      -30.4008496465  W2        3548            0.0000000000
     10643      3548  TIP3      H1             37.0529233595      -14.8229022861      -29.5753496465  W2        3548            0.0000000000
     10644      3548  TIP3      H2             36.2707133595      -14.9586122861      -30.8643896465  W2        3548            0.0000000000
     10645      3549  TIP3      OH2            22.4004333595      -13.5586822861      -25.8690096465  W2        3549            0.0000000000
     10646      3549  TIP3      H1             22.8455933595      -14.3504322861      -25.5670396465  W2        3549            0.0000000000
     10647      3549  TIP3      H2             22.8667333595      -12.8421622861      -25.4384496465  W2        3549            0.0000000000
     10648      3550  TIP3      OH2            20.7044633595      -10.5593822861      -24.7999896465  W2        3550            0.0000000000
     10649      3550  TIP3      H1             21.1964433595      -10.7803322861      -25.5907896465  W2        3550            0.0000000000
     10650      3550  TIP3      H2             21.0665533595       -9.7190422861      -24.5190396465  W2        3550            0.0000000000
     10651      3551  TIP3      OH2            38.7008433595      -14.2292322861      -18.5345896465  W2        3551            0.0000000000
     10652      3551  TIP3      H1             37.7834133595      -13.9585222861      -18.5702396465  W2        3551            0.0000000000
     10653      3551  TIP3      H2             38.8237833595      -14.7643922861      -19.3186196465  W2        3551            0.0000000000
     10654      3552  TIP3      OH2            38.7370433595      -14.3062422861      -33.8728196465  W2        3552            0.0000000000
     10655      3552  TIP3      H1             39.1493033595      -15.0276722861      -34.3480196465  W2        3552            0.0000000000
     10656      3552  TIP3      H2             39.4186933595      -13.6367822861      -33.8143896465  W2        3552            0.0000000000
     10657      3553  TIP3      OH2            21.0181133595      -14.3014722861      -30.7457496465  W2        3553            0.0000000000
     10658      3553  TIP3      H1             20.0929533595      -14.0928122861      -30.8751996465  W2        3553            0.0000000000
     10659      3553  TIP3      H2             21.4721033595      -13.8173922861      -31.4355196465  W2        3553            0.0000000000
     10660      3554  TIP3      OH2            35.7888333595        0.6826977139      -28.8000096465  W2        3554            0.0000000000
     10661      3554  TIP3      H1             36.4411233595        0.3349077139      -29.4080996465  W2        3554            0.0000000000
     10662      3554  TIP3      H2             36.2992133595        1.1710177139      -28.1540396465  W2        3554            0.0000000000
     10663      3555  TIP3      OH2            20.9816533595      -15.5635722861      -22.4014996465  W2        3555            0.0000000000
     10664      3555  TIP3      H1             20.3167033595      -15.8095422861      -21.7584096465  W2        3555            0.0000000000
     10665      3555  TIP3      H2             20.5387833595      -14.9415322861      -22.9786996465  W2        3555            0.0000000000
     10666      3556  TIP3      OH2            23.1735833595       -2.3881622861      -18.2569196465  W2        3556            0.0000000000
     10667      3556  TIP3      H1             22.3528333595       -2.2135122861      -18.7174496465  W2        3556            0.0000000000
     10668      3556  TIP3      H2             22.9213633595       -2.4616922861      -17.3364796465  W2        3556            0.0000000000
     10669      3557  TIP3      OH2            26.1278733595       -1.4140422861      -21.9985196465  W2        3557            0.0000000000
     10670      3557  TIP3      H1             25.7029833595       -0.6041922861      -22.2810596465  W2        3557            0.0000000000
     10671      3557  TIP3      H2             27.0321533595       -1.3286322861      -22.3005396465  W2        3557            0.0000000000
     10672      3558  TIP3      OH2            30.4390133595       -0.0150422861      -19.0391496465  W2        3558            0.0000000000
     10673      3558  TIP3      H1             30.6237633595       -0.3484322861      -18.1611196465  W2        3558            0.0000000000
     10674      3558  TIP3      H2             31.2854633595        0.2948177139      -19.3612296465  W2        3558            0.0000000000
     10675      3559  TIP3      OH2            32.7840533595        1.2708477139      -19.7950096465  W2        3559            0.0000000000
     10676      3559  TIP3      H1             33.4609433595        0.6380777139      -20.0350896465  W2        3559            0.0000000000
     10677      3559  TIP3      H2             33.1059333595        1.6718977139      -18.9876796465  W2        3559            0.0000000000
     10678      3560  TIP3      OH2            37.7014333595      -16.1396022861      -20.7155096465  W2        3560            0.0000000000
     10679      3560  TIP3      H1             36.8887833595      -15.8145722861      -21.1030396465  W2        3560            0.0000000000
     10680      3560  TIP3      H2             37.9342833595      -16.8997522861      -21.2485996465  W2        3560            0.0000000000
     10681      3561  TIP3      OH2            23.5295433595        1.8423477139      -21.9509896465  W2        3561            0.0000000000
     10682      3561  TIP3      H1             22.8091833595        2.2824477139      -22.4022196465  W2        3561            0.0000000000
     10683      3561  TIP3      H2             23.1639433595        1.5918177139      -21.1025896465  W2        3561            0.0000000000
     10684      3562  TIP3      OH2            25.9968033595        1.4427377139      -22.9212696465  W2        3562            0.0000000000
     10685      3562  TIP3      H1             25.1320233595        1.5145877139      -22.5172596465  W2        3562            0.0000000000
     10686      3562  TIP3      H2             25.9417033595        1.9894677139      -23.7050196465  W2        3562            0.0000000000
     10687      3563  TIP3      OH2            30.7073633595        1.3306277139      -23.7456696465  W2        3563            0.0000000000
     10688      3563  TIP3      H1             30.2507633595        1.8595977139      -24.3998296465  W2        3563            0.0000000000
     10689      3563  TIP3      H2             30.8701633595        1.9337677139      -23.0204396465  W2        3563            0.0000000000
     10690      3564  TIP3      OH2            33.0349933595        0.2085877139      -22.8006396465  W2        3564            0.0000000000
     10691      3564  TIP3      H1             32.1303633595        0.3736077139      -23.0664296465  W2        3564            0.0000000000
     10692      3564  TIP3      H2             33.4638533595        1.0618077139      -22.8662996465  W2        3564            0.0000000000
     10693      3565  TIP3      OH2            35.6391833595        1.7784977139      -22.5058596465  W2        3565            0.0000000000
     10694      3565  TIP3      H1             35.4573833595        2.6943877139      -22.7163696465  W2        3565            0.0000000000
     10695      3565  TIP3      H2             35.8159633595        1.3682077139      -23.3523996465  W2        3565            0.0000000000
     10696      3566  TIP3      OH2            22.9443533595        0.4655977139      -25.0408096465  W2        3566            0.0000000000
     10697      3566  TIP3      H1             22.9259533595        0.0401077139      -24.1835796465  W2        3566            0.0000000000
     10698      3566  TIP3      H2             23.7491433595        0.1470977139      -25.4495896465  W2        3566            0.0000000000
     10699      3567  TIP3      OH2            25.0856633595       -0.8245322861      -26.3858196465  W2        3567            0.0000000000
     10700      3567  TIP3      H1             24.8667333595       -1.7407922861      -26.2162196465  W2        3567            0.0000000000
     10701      3567  TIP3      H2             25.9098833595       -0.6844922861      -25.9196796465  W2        3567            0.0000000000
     10702      3568  TIP3      OH2            27.6229133595       -0.3546022861      -25.5370196465  W2        3568            0.0000000000
     10703      3568  TIP3      H1             27.8354833595       -1.2427022861      -25.8239296465  W2        3568            0.0000000000
     10704      3568  TIP3      H2             27.6874233595       -0.3888322861      -24.5826196465  W2        3568            0.0000000000
     10705      3569  TIP3      OH2            31.1312833595      -14.6905422861      -26.3926896465  W2        3569            0.0000000000
     10706      3569  TIP3      H1             30.4569633595      -15.3199822861      -26.1371096465  W2        3569            0.0000000000
     10707      3569  TIP3      H2             31.6952033595      -15.1746522861      -26.9958996465  W2        3569            0.0000000000
     10708      3570  TIP3      OH2            36.2740033595      -16.5831422861      -26.2799796465  W2        3570            0.0000000000
     10709      3570  TIP3      H1             36.8777633595      -16.0356022861      -26.7818796465  W2        3570            0.0000000000
     10710      3570  TIP3      H2             35.4042033595      -16.2641022861      -26.5205696465  W2        3570            0.0000000000
     10711      3571  TIP3      OH2            38.0010433595      -15.4442722861      -27.9468896465  W2        3571            0.0000000000
     10712      3571  TIP3      H1             38.6127933595      -15.9587022861      -28.4735296465  W2        3571            0.0000000000
     10713      3571  TIP3      H2             38.3833833595      -14.5670622861      -27.9234496465  W2        3571            0.0000000000
     10714      3572  TIP3      OH2            23.4580333595      -16.0565122861      -28.5706996465  W2        3572            0.0000000000
     10715      3572  TIP3      H1             22.6810133595      -16.2910222861      -29.0781096465  W2        3572            0.0000000000
     10716      3572  TIP3      H2             23.9883933595      -16.8533022861      -28.5618996465  W2        3572            0.0000000000
     10717      3573  TIP3      OH2            22.2943733595      -16.2587022861      -32.7670896465  W2        3573            0.0000000000
     10718      3573  TIP3      H1             22.7334433595      -15.6476522861      -33.3587396465  W2        3573            0.0000000000
     10719      3573  TIP3      H2             21.6606133595      -15.7202922861      -32.2930896465  W2        3573            0.0000000000
     10720      3574  TIP3      OH2            28.0372933595      -16.1298022861      -28.7573896465  W2        3574            0.0000000000
     10721      3574  TIP3      H1             28.9116333595      -15.7413722861      -28.7869596465  W2        3574            0.0000000000
     10722      3574  TIP3      H2             27.9013733595      -16.3450222861      -27.8346696465  W2        3574            0.0000000000
     10723      3575  TIP3      OH2            33.5941333595      -16.0998222861      -27.1082196465  W2        3575            0.0000000000
     10724      3575  TIP3      H1             33.6702933595      -16.0046622861      -28.0576196465  W2        3575            0.0000000000
     10725      3575  TIP3      H2             33.3190533595      -17.0075322861      -26.9793096465  W2        3575            0.0000000000
     10726      3576  TIP3      OH2            34.9473933595      -16.0740422861      -31.4157196465  W2        3576            0.0000000000
     10727      3576  TIP3      H1             34.2445033595      -15.4591222861      -31.6255796465  W2        3576            0.0000000000
     10728      3576  TIP3      H2             34.5025333595      -16.9113722861      -31.2846296465  W2        3576            0.0000000000
     10729      3577  TIP3      OH2            22.1953233595       -0.3104822861      -31.8695796465  W2        3577            0.0000000000
     10730      3577  TIP3      H1             21.5103133595       -0.3485922861      -32.5370696465  W2        3577            0.0000000000
     10731      3577  TIP3      H2             22.1990433595        0.6022777139      -31.5813696465  W2        3577            0.0000000000
     10732      3578  TIP3      OH2            24.1552833595      -14.3425522861      -34.3246796465  W2        3578            0.0000000000
     10733      3578  TIP3      H1             24.6466233595      -14.9723122861      -34.8521296465  W2        3578            0.0000000000
     10734      3578  TIP3      H2             24.7789133595      -14.0466122861      -33.6615596465  W2        3578            0.0000000000
     10735      3579  TIP3      OH2            29.1812933595      -14.0494022861      -31.8676296465  W2        3579            0.0000000000
     10736      3579  TIP3      H1             29.3594233595      -14.6960822861      -31.1847696465  W2        3579            0.0000000000
     10737      3579  TIP3      H2             29.1279133595      -13.2156322861      -31.4005196465  W2        3579            0.0000000000
     10738      3580  TIP3      OH2            31.0596733595        0.8990077139      -33.4719596465  W2        3580            0.0000000000
     10739      3580  TIP3      H1             31.9256933595        1.2657477139      -33.6501396465  W2        3580            0.0000000000
     10740      3580  TIP3      H2             30.8129533595        0.4598077139      -34.2858796465  W2        3580            0.0000000000
     10741      3581  TIP3      OH2            37.7686333595        0.4620377139      -30.7928496465  W2        3581            0.0000000000
     10742      3581  TIP3      H1             37.5743433595       -0.2857522861      -31.3578896465  W2        3581            0.0000000000
     10743      3581  TIP3      H2             37.7296433595        1.2200477139      -31.3760596465  W2        3581            0.0000000000
     10744      3582  TIP3      OH2            23.4158333595      -15.5423222861      -19.0530796465  W2        3582            0.0000000000
     10745      3582  TIP3      H1             23.0496533595      -16.3080622861      -18.6106096465  W2        3582            0.0000000000
     10746      3582  TIP3      H2             24.3286833595      -15.5133022861      -18.7665696465  W2        3582            0.0000000000
     10747      3583  TIP3      OH2            25.3889133595      -16.1918822861      -17.5173696465  W2        3583            0.0000000000
     10748      3583  TIP3      H1             26.2872733595      -16.4658622861      -17.7020296465  W2        3583            0.0000000000
     10749      3583  TIP3      H2             25.0022233595      -16.9342822861      -17.0531096465  W2        3583            0.0000000000
     10750      3584  TIP3      OH2            24.0134433595        0.6095977139      -34.8443696465  W2        3584            0.0000000000
     10751      3584  TIP3      H1             23.7459033595        0.8958877139      -33.9710596465  W2        3584            0.0000000000
     10752      3584  TIP3      H2             24.7847033595        0.0635177139      -34.6921196465  W2        3584            0.0000000000
     10753      3585  TIP3      OH2            33.8101433595      -16.8593522861      -17.3350896465  W2        3585            0.0000000000
     10754      3585  TIP3      H1             33.8868633595      -17.2852822861      -16.4813196465  W2        3585            0.0000000000
     10755      3585  TIP3      H2             34.7038033595      -16.8458822861      -17.6777396465  W2        3585            0.0000000000
     10756      3586  TIP3      OH2            36.9862533595       -0.7867222861      -18.6426696465  W2        3586            0.0000000000
     10757      3586  TIP3      H1             36.2044433595       -0.9729222861      -19.1626096465  W2        3586            0.0000000000
     10758      3586  TIP3      H2             36.9142433595        0.1427077139      -18.4254196465  W2        3586            0.0000000000
     10759      3587  TIP3      OH2            51.3922933595       -6.9002822861      -28.6119496465  W2        3587            0.0000000000
     10760      3587  TIP3      H1             51.4814033595       -5.9564622861      -28.7442396465  W2        3587            0.0000000000
     10761      3587  TIP3      H2             50.7540533595       -7.1756422861      -29.2700096465  W2        3587            0.0000000000
     10762      3588  TIP3      OH2            50.3254233595       -7.6452122861      -25.1931296465  W2        3588            0.0000000000
     10763      3588  TIP3      H1             50.2871733595       -8.2915822861      -24.4881696465  W2        3588            0.0000000000
     10764      3588  TIP3      H2             50.0030733595       -8.1117722861      -25.9642596465  W2        3588            0.0000000000
     10765      3589  TIP3      OH2            42.6939233595       -8.0310022861      -23.6001396465  W2        3589            0.0000000000
     10766      3589  TIP3      H1             42.7351333595       -8.6566722861      -22.8768996465  W2        3589            0.0000000000
     10767      3589  TIP3      H2             43.3966933595       -7.4071422861      -23.4180996465  W2        3589            0.0000000000
     10768      3590  TIP3      OH2            54.0314433595       -4.7061722861      -26.8916196465  W2        3590            0.0000000000
     10769      3590  TIP3      H1             53.5907133595       -5.4265722861      -26.4410596465  W2        3590            0.0000000000
     10770      3590  TIP3      H2             54.0184133595       -3.9854522861      -26.2618496465  W2        3590            0.0000000000
     10771      3591  TIP3      OH2            43.6172333595       -3.5811122861      -25.0652296465  W2        3591            0.0000000000
     10772      3591  TIP3      H1             43.2477533595       -4.3830622861      -25.4347996465  W2        3591            0.0000000000
     10773      3591  TIP3      H2             44.5583433595       -3.7496222861      -25.0188896465  W2        3591            0.0000000000
     10774      3592  TIP3      OH2            40.2272833595       -9.9208522861      -29.6723496465  W2        3592            0.0000000000
     10775      3592  TIP3      H1             39.7796233595       -9.0749822861      -29.6906996465  W2        3592            0.0000000000
     10776      3592  TIP3      H2             39.6664033595      -10.5004322861      -30.1878396465  W2        3592            0.0000000000
     10777      3593  TIP3      OH2            40.9378933595       -7.7588922861      -27.5465496465  W2        3593            0.0000000000
     10778      3593  TIP3      H1             41.1512433595       -8.5287322861      -27.0192496465  W2        3593            0.0000000000
     10779      3593  TIP3      H2             41.6756533595       -7.6692222861      -28.1497896465  W2        3593            0.0000000000
     10780      3594  TIP3      OH2            51.1429933595        0.3979977139      -26.6795796465  W2        3594            0.0000000000
     10781      3594  TIP3      H1             51.7626333595       -0.2785322861      -26.9526596465  W2        3594            0.0000000000
     10782      3594  TIP3      H2             50.9347333595        0.1800777139      -25.7710896465  W2        3594            0.0000000000
     10783      3595  TIP3      OH2            48.7148633595       -5.2130722861      -24.7870296465  W2        3595            0.0000000000
     10784      3595  TIP3      H1             49.0186533595       -5.8989322861      -25.3816196465  W2        3595            0.0000000000
     10785      3595  TIP3      H2             49.4362633595       -5.0942022861      -24.1692296465  W2        3595            0.0000000000
     10786      3596  TIP3      OH2            51.8555633595      -10.8188322861      -24.4595496465  W2        3596            0.0000000000
     10787      3596  TIP3      H1             51.9981533595      -11.7651322861      -24.4393896465  W2        3596            0.0000000000
     10788      3596  TIP3      H2             51.7494633595      -10.6118522861      -25.3880596465  W2        3596            0.0000000000
     10789      3597  TIP3      OH2            45.0103933595      -12.7171922861      -27.1870696465  W2        3597            0.0000000000
     10790      3597  TIP3      H1             45.0535033595      -11.8573422861      -27.6054396465  W2        3597            0.0000000000
     10791      3597  TIP3      H2             44.5528033595      -13.2697222861      -27.8207496465  W2        3597            0.0000000000
     10792      3598  TIP3      OH2            52.7326633595      -12.5866322861      -28.7862396465  W2        3598            0.0000000000
     10793      3598  TIP3      H1             53.3790933595      -12.9153122861      -28.1614796465  W2        3598            0.0000000000
     10794      3598  TIP3      H2             53.2426033595      -12.0687322861      -29.4090996465  W2        3598            0.0000000000
     10795      3599  TIP3      OH2            41.6305433595      -10.3206122861      -26.4249296465  W2        3599            0.0000000000
     10796      3599  TIP3      H1             42.2842033595      -10.8704422861      -25.9929196465  W2        3599            0.0000000000
     10797      3599  TIP3      H2             41.6544733595      -10.5947122861      -27.3417296465  W2        3599            0.0000000000
     10798      3600  TIP3      OH2            46.7869933595       -8.7704822861      -27.2097796465  W2        3600            0.0000000000
     10799      3600  TIP3      H1             47.4030933595       -9.2969422861      -26.7003796465  W2        3600            0.0000000000
     10800      3600  TIP3      H2             46.2008733595       -9.4106122861      -27.6134196465  W2        3600            0.0000000000
     10801      3601  TIP3      OH2            43.8205833595      -13.7993522861      -23.1129896465  W2        3601            0.0000000000
     10802      3601  TIP3      H1             43.6017533595      -13.2692922861      -23.8793896465  W2        3601            0.0000000000
     10803      3601  TIP3      H2             43.1526733595      -13.5728022861      -22.4658496465  W2        3601            0.0000000000
     10804      3602  TIP3      OH2            51.1895633595       -4.2992422861      -29.5690796465  W2        3602            0.0000000000
     10805      3602  TIP3      H1             50.8940733595       -4.6220122861      -30.4203896465  W2        3602            0.0000000000
     10806      3602  TIP3      H2             50.8653433595       -3.3995722861      -29.5278196465  W2        3602            0.0000000000
     10807      3603  TIP3      OH2            46.3897233595       -6.1237822861      -22.8256196465  W2        3603            0.0000000000
     10808      3603  TIP3      H1             45.6496333595       -5.5256322861      -22.7220996465  W2        3603            0.0000000000
     10809      3603  TIP3      H2             47.1036733595       -5.5698222861      -23.1412596465  W2        3603            0.0000000000
     10810      3604  TIP3      OH2            54.4965033595      -13.2957022861      -26.8056496465  W2        3604            0.0000000000
     10811      3604  TIP3      H1             54.2813033595      -14.0613622861      -26.2730496465  W2        3604            0.0000000000
     10812      3604  TIP3      H2             55.1522433595      -12.8232422861      -26.2927996465  W2        3604            0.0000000000
     10813      3605  TIP3      OH2            43.4143133595      -11.9071722861      -25.1607696465  W2        3605            0.0000000000
     10814      3605  TIP3      H1             44.0279433595      -11.2744122861      -24.7875296465  W2        3605            0.0000000000
     10815      3605  TIP3      H2             43.9263833595      -12.3796722861      -25.8170796465  W2        3605            0.0000000000
     10816      3606  TIP3      OH2            44.7971533595       -4.1594822861      -22.0384696465  W2        3606            0.0000000000
     10817      3606  TIP3      H1             44.7919133595       -3.2801322861      -22.4165396465  W2        3606            0.0000000000
     10818      3606  TIP3      H2             43.9435633595       -4.2430722861      -21.6134796465  W2        3606            0.0000000000
     10819      3607  TIP3      OH2            40.9182433595       -4.4886922861      -31.2565396465  W2        3607            0.0000000000
     10820      3607  TIP3      H1             40.6463333595       -4.2595922861      -32.1452496465  W2        3607            0.0000000000
     10821      3607  TIP3      H2             40.9638133595       -3.6508122861      -30.7960096465  W2        3607            0.0000000000
     10822      3608  TIP3      OH2            54.5432133595       -2.8671022861      -24.5436896465  W2        3608            0.0000000000
     10823      3608  TIP3      H1             53.6015833595       -2.8087122861      -24.3819996465  W2        3608            0.0000000000
     10824      3608  TIP3      H2             54.8198233595       -1.9610522861      -24.6807196465  W2        3608            0.0000000000
     10825      3609  TIP3      OH2            47.8470533595      -16.4938422861      -25.6604996465  W2        3609            0.0000000000
     10826      3609  TIP3      H1             47.7294733595      -17.4422422861      -25.7146696465  W2        3609            0.0000000000
     10827      3609  TIP3      H2             46.9920633595      -16.1612322861      -25.3873896465  W2        3609            0.0000000000
     10828      3610  TIP3      OH2            52.7953333595       -1.0857522861      -27.9185296465  W2        3610            0.0000000000
     10829      3610  TIP3      H1             53.2205633595       -1.7929622861      -28.4035696465  W2        3610            0.0000000000
     10830      3610  TIP3      H2             53.1123333595       -0.2844822861      -28.3353096465  W2        3610            0.0000000000
     10831      3611  TIP3      OH2            53.9549833595       -3.1849022861      -29.4098696465  W2        3611            0.0000000000
     10832      3611  TIP3      H1             53.6974633595       -3.8748922861      -30.0212796465  W2        3611            0.0000000000
     10833      3611  TIP3      H2             54.0260633595       -3.6277822861      -28.5642796465  W2        3611            0.0000000000
     10834      3612  TIP3      OH2            50.1135433595       -7.6562822861      -31.1599196465  W2        3612            0.0000000000
     10835      3612  TIP3      H1             49.4020933595       -7.1213122861      -31.5118696465  W2        3612            0.0000000000
     10836      3612  TIP3      H2             50.8045033595       -7.6010722861      -31.8200296465  W2        3612            0.0000000000
     10837      3613  TIP3      OH2            50.1674633595       -9.1988522861      -34.1214196465  W2        3613            0.0000000000
     10838      3613  TIP3      H1             50.8684533595       -9.1761622861      -33.4700196465  W2        3613            0.0000000000
     10839      3613  TIP3      H2             50.4697533595       -9.8268822861      -34.7774896465  W2        3613            0.0000000000
     10840      3614  TIP3      OH2            53.5193133595       -7.4469522861      -30.2083296465  W2        3614            0.0000000000
     10841      3614  TIP3      H1             52.7874133595       -7.2185822861      -29.6352696465  W2        3614            0.0000000000
     10842      3614  TIP3      H2             53.9665333595       -8.1606822861      -29.7535796465  W2        3614            0.0000000000
     10843      3615  TIP3      OH2            53.4166633595       -9.2726922861      -21.1406296465  W2        3615            0.0000000000
     10844      3615  TIP3      H1             53.4965733595       -8.5092522861      -20.5687796465  W2        3615            0.0000000000
     10845      3615  TIP3      H2             52.8154333595       -8.9934522861      -21.8311196465  W2        3615            0.0000000000
     10846      3616  TIP3      OH2            45.1646833595       -6.8163322861      -28.3258296465  W2        3616            0.0000000000
     10847      3616  TIP3      H1             44.8342033595       -7.1869922861      -29.1441296465  W2        3616            0.0000000000
     10848      3616  TIP3      H2             45.7530933595       -7.4869322861      -27.9789996465  W2        3616            0.0000000000
     10849      3617  TIP3      OH2            46.5314333595       -3.3882722861      -25.6446096465  W2        3617            0.0000000000
     10850      3617  TIP3      H1             46.4365633595       -3.9669622861      -26.4011496465  W2        3617            0.0000000000
     10851      3617  TIP3      H2             47.2607933595       -3.7597022861      -25.1483296465  W2        3617            0.0000000000
     10852      3618  TIP3      OH2            45.5312333595       -8.0477722861      -24.6923296465  W2        3618            0.0000000000
     10853      3618  TIP3      H1             46.0964833595       -7.9263522861      -25.4552096465  W2        3618            0.0000000000
     10854      3618  TIP3      H2             45.8501233595       -7.4102722861      -24.0534796465  W2        3618            0.0000000000
     10855      3619  TIP3      OH2            51.8404533595       -2.5445822861      -23.9582796465  W2        3619            0.0000000000
     10856      3619  TIP3      H1             51.6001133595       -1.8822722861      -23.3103596465  W2        3619            0.0000000000
     10857      3619  TIP3      H2             51.6422733595       -3.3790622861      -23.5333196465  W2        3619            0.0000000000
     10858      3620  TIP3      OH2            46.4113033595       -3.6485022861      -19.9751396465  W2        3620            0.0000000000
     10859      3620  TIP3      H1             46.1000533595       -2.8661822861      -19.5198196465  W2        3620            0.0000000000
     10860      3620  TIP3      H2             45.7613233595       -3.8015922861      -20.6609396465  W2        3620            0.0000000000
     10861      3621  TIP3      OH2            52.3902633595       -8.2846622861      -32.5232096465  W2        3621            0.0000000000
     10862      3621  TIP3      H1             52.9698133595       -8.1346322861      -31.7763196465  W2        3621            0.0000000000
     10863      3621  TIP3      H2             52.8042633595       -7.8139222861      -33.2465696465  W2        3621            0.0000000000
     10864      3622  TIP3      OH2            43.3312933595       -7.4503922861      -20.7465696465  W2        3622            0.0000000000
     10865      3622  TIP3      H1             43.4016133595       -6.7997122861      -20.0480696465  W2        3622            0.0000000000
     10866      3622  TIP3      H2             42.4405133595       -7.3476422861      -21.0814796465  W2        3622            0.0000000000
     10867      3623  TIP3      OH2            50.1167533595       -1.5478122861      -29.0878996465  W2        3623            0.0000000000
     10868      3623  TIP3      H1             50.5905133595       -1.2521822861      -28.3104796465  W2        3623            0.0000000000
     10869      3623  TIP3      H2             49.5536833595       -0.8096522861      -29.3209396465  W2        3623            0.0000000000
     10870      3624  TIP3      OH2            44.6508933595       -1.5770022861      -19.2117596465  W2        3624            0.0000000000
     10871      3624  TIP3      H1             44.6584233595       -1.7130322861      -20.1592096465  W2        3624            0.0000000000
     10872      3624  TIP3      H2             43.7349333595       -1.6941922861      -18.9597596465  W2        3624            0.0000000000
     10873      3625  TIP3      OH2            44.1549533595       -7.7469022861      -30.7365496465  W2        3625            0.0000000000
     10874      3625  TIP3      H1             43.8630833595       -6.9787322861      -31.2274196465  W2        3625            0.0000000000
     10875      3625  TIP3      H2             43.4804733595       -8.4062822861      -30.8994096465  W2        3625            0.0000000000
     10876      3626  TIP3      OH2            40.2479633595       -5.3839822861      -21.9215696465  W2        3626            0.0000000000
     10877      3626  TIP3      H1             39.7468033595       -5.4120422861      -22.7365996465  W2        3626            0.0000000000
     10878      3626  TIP3      H2             40.2533333595       -6.2896622861      -21.6118396465  W2        3626            0.0000000000
     10879      3627  TIP3      OH2            39.9982333595       -2.6036022861      -25.0375496465  W2        3627            0.0000000000
     10880      3627  TIP3      H1             40.9442933595       -2.7479022861      -25.0565996465  W2        3627            0.0000000000
     10881      3627  TIP3      H2             39.8858633595       -1.8193222861      -24.5004296465  W2        3627            0.0000000000
     10882      3628  TIP3      OH2            49.1744833595       -2.3637122861      -20.4790396465  W2        3628            0.0000000000
     10883      3628  TIP3      H1             49.2619433595       -1.5372522861      -20.0041296465  W2        3628            0.0000000000
     10884      3628  TIP3      H2             48.3109933595       -2.6933322861      -20.2301096465  W2        3628            0.0000000000
     10885      3629  TIP3      OH2            49.5890633595        1.4086577139      -30.6729796465  W2        3629            0.0000000000
     10886      3629  TIP3      H1             49.5136633595        1.2873777139      -31.6194596465  W2        3629            0.0000000000
     10887      3629  TIP3      H2             49.6219333595        2.3579277139      -30.5545196465  W2        3629            0.0000000000
     10888      3630  TIP3      OH2            43.2424433595        0.1973577139      -28.8920796465  W2        3630            0.0000000000
     10889      3630  TIP3      H1             43.3944833595       -0.1506022861      -28.0134296465  W2        3630            0.0000000000
     10890      3630  TIP3      H2             42.3914833595       -0.1589122861      -29.1473596465  W2        3630            0.0000000000
     10891      3631  TIP3      OH2            52.6906633595        0.5626777139      -33.6707396465  W2        3631            0.0000000000
     10892      3631  TIP3      H1             53.0655033595       -0.1817122861      -34.1414796465  W2        3631            0.0000000000
     10893      3631  TIP3      H2             52.6950333595        0.2927377139      -32.7524096465  W2        3631            0.0000000000
     10894      3632  TIP3      OH2            52.3594733595        0.4883877139      -30.9215196465  W2        3632            0.0000000000
     10895      3632  TIP3      H1             51.4244533595        0.5885777139      -30.7428196465  W2        3632            0.0000000000
     10896      3632  TIP3      H2             52.6396633595       -0.2210122861      -30.3431996465  W2        3632            0.0000000000
     10897      3633  TIP3      OH2            42.4970133595       -4.0604422861      -20.8782896465  W2        3633            0.0000000000
     10898      3633  TIP3      H1             42.7131433595       -4.4218822861      -20.0187096465  W2        3633            0.0000000000
     10899      3633  TIP3      H2             41.6414833595       -4.4350622861      -21.0879396465  W2        3633            0.0000000000
     10900      3634  TIP3      OH2            45.1158133595      -15.5903922861      -24.8828696465  W2        3634            0.0000000000
     10901      3634  TIP3      H1             44.2541833595      -15.6775722861      -25.2905796465  W2        3634            0.0000000000
     10902      3634  TIP3      H2             45.0933833595      -14.7343822861      -24.4551096465  W2        3634            0.0000000000
     10903      3635  TIP3      OH2            49.7785933595      -15.8683522861      -21.5081696465  W2        3635            0.0000000000
     10904      3635  TIP3      H1             50.1989033595      -16.2836422861      -20.7551096465  W2        3635            0.0000000000
     10905      3635  TIP3      H2             48.8455533595      -16.0470222861      -21.3909696465  W2        3635            0.0000000000
     10906      3636  TIP3      OH2            53.1050833595      -12.1128322861      -20.6547196465  W2        3636            0.0000000000
     10907      3636  TIP3      H1             52.5910333595      -12.2386122861      -19.8571196465  W2        3636            0.0000000000
     10908      3636  TIP3      H2             52.9495533595      -11.2005222861      -20.8990996465  W2        3636            0.0000000000
     10909      3637  TIP3      OH2            53.8675733595       -7.2518322861      -34.8934196465  W2        3637            0.0000000000
     10910      3637  TIP3      H1             53.9096533595       -7.4744422861      -35.8234196465  W2        3637            0.0000000000
     10911      3637  TIP3      H2             54.7167833595       -6.8531222861      -34.7034296465  W2        3637            0.0000000000
     10912      3638  TIP3      OH2            49.4403233595      -13.3760122861      -34.2230896465  W2        3638            0.0000000000
     10913      3638  TIP3      H1             49.1868033595      -13.3568522861      -33.3002796465  W2        3638            0.0000000000
     10914      3638  TIP3      H2             49.1835333595      -14.2474722861      -34.5244696465  W2        3638            0.0000000000
     10915      3639  TIP3      OH2            45.2068233595      -10.6249422861      -23.7878496465  W2        3639            0.0000000000
     10916      3639  TIP3      H1             44.5650333595      -10.6652122861      -23.0788396465  W2        3639            0.0000000000
     10917      3639  TIP3      H2             45.2440233595       -9.6984722861      -24.0255496465  W2        3639            0.0000000000
     10918      3640  TIP3      OH2            45.2037333595      -10.4039322861      -28.8758496465  W2        3640            0.0000000000
     10919      3640  TIP3      H1             44.3110233595      -10.7443222861      -28.9344696465  W2        3640            0.0000000000
     10920      3640  TIP3      H2             45.6543933595      -10.7808422861      -29.6315296465  W2        3640            0.0000000000
     10921      3641  TIP3      OH2            50.7392833595       -9.9879022861      -30.0587696465  W2        3641            0.0000000000
     10922      3641  TIP3      H1             50.3303133595       -9.1730422861      -30.3502896465  W2        3641            0.0000000000
     10923      3641  TIP3      H2             51.4599033595      -10.1278922861      -30.6730596465  W2        3641            0.0000000000
     10924      3642  TIP3      OH2            49.8414433595       -9.8122622861      -18.5706996465  W2        3642            0.0000000000
     10925      3642  TIP3      H1             49.2788233595      -10.5171022861      -18.2499196465  W2        3642            0.0000000000
     10926      3642  TIP3      H2             50.6677833595       -9.9330722861      -18.1029396465  W2        3642            0.0000000000
     10927      3643  TIP3      OH2            51.7440533595      -10.5418622861      -27.2447996465  W2        3643            0.0000000000
     10928      3643  TIP3      H1             51.5485033595       -9.9361822861      -27.9597396465  W2        3643            0.0000000000
     10929      3643  TIP3      H2             51.9253133595      -11.3753422861      -27.6791696465  W2        3643            0.0000000000
     10930      3644  TIP3      OH2            42.9568733595      -10.3045922861      -21.9206496465  W2        3644            0.0000000000
     10931      3644  TIP3      H1             42.9188133595       -9.9044322861      -21.0519396465  W2        3644            0.0000000000
     10932      3644  TIP3      H2             42.4659833595      -11.1213522861      -21.8303596465  W2        3644            0.0000000000
     10933      3645  TIP3      OH2            46.3226133595      -12.9303622861      -35.1220496465  W2        3645            0.0000000000
     10934      3645  TIP3      H1             45.8916833595      -13.3753522861      -34.3923096465  W2        3645            0.0000000000
     10935      3645  TIP3      H2             45.6044833595      -12.5587322861      -35.6342996465  W2        3645            0.0000000000
     10936      3646  TIP3      OH2            39.5649533595      -13.1884122861      -28.0701796465  W2        3646            0.0000000000
     10937      3646  TIP3      H1             40.1957233595      -13.2172022861      -27.3507896465  W2        3646            0.0000000000
     10938      3646  TIP3      H2             40.0143833595      -13.6135422861      -28.8005896465  W2        3646            0.0000000000
     10939      3647  TIP3      OH2            40.8391633595      -12.4422122861      -32.6461396465  W2        3647            0.0000000000
     10940      3647  TIP3      H1             41.3133333595      -11.8512222861      -33.2310496465  W2        3647            0.0000000000
     10941      3647  TIP3      H2             40.1218033595      -11.9119222861      -32.2991296465  W2        3647            0.0000000000
     10942      3648  TIP3      OH2            51.0079733595       -8.9037322861      -22.5735596465  W2        3648            0.0000000000
     10943      3648  TIP3      H1             51.3314533595       -9.5347622861      -23.2165096465  W2        3648            0.0000000000
     10944      3648  TIP3      H2             50.5679033595       -9.4385122861      -21.9128196465  W2        3648            0.0000000000
     10945      3649  TIP3      OH2            47.7852633595      -12.9761822861      -27.7894396465  W2        3649            0.0000000000
     10946      3649  TIP3      H1             46.8743733595      -12.9195022861      -27.5008396465  W2        3649            0.0000000000
     10947      3649  TIP3      H2             48.2905533595      -13.0366322861      -26.9787196465  W2        3649            0.0000000000
     10948      3650  TIP3      OH2            42.6136033595      -11.3475522861      -28.9626796465  W2        3650            0.0000000000
     10949      3650  TIP3      H1             41.7244033595      -11.2480022861      -29.3027196465  W2        3650            0.0000000000
     10950      3650  TIP3      H2             42.9100933595      -12.1892522861      -29.3088896465  W2        3650            0.0000000000
     10951      3651  TIP3      OH2            46.2667833595      -11.3472922861      -31.3062196465  W2        3651            0.0000000000
     10952      3651  TIP3      H1             47.1983333595      -11.2182922861      -31.1279096465  W2        3651            0.0000000000
     10953      3651  TIP3      H2             46.0518133595      -10.6778622861      -31.9557496465  W2        3651            0.0000000000
     10954      3652  TIP3      OH2            52.1904533595      -13.7415522861      -24.5252596465  W2        3652            0.0000000000
     10955      3652  TIP3      H1             51.5136133595      -13.6102422861      -23.8612896465  W2        3652            0.0000000000
     10956      3652  TIP3      H2             51.7049433595      -13.8966022861      -25.3354896465  W2        3652            0.0000000000
     10957      3653  TIP3      OH2            44.9408033595      -10.1530722861      -33.7396096465  W2        3653            0.0000000000
     10958      3653  TIP3      H1             44.3983133595      -10.5326922861      -34.4308496465  W2        3653            0.0000000000
     10959      3653  TIP3      H2             45.7742933595       -9.9586022861      -34.1681996465  W2        3653            0.0000000000
     10960      3654  TIP3      OH2            43.0759433595       -5.5958822861      -18.6404496465  W2        3654            0.0000000000
     10961      3654  TIP3      H1             43.8081833595       -5.3412922861      -18.0789996465  W2        3654            0.0000000000
     10962      3654  TIP3      H2             42.2958133595       -5.3913422861      -18.1249096465  W2        3654            0.0000000000
     10963      3655  TIP3      OH2            49.1052333595      -10.1888822861      -25.9024796465  W2        3655            0.0000000000
     10964      3655  TIP3      H1             49.6695733595      -10.7352222861      -26.4495196465  W2        3655            0.0000000000
     10965      3655  TIP3      H2             48.9575733595      -10.7106922861      -25.1137196465  W2        3655            0.0000000000
     10966      3656  TIP3      OH2            44.1072033595      -14.0522722861      -29.4839996465  W2        3656            0.0000000000
     10967      3656  TIP3      H1             43.7901533595      -14.9547422861      -29.5194596465  W2        3656            0.0000000000
     10968      3656  TIP3      H2             44.8886133595      -14.0505322861      -30.0368396465  W2        3656            0.0000000000
     10969      3657  TIP3      OH2            47.7318233595      -11.8002722861      -23.4884396465  W2        3657            0.0000000000
     10970      3657  TIP3      H1             46.8963533595      -11.3463222861      -23.3781996465  W2        3657            0.0000000000
     10971      3657  TIP3      H2             48.2558833595      -11.5244222861      -22.7364496465  W2        3657            0.0000000000
     10972      3658  TIP3      OH2            48.2760833595       -5.5875022861      -31.8037996465  W2        3658            0.0000000000
     10973      3658  TIP3      H1             47.5311833595       -6.0949722861      -32.1260096465  W2        3658            0.0000000000
     10974      3658  TIP3      H2             48.1418033595       -5.5387022861      -30.8573196465  W2        3658            0.0000000000
     10975      3659  TIP3      OH2            52.1737633595      -12.7735122861      -33.6045396465  W2        3659            0.0000000000
     10976      3659  TIP3      H1             51.2351833595      -12.6619522861      -33.7556596465  W2        3659            0.0000000000
     10977      3659  TIP3      H2             52.4709733595      -11.9168222861      -33.2979696465  W2        3659            0.0000000000
     10978      3660  TIP3      OH2            49.7952933595       -5.4031722861      -20.5668896465  W2        3660            0.0000000000
     10979      3660  TIP3      H1             49.4499033595       -5.7849322861      -19.7599296465  W2        3660            0.0000000000
     10980      3660  TIP3      H2             49.5953033595       -4.4698122861      -20.4955996465  W2        3660            0.0000000000
     10981      3661  TIP3      OH2            52.8921133595      -10.9062422861      -31.9437996465  W2        3661            0.0000000000
     10982      3661  TIP3      H1             53.7840133595      -11.0437422861      -31.6246796465  W2        3661            0.0000000000
     10983      3661  TIP3      H2             52.9484733595      -10.1156322861      -32.4804496465  W2        3661            0.0000000000
     10984      3662  TIP3      OH2            43.4009133595       -6.2925022861      -26.0340096465  W2        3662            0.0000000000
     10985      3662  TIP3      H1             44.1456333595       -6.2949322861      -26.6353596465  W2        3662            0.0000000000
     10986      3662  TIP3      H2             43.4785733595       -7.1161222861      -25.5524996465  W2        3662            0.0000000000
     10987      3663  TIP3      OH2            50.4014933595       -4.1290722861      -32.7783396465  W2        3663            0.0000000000
     10988      3663  TIP3      H1             50.1063333595       -3.3022822861      -32.3968596465  W2        3663            0.0000000000
     10989      3663  TIP3      H2             49.6984933595       -4.7483822861      -32.5821996465  W2        3663            0.0000000000
     10990      3664  TIP3      OH2            40.4088833595       -7.8318122861      -20.7191596465  W2        3664            0.0000000000
     10991      3664  TIP3      H1             40.6317433595       -8.2498522861      -19.8874096465  W2        3664            0.0000000000
     10992      3664  TIP3      H2             39.8068933595       -8.4443122861      -21.1418796465  W2        3664            0.0000000000
     10993      3665  TIP3      OH2            47.4253733595       -8.3148222861      -18.5061896465  W2        3665            0.0000000000
     10994      3665  TIP3      H1             47.1294533595       -8.4805222861      -19.4012796465  W2        3665            0.0000000000
     10995      3665  TIP3      H2             48.3568933595       -8.5347922861      -18.5167996465  W2        3665            0.0000000000
     10996      3666  TIP3      OH2            52.0456533595       -2.9416222861      -20.6163896465  W2        3666            0.0000000000
     10997      3666  TIP3      H1             51.1450833595       -2.7583622861      -20.8839996465  W2        3666            0.0000000000
     10998      3666  TIP3      H2             52.0797633595       -2.6826922861      -19.6955096465  W2        3666            0.0000000000
     10999      3667  TIP3      OH2            53.2325433595       -7.1028422861      -24.7627296465  W2        3667            0.0000000000
     11000      3667  TIP3      H1             52.3042333595       -7.3346522861      -24.7897996465  W2        3667            0.0000000000
     11001      3667  TIP3      H2             53.6836533595       -7.8798622861      -25.0928496465  W2        3667            0.0000000000
     11002      3668  TIP3      OH2            45.7758533595       -2.7746822861      -28.6298596465  W2        3668            0.0000000000
     11003      3668  TIP3      H1             46.3030733595       -2.0012422861      -28.8299796465  W2        3668            0.0000000000
     11004      3668  TIP3      H2             44.8957033595       -2.5497622861      -28.9314596465  W2        3668            0.0000000000
     11005      3669  TIP3      OH2            41.5306233595       -7.9122722861      -34.0426196465  W2        3669            0.0000000000
     11006      3669  TIP3      H1             42.1466133595       -7.2855522861      -33.6631396465  W2        3669            0.0000000000
     11007      3669  TIP3      H2             40.6688833595       -7.5962922861      -33.7709696465  W2        3669            0.0000000000
     11008      3670  TIP3      OH2            47.2030833595       -5.1116922861      -29.0534296465  W2        3670            0.0000000000
     11009      3670  TIP3      H1             46.9620833595       -4.1862522861      -29.0118996465  W2        3670            0.0000000000
     11010      3670  TIP3      H2             46.4624433595       -5.5705622861      -28.6570396465  W2        3670            0.0000000000
     11011      3671  TIP3      OH2            47.7177433595       -0.9623322861      -22.7383196465  W2        3671            0.0000000000
     11012      3671  TIP3      H1             48.0802133595       -0.1077722861      -22.9718796465  W2        3671            0.0000000000
     11013      3671  TIP3      H2             48.2492633595       -1.2541722861      -21.9976896465  W2        3671            0.0000000000
     11014      3672  TIP3      OH2            45.8861633595       -0.0899322861      -29.5082096465  W2        3672            0.0000000000
     11015      3672  TIP3      H1             44.9362133595        0.0158077139      -29.4568796465  W2        3672            0.0000000000
     11016      3672  TIP3      H2             46.2379733595        0.7308077139      -29.1634596465  W2        3672            0.0000000000
     11017      3673  TIP3      OH2            51.2618233595       -4.8632622861      -23.0377596465  W2        3673            0.0000000000
     11018      3673  TIP3      H1             50.8359533595       -5.0910922861      -22.2113596465  W2        3673            0.0000000000
     11019      3673  TIP3      H2             51.8424033595       -5.6020822861      -23.2202296465  W2        3673            0.0000000000
     11020      3674  TIP3      OH2            53.4647133595       -3.9342122861      -33.9638596465  W2        3674            0.0000000000
     11021      3674  TIP3      H1             53.8180233595       -4.3142322861      -33.1595096465  W2        3674            0.0000000000
     11022      3674  TIP3      H2             52.5160633595       -4.0277322861      -33.8769296465  W2        3674            0.0000000000
     11023      3675  TIP3      OH2            53.9202433595       -0.3113122861      -20.5682796465  W2        3675            0.0000000000
     11024      3675  TIP3      H1             53.3185633595       -0.8670222861      -21.0636496465  W2        3675            0.0000000000
     11025      3675  TIP3      H2             54.2016133595        0.3556677139      -21.1945396465  W2        3675            0.0000000000
     11026      3676  TIP3      OH2            42.0428333595      -13.0785422861      -21.1610196465  W2        3676            0.0000000000
     11027      3676  TIP3      H1             41.1500633595      -12.7400022861      -21.2286196465  W2        3676            0.0000000000
     11028      3676  TIP3      H2             41.9441133595      -13.9339322861      -20.7429396465  W2        3676            0.0000000000
     11029      3677  TIP3      OH2            54.3306433595       -5.2620122861      -31.7370696465  W2        3677            0.0000000000
     11030      3677  TIP3      H1             54.0534033595       -5.9900822861      -31.1809596465  W2        3677            0.0000000000
     11031      3677  TIP3      H2             55.2579433595       -5.1428122861      -31.5318096465  W2        3677            0.0000000000
     11032      3678  TIP3      OH2            41.6940333595       -1.2741022861      -22.7260796465  W2        3678            0.0000000000
     11033      3678  TIP3      H1             41.9110633595       -2.2058622861      -22.7571096465  W2        3678            0.0000000000
     11034      3678  TIP3      H2             41.9403833595       -0.9996022861      -21.8427996465  W2        3678            0.0000000000
     11035      3679  TIP3      OH2            47.5554933595       -2.8226022861      -35.5168596465  W2        3679            0.0000000000
     11036      3679  TIP3      H1             47.7944733595       -3.5707922861      -36.0639696465  W2        3679            0.0000000000
     11037      3679  TIP3      H2             47.2866233595       -3.2104322861      -34.6840796465  W2        3679            0.0000000000
     11038      3680  TIP3      OH2            46.4925533595       -3.2522222861      -33.0605996465  W2        3680            0.0000000000
     11039      3680  TIP3      H1             46.6393533595       -3.7722422861      -32.2705096465  W2        3680            0.0000000000
     11040      3680  TIP3      H2             46.4897233595       -2.3454622861      -32.7540096465  W2        3680            0.0000000000
     11041      3681  TIP3      OH2            42.9456633595       -5.9998922861      -32.5500596465  W2        3681            0.0000000000
     11042      3681  TIP3      H1             42.2595933595       -5.6476422861      -31.9830896465  W2        3681            0.0000000000
     11043      3681  TIP3      H2             43.4684533595       -5.2369322861      -32.7966296465  W2        3681            0.0000000000
     11044      3682  TIP3      OH2            50.7771733595      -13.3375122861      -22.2711596465  W2        3682            0.0000000000
     11045      3682  TIP3      H1             51.4759633595      -13.2636422861      -21.6211896465  W2        3682            0.0000000000
     11046      3682  TIP3      H2             50.3963133595      -14.2020122861      -22.1168696465  W2        3682            0.0000000000
     11047      3683  TIP3      OH2            51.5616633595      -13.6853422861      -31.1739296465  W2        3683            0.0000000000
     11048      3683  TIP3      H1             51.7814933595      -13.2138022861      -31.9773896465  W2        3683            0.0000000000
     11049      3683  TIP3      H2             52.1200633595      -13.2910822861      -30.5038696465  W2        3683            0.0000000000
     11050      3684  TIP3      OH2            49.2302733595       -1.5548622861      -32.3111796465  W2        3684            0.0000000000
     11051      3684  TIP3      H1             48.4138833595       -1.0578922861      -32.2587496465  W2        3684            0.0000000000
     11052      3684  TIP3      H2             49.7599033595       -1.0795122861      -32.9512996465  W2        3684            0.0000000000
     11053      3685  TIP3      OH2            48.7616533595      -11.9574622861      -30.3390896465  W2        3685            0.0000000000
     11054      3685  TIP3      H1             49.5739133595      -11.4531422861      -30.2929196465  W2        3685            0.0000000000
     11055      3685  TIP3      H2             48.5169533595      -12.1024922861      -29.4251296465  W2        3685            0.0000000000
     11056      3686  TIP3      OH2            49.2972933595      -10.9711922861      -21.1544296465  W2        3686            0.0000000000
     11057      3686  TIP3      H1             49.4163233595      -10.3976522861      -20.3973896465  W2        3686            0.0000000000
     11058      3686  TIP3      H2             49.9527533595      -11.6592522861      -21.0396496465  W2        3686            0.0000000000
     11059      3687  TIP3      OH2            49.6453233595      -14.8761622861      -29.4009796465  W2        3687            0.0000000000
     11060      3687  TIP3      H1             49.2986733595      -14.2591022861      -28.7565496465  W2        3687            0.0000000000
     11061      3687  TIP3      H2             50.3040133595      -14.3755922861      -29.8824296465  W2        3687            0.0000000000
     11062      3688  TIP3      OH2            46.5685833595       -0.5111422861      -32.3294896465  W2        3688            0.0000000000
     11063      3688  TIP3      H1             46.7294533595        0.2886077139      -32.8302296465  W2        3688            0.0000000000
     11064      3688  TIP3      H2             46.3713633595       -0.2045422861      -31.4444296465  W2        3688            0.0000000000
     11065      3689  TIP3      OH2            45.3030233595      -13.8132222861      -32.7137296465  W2        3689            0.0000000000
     11066      3689  TIP3      H1             45.2195033595      -12.9249122861      -32.3670896465  W2        3689            0.0000000000
     11067      3689  TIP3      H2             46.1930533595      -14.0785522861      -32.4820496465  W2        3689            0.0000000000
     11068      3690  TIP3      OH2            54.1039733595       -9.3140622861      -26.2237296465  W2        3690            0.0000000000
     11069      3690  TIP3      H1             53.3064133595       -9.7290422861      -26.5522296465  W2        3690            0.0000000000
     11070      3690  TIP3      H2             54.5490833595      -10.0046922861      -25.7326796465  W2        3690            0.0000000000
     11071      3691  TIP3      OH2            43.5615533595       -3.3860022861      -33.6532796465  W2        3691            0.0000000000
     11072      3691  TIP3      H1             44.1537033595       -2.6865222861      -33.3770396465  W2        3691            0.0000000000
     11073      3691  TIP3      H2             44.0208533595       -3.8190522861      -34.3728196465  W2        3691            0.0000000000
     11074      3692  TIP3      OH2            41.8774733595      -10.7217022861      -34.5373396465  W2        3692            0.0000000000
     11075      3692  TIP3      H1             41.8327333595       -9.7823922861      -34.3586396465  W2        3692            0.0000000000
     11076      3692  TIP3      H2             40.9897933595      -10.9572122861      -34.8071296465  W2        3692            0.0000000000
     11077      3693  TIP3      OH2            42.6856733595      -15.9400422861      -25.8642396465  W2        3693            0.0000000000
     11078      3693  TIP3      H1             42.4566533595      -15.8807922861      -26.7917396465  W2        3693            0.0000000000
     11079      3693  TIP3      H2             42.2430133595      -16.7314922861      -25.5578296465  W2        3693            0.0000000000
     11080      3694  TIP3      OH2            41.6160033595       -1.9993322861      -29.7036596465  W2        3694            0.0000000000
     11081      3694  TIP3      H1             40.7838633595       -1.5270622861      -29.6765196465  W2        3694            0.0000000000
     11082      3694  TIP3      H2             42.1618333595       -1.4895722861      -30.3023496465  W2        3694            0.0000000000
     11083      3695  TIP3      OH2            40.9043733595        0.6130377139      -18.3738596465  W2        3695            0.0000000000
     11084      3695  TIP3      H1             41.4445933595        0.3964377139      -17.6139396465  W2        3695            0.0000000000
     11085      3695  TIP3      H2             40.4231733595       -0.1923622861      -18.5636096465  W2        3695            0.0000000000
     11086      3696  TIP3      OH2            45.5017133595       -0.4675222861      -16.7534396465  W2        3696            0.0000000000
     11087      3696  TIP3      H1             46.2694333595       -0.9264422861      -16.4125196465  W2        3696            0.0000000000
     11088      3696  TIP3      H2             45.4803333595       -0.6935422861      -17.6833196465  W2        3696            0.0000000000
     11089      3697  TIP3      OH2            49.5936733595       -0.9594622861      -35.3782596465  W2        3697            0.0000000000
     11090      3697  TIP3      H1             48.9497733595       -1.5906022861      -35.0568896465  W2        3697            0.0000000000
     11091      3697  TIP3      H2             50.3555033595       -1.4906622861      -35.6099096465  W2        3697            0.0000000000
     11092      3698  TIP3      OH2            52.0785833595       -2.0874122861      -18.0242896465  W2        3698            0.0000000000
     11093      3698  TIP3      H1             51.7275333595       -2.9441122861      -17.7812496465  W2        3698            0.0000000000
     11094      3698  TIP3      H2             52.8049033595       -1.9447422861      -17.4173896465  W2        3698            0.0000000000
     11095      3699  TIP3      OH2            54.1979633595       -1.1424722861      -35.1444596465  W2        3699            0.0000000000
     11096      3699  TIP3      H1             54.4810033595       -1.9369522861      -34.6917696465  W2        3699            0.0000000000
     11097      3699  TIP3      H2             54.9377533595       -0.9093722861      -35.7053496465  W2        3699            0.0000000000
     11098      3700  TIP3      OH2            40.8113233595       -5.5765522861      -17.4194296465  W2        3700            0.0000000000
     11099      3700  TIP3      H1             40.9553733595       -6.4784822861      -17.7057596465  W2        3700            0.0000000000
     11100      3700  TIP3      H2             40.0390633595       -5.2903422861      -17.9071996465  W2        3700            0.0000000000
     11101      3701  TIP3      OH2            45.1526933595       -5.2329822861      -35.2869696465  W2        3701            0.0000000000
     11102      3701  TIP3      H1             45.2171033595       -6.0270222861      -34.7563296465  W2        3701            0.0000000000
     11103      3701  TIP3      H2             45.8056133595       -5.3517022861      -35.9767696465  W2        3701            0.0000000000
     11104      3702  TIP3      OH2            47.4669333595       -5.6067422861      -17.9867896465  W2        3702            0.0000000000
     11105      3702  TIP3      H1             47.1383133595       -5.3359322861      -18.8440496465  W2        3702            0.0000000000
     11106      3702  TIP3      H2             47.6187533595       -6.5477622861      -18.0742896465  W2        3702            0.0000000000
     11107      3703  TIP3      OH2            50.5050333595       -4.1858122861      -35.5511696465  W2        3703            0.0000000000
     11108      3703  TIP3      H1             50.2364433595       -4.0056022861      -34.6502796465  W2        3703            0.0000000000
     11109      3703  TIP3      H2             50.2985933595       -5.1111922861      -35.6825896465  W2        3703            0.0000000000
     11110      3704  TIP3      OH2            53.2014533595       -5.6910122861      -20.6035596465  W2        3704            0.0000000000
     11111      3704  TIP3      H1             53.9469333595       -5.1026422861      -20.7231596465  W2        3704            0.0000000000
     11112      3704  TIP3      H2             52.4441333595       -5.1090422861      -20.5402496465  W2        3704            0.0000000000
     11113      3705  TIP3      OH2            41.6439733595       -8.3762222861      -17.9994996465  W2        3705            0.0000000000
     11114      3705  TIP3      H1             42.0520933595       -9.2335622861      -18.1204396465  W2        3705            0.0000000000
     11115      3705  TIP3      H2             41.3837333595       -8.3620922861      -17.0784696465  W2        3705            0.0000000000
     11116      3706  TIP3      OH2            46.3020733595       -7.2603622861      -32.9811696465  W2        3706            0.0000000000
     11117      3706  TIP3      H1             45.8422733595       -7.7445322861      -32.2953196465  W2        3706            0.0000000000
     11118      3706  TIP3      H2             46.5569433595       -7.9288222861      -33.6171196465  W2        3706            0.0000000000
     11119      3707  TIP3      OH2            45.5910033595       -9.3676522861      -20.6252096465  W2        3707            0.0000000000
     11120      3707  TIP3      H1             44.9726133595       -8.6929922861      -20.3447396465  W2        3707            0.0000000000
     11121      3707  TIP3      H2             45.9351233595       -9.0462622861      -21.4585896465  W2        3707            0.0000000000
     11122      3708  TIP3      OH2            47.3731133595       -9.0171822861      -34.7188496465  W2        3708            0.0000000000
     11123      3708  TIP3      H1             47.1926133595       -9.1720622861      -35.6460196465  W2        3708            0.0000000000
     11124      3708  TIP3      H2             48.3231633595       -8.9093122861      -34.6740596465  W2        3708            0.0000000000
     11125      3709  TIP3      OH2            50.6108233595       -6.8961222861      -17.3477296465  W2        3709            0.0000000000
     11126      3709  TIP3      H1             51.5639433595       -6.8122122861      -17.3751296465  W2        3709            0.0000000000
     11127      3709  TIP3      H2             50.4502833595       -7.6079422861      -16.7282396465  W2        3709            0.0000000000
     11128      3710  TIP3      OH2            45.9303733595      -12.0125722861      -19.5428996465  W2        3710            0.0000000000
     11129      3710  TIP3      H1             46.0804633595      -12.7414422861      -20.1449296465  W2        3710            0.0000000000
     11130      3710  TIP3      H2             45.9326133595      -11.2354022861      -20.1016796465  W2        3710            0.0000000000
     11131      3711  TIP3      OH2            46.3429433595      -13.6429922861      -22.0501596465  W2        3711            0.0000000000
     11132      3711  TIP3      H1             46.8786933595      -13.1913222861      -22.7022296465  W2        3711            0.0000000000
     11133      3711  TIP3      H2             45.4909033595      -13.7510122861      -22.4727496465  W2        3711            0.0000000000
     11134      3712  TIP3      OH2            47.9247833595       -8.2033722861      -21.8106396465  W2        3712            0.0000000000
     11135      3712  TIP3      H1             48.6752633595       -8.3596222861      -22.3838596465  W2        3712            0.0000000000
     11136      3712  TIP3      H2             47.5856133595       -7.3517122861      -22.0860896465  W2        3712            0.0000000000
     11137      3713  TIP3      OH2            52.3404033595      -10.3881922861      -16.7821096465  W2        3713            0.0000000000
     11138      3713  TIP3      H1             52.5325333595      -11.3192522861      -16.8936596465  W2        3713            0.0000000000
     11139      3713  TIP3      H2             53.1980333595       -9.9632422861      -16.7925696465  W2        3713            0.0000000000
     11140      3714  TIP3      OH2            53.6571233595       -7.5996722861      -18.7048396465  W2        3714            0.0000000000
     11141      3714  TIP3      H1             53.3756233595       -6.8902122861      -19.2824596465  W2        3714            0.0000000000
     11142      3714  TIP3      H2             54.5995533595       -7.6723722861      -18.8557196465  W2        3714            0.0000000000
     11143      3715  TIP3      OH2            44.4090033595      -10.8142222861      -17.6313396465  W2        3715            0.0000000000
     11144      3715  TIP3      H1             43.6419033595      -11.3467422861      -17.8415796465  W2        3715            0.0000000000
     11145      3715  TIP3      H2             45.0879033595      -11.1241822861      -18.2307096465  W2        3715            0.0000000000
     11146      3716  TIP3      OH2            47.1484933595      -16.1864222861      -21.6187996465  W2        3716            0.0000000000
     11147      3716  TIP3      H1             47.0504533595      -15.2401022861      -21.7241796465  W2        3716            0.0000000000
     11148      3716  TIP3      H2             46.4061133595      -16.5590422861      -22.0944496465  W2        3716            0.0000000000
     11149      3717  TIP3      OH2            48.4125433595      -11.8648822861      -18.0549596465  W2        3717            0.0000000000
     11150      3717  TIP3      H1             48.1770833595      -12.0842122861      -17.1534696465  W2        3717            0.0000000000
     11151      3717  TIP3      H2             47.6292333595      -12.0717622861      -18.5647096465  W2        3717            0.0000000000
     11152      3718  TIP3      OH2            51.1282033595      -12.7375322861      -18.9796096465  W2        3718            0.0000000000
     11153      3718  TIP3      H1             50.1807433595      -12.7055622861      -18.8472796465  W2        3718            0.0000000000
     11154      3718  TIP3      H2             51.4408733595      -13.3628222861      -18.3257896465  W2        3718            0.0000000000
     11155      3719  TIP3      OH2            52.7623533595      -14.1034222861      -16.9744196465  W2        3719            0.0000000000
     11156      3719  TIP3      H1             52.6655333595      -15.0556922861      -16.9802296465  W2        3719            0.0000000000
     11157      3719  TIP3      H2             52.4406633595      -13.8347422861      -16.1138696465  W2        3719            0.0000000000
     11158      3720  TIP3      OH2            42.5892833595      -12.8938422861      -17.9268696465  W2        3720            0.0000000000
     11159      3720  TIP3      H1             42.8010233595      -13.6002322861      -18.5371196465  W2        3720            0.0000000000
     11160      3720  TIP3      H2             42.4780333595      -13.3312422861      -17.0827496465  W2        3720            0.0000000000
     11161      3721  TIP3      OH2            47.3703033595      -16.8926822861      -18.9475196465  W2        3721            0.0000000000
     11162      3721  TIP3      H1             48.0821433595      -17.5324622861      -18.9616096465  W2        3721            0.0000000000
     11163      3721  TIP3      H2             47.2693433595      -16.6258522861      -19.8612096465  W2        3721            0.0000000000
     11164      3722  TIP3      OH2            47.7240533595      -15.2098422861      -16.8938896465  W2        3722            0.0000000000
     11165      3722  TIP3      H1             47.5922733595      -15.6854622861      -17.7140396465  W2        3722            0.0000000000
     11166      3722  TIP3      H2             47.1247933595      -14.4654822861      -16.9491796465  W2        3722            0.0000000000
     11167      3723  TIP3      OH2            47.2702833595        1.6731877139      -33.7174896465  W2        3723            0.0000000000
     11168      3723  TIP3      H1             48.2033533595        1.8310577139      -33.5736496465  W2        3723            0.0000000000
     11169      3723  TIP3      H2             47.0061633595        2.3484877139      -34.3423396465  W2        3723            0.0000000000
     11170      3724  TIP3      OH2            40.8387733595       -3.6904322861      -34.2346796465  W2        3724            0.0000000000
     11171      3724  TIP3      H1             41.7526933595       -3.6115422861      -33.9612896465  W2        3724            0.0000000000
     11172      3724  TIP3      H2             40.8460833595       -4.3774722861      -34.9011196465  W2        3724            0.0000000000
     11173      3725  TIP3      OH2            39.4878333595        1.7024177139      -29.1572896465  W2        3725            0.0000000000
     11174      3725  TIP3      H1             38.8405433595        1.2405877139      -29.6901696465  W2        3725            0.0000000000
     11175      3725  TIP3      H2             39.8422933595        1.0307477139      -28.5746696465  W2        3725            0.0000000000
     11176      3726  TIP3      OH2            40.3577533595       -0.2168822861      -27.3526696465  W2        3726            0.0000000000
     11177      3726  TIP3      H1             40.0234333595       -1.0971522861      -27.1806496465  W2        3726            0.0000000000
     11178      3726  TIP3      H2             40.5799933595        0.1286177139      -26.4881096465  W2        3726            0.0000000000
     11179      3727  TIP3      OH2            40.4377033595       -7.1413422861      -24.9011796465  W2        3727            0.0000000000
     11180      3727  TIP3      H1             40.6219933595       -7.2231722861      -25.8368896465  W2        3727            0.0000000000
     11181      3727  TIP3      H2             41.2869933595       -7.2656422861      -24.4775396465  W2        3727            0.0000000000
     11182      3728  TIP3      OH2            40.0351833595      -11.8708422861      -18.7602996465  W2        3728            0.0000000000
     11183      3728  TIP3      H1             40.9546733595      -11.9930122861      -18.5239896465  W2        3728            0.0000000000
     11184      3728  TIP3      H2             39.5856333595      -12.6208722861      -18.3709496465  W2        3728            0.0000000000
     11185      3729  TIP3      OH2            41.2564333595      -13.5586822861      -25.8690096465  W2        3729            0.0000000000
     11186      3729  TIP3      H1             41.7015933595      -14.3504322861      -25.5670396465  W2        3729            0.0000000000
     11187      3729  TIP3      H2             41.7227333595      -12.8421622861      -25.4384496465  W2        3729            0.0000000000
     11188      3730  TIP3      OH2            39.5604633595      -10.5593822861      -24.7999896465  W2        3730            0.0000000000
     11189      3730  TIP3      H1             40.0524433595      -10.7803322861      -25.5907896465  W2        3730            0.0000000000
     11190      3730  TIP3      H2             39.9225533595       -9.7190422861      -24.5190396465  W2        3730            0.0000000000
     11191      3731  TIP3      OH2            39.8741133595      -14.3014722861      -30.7457496465  W2        3731            0.0000000000
     11192      3731  TIP3      H1             38.9489533595      -14.0928122861      -30.8751996465  W2        3731            0.0000000000
     11193      3731  TIP3      H2             40.3281033595      -13.8173922861      -31.4355196465  W2        3731            0.0000000000
     11194      3732  TIP3      OH2            54.6448333595        0.6826977139      -28.8000096465  W2        3732            0.0000000000
     11195      3732  TIP3      H1             55.2971233595        0.3349077139      -29.4080996465  W2        3732            0.0000000000
     11196      3732  TIP3      H2             55.1552133595        1.1710177139      -28.1540396465  W2        3732            0.0000000000
     11197      3733  TIP3      OH2            39.8376533595      -15.5635722861      -22.4014996465  W2        3733            0.0000000000
     11198      3733  TIP3      H1             39.1727033595      -15.8095422861      -21.7584096465  W2        3733            0.0000000000
     11199      3733  TIP3      H2             39.3947833595      -14.9415322861      -22.9786996465  W2        3733            0.0000000000
     11200      3734  TIP3      OH2            42.0295833595       -2.3881622861      -18.2569196465  W2        3734            0.0000000000
     11201      3734  TIP3      H1             41.2088333595       -2.2135122861      -18.7174496465  W2        3734            0.0000000000
     11202      3734  TIP3      H2             41.7773633595       -2.4616922861      -17.3364796465  W2        3734            0.0000000000
     11203      3735  TIP3      OH2            44.9838733595       -1.4140422861      -21.9985196465  W2        3735            0.0000000000
     11204      3735  TIP3      H1             44.5589833595       -0.6041922861      -22.2810596465  W2        3735            0.0000000000
     11205      3735  TIP3      H2             45.8881533595       -1.3286322861      -22.3005396465  W2        3735            0.0000000000
     11206      3736  TIP3      OH2            49.2950133595       -0.0150422861      -19.0391496465  W2        3736            0.0000000000
     11207      3736  TIP3      H1             49.4797633595       -0.3484322861      -18.1611196465  W2        3736            0.0000000000
     11208      3736  TIP3      H2             50.1414633595        0.2948177139      -19.3612296465  W2        3736            0.0000000000
     11209      3737  TIP3      OH2            51.6400533595        1.2708477139      -19.7950096465  W2        3737            0.0000000000
     11210      3737  TIP3      H1             52.3169433595        0.6380777139      -20.0350896465  W2        3737            0.0000000000
     11211      3737  TIP3      H2             51.9619333595        1.6718977139      -18.9876796465  W2        3737            0.0000000000
     11212      3738  TIP3      OH2            42.3855433595        1.8423477139      -21.9509896465  W2        3738            0.0000000000
     11213      3738  TIP3      H1             41.6651833595        2.2824477139      -22.4022196465  W2        3738            0.0000000000
     11214      3738  TIP3      H2             42.0199433595        1.5918177139      -21.1025896465  W2        3738            0.0000000000
     11215      3739  TIP3      OH2            44.8528033595        1.4427377139      -22.9212696465  W2        3739            0.0000000000
     11216      3739  TIP3      H1             43.9880233595        1.5145877139      -22.5172596465  W2        3739            0.0000000000
     11217      3739  TIP3      H2             44.7977033595        1.9894677139      -23.7050196465  W2        3739            0.0000000000
     11218      3740  TIP3      OH2            49.5633633595        1.3306277139      -23.7456696465  W2        3740            0.0000000000
     11219      3740  TIP3      H1             49.1067633595        1.8595977139      -24.3998296465  W2        3740            0.0000000000
     11220      3740  TIP3      H2             49.7261633595        1.9337677139      -23.0204396465  W2        3740            0.0000000000
     11221      3741  TIP3      OH2            51.8909933595        0.2085877139      -22.8006396465  W2        3741            0.0000000000
     11222      3741  TIP3      H1             50.9863633595        0.3736077139      -23.0664296465  W2        3741            0.0000000000
     11223      3741  TIP3      H2             52.3198533595        1.0618077139      -22.8662996465  W2        3741            0.0000000000
     11224      3742  TIP3      OH2            54.4951833595        1.7784977139      -22.5058596465  W2        3742            0.0000000000
     11225      3742  TIP3      H1             54.3133833595        2.6943877139      -22.7163696465  W2        3742            0.0000000000
     11226      3742  TIP3      H2             54.6719633595        1.3682077139      -23.3523996465  W2        3742            0.0000000000
     11227      3743  TIP3      OH2            41.8003533595        0.4655977139      -25.0408096465  W2        3743            0.0000000000
     11228      3743  TIP3      H1             41.7819533595        0.0401077139      -24.1835796465  W2        3743            0.0000000000
     11229      3743  TIP3      H2             42.6051433595        0.1470977139      -25.4495896465  W2        3743            0.0000000000
     11230      3744  TIP3      OH2            43.9416633595       -0.8245322861      -26.3858196465  W2        3744            0.0000000000
     11231      3744  TIP3      H1             43.7227333595       -1.7407922861      -26.2162196465  W2        3744            0.0000000000
     11232      3744  TIP3      H2             44.7658833595       -0.6844922861      -25.9196796465  W2        3744            0.0000000000
     11233      3745  TIP3      OH2            46.4789133595       -0.3546022861      -25.5370196465  W2        3745            0.0000000000
     11234      3745  TIP3      H1             46.6914833595       -1.2427022861      -25.8239296465  W2        3745            0.0000000000
     11235      3745  TIP3      H2             46.5434233595       -0.3888322861      -24.5826196465  W2        3745            0.0000000000
     11236      3746  TIP3      OH2            49.9872833595      -14.6905422861      -26.3926896465  W2        3746            0.0000000000
     11237      3746  TIP3      H1             49.3129633595      -15.3199822861      -26.1371096465  W2        3746            0.0000000000
     11238      3746  TIP3      H2             50.5512033595      -15.1746522861      -26.9958996465  W2        3746            0.0000000000
     11239      3747  TIP3      OH2            42.3140333595      -16.0565122861      -28.5706996465  W2        3747            0.0000000000
     11240      3747  TIP3      H1             41.5370133595      -16.2910222861      -29.0781096465  W2        3747            0.0000000000
     11241      3747  TIP3      H2             42.8443933595      -16.8533022861      -28.5618996465  W2        3747            0.0000000000
     11242      3748  TIP3      OH2            41.1503733595      -16.2587022861      -32.7670896465  W2        3748            0.0000000000
     11243      3748  TIP3      H1             41.5894433595      -15.6476522861      -33.3587396465  W2        3748            0.0000000000
     11244      3748  TIP3      H2             40.5166133595      -15.7202922861      -32.2930896465  W2        3748            0.0000000000
     11245      3749  TIP3      OH2            46.8932933595      -16.1298022861      -28.7573896465  W2        3749            0.0000000000
     11246      3749  TIP3      H1             47.7676333595      -15.7413722861      -28.7869596465  W2        3749            0.0000000000
     11247      3749  TIP3      H2             46.7573733595      -16.3450222861      -27.8346696465  W2        3749            0.0000000000
     11248      3750  TIP3      OH2            52.4501333595      -16.0998222861      -27.1082196465  W2        3750            0.0000000000
     11249      3750  TIP3      H1             52.5262933595      -16.0046622861      -28.0576196465  W2        3750            0.0000000000
     11250      3750  TIP3      H2             52.1750533595      -17.0075322861      -26.9793096465  W2        3750            0.0000000000
     11251      3751  TIP3      OH2            53.8033933595      -16.0740422861      -31.4157196465  W2        3751            0.0000000000
     11252      3751  TIP3      H1             53.1005033595      -15.4591222861      -31.6255796465  W2        3751            0.0000000000
     11253      3751  TIP3      H2             53.3585333595      -16.9113722861      -31.2846296465  W2        3751            0.0000000000
     11254      3752  TIP3      OH2            41.0513233595       -0.3104822861      -31.8695796465  W2        3752            0.0000000000
     11255      3752  TIP3      H1             40.3663133595       -0.3485922861      -32.5370696465  W2        3752            0.0000000000
     11256      3752  TIP3      H2             41.0550433595        0.6022777139      -31.5813696465  W2        3752            0.0000000000
     11257      3753  TIP3      OH2            43.0112833595      -14.3425522861      -34.3246796465  W2        3753            0.0000000000
     11258      3753  TIP3      H1             43.5026233595      -14.9723122861      -34.8521296465  W2        3753            0.0000000000
     11259      3753  TIP3      H2             43.6349133595      -14.0466122861      -33.6615596465  W2        3753            0.0000000000
     11260      3754  TIP3      OH2            48.0372933595      -14.0494022861      -31.8676296465  W2        3754            0.0000000000
     11261      3754  TIP3      H1             48.2154233595      -14.6960822861      -31.1847696465  W2        3754            0.0000000000
     11262      3754  TIP3      H2             47.9839133595      -13.2156322861      -31.4005196465  W2        3754            0.0000000000
     11263      3755  TIP3      OH2            49.9156733595        0.8990077139      -33.4719596465  W2        3755            0.0000000000
     11264      3755  TIP3      H1             50.7816933595        1.2657477139      -33.6501396465  W2        3755            0.0000000000
     11265      3755  TIP3      H2             49.6689533595        0.4598077139      -34.2858796465  W2        3755            0.0000000000
     11266      3756  TIP3      OH2            42.2718333595      -15.5423222861      -19.0530796465  W2        3756            0.0000000000
     11267      3756  TIP3      H1             41.9056533595      -16.3080622861      -18.6106096465  W2        3756            0.0000000000
     11268      3756  TIP3      H2             43.1846833595      -15.5133022861      -18.7665696465  W2        3756            0.0000000000
     11269      3757  TIP3      OH2            44.2449133595      -16.1918822861      -17.5173696465  W2        3757            0.0000000000
     11270      3757  TIP3      H1             45.1432733595      -16.4658622861      -17.7020296465  W2        3757            0.0000000000
     11271      3757  TIP3      H2             43.8582233595      -16.9342822861      -17.0531096465  W2        3757            0.0000000000
     11272      3758  TIP3      OH2            42.8694433595        0.6095977139      -34.8443696465  W2        3758            0.0000000000
     11273      3758  TIP3      H1             42.6019033595        0.8958877139      -33.9710596465  W2        3758            0.0000000000
     11274      3758  TIP3      H2             43.6407033595        0.0635177139      -34.6921196465  W2        3758            0.0000000000
     11275      3759  TIP3      OH2            52.6661433595      -16.8593522861      -17.3350896465  W2        3759            0.0000000000
     11276      3759  TIP3      H1             52.7428633595      -17.2852822861      -16.4813196465  W2        3759            0.0000000000
     11277      3759  TIP3      H2             53.5598033595      -16.8458822861      -17.6777396465  W2        3759            0.0000000000
     11278      3760  TIP3      OH2           -42.8877066405       11.9557177139      -28.6119496465  W2        3760            0.0000000000
     11279      3760  TIP3      H1            -42.7985966405       12.8995377139      -28.7442396465  W2        3760            0.0000000000
     11280      3760  TIP3      H2            -43.5259466405       11.6803577139      -29.2700096465  W2        3760            0.0000000000
     11281      3761  TIP3      OH2           -43.9545766405       11.2107877139      -25.1931296465  W2        3761            0.0000000000
     11282      3761  TIP3      H1            -43.9928266405       10.5644177139      -24.4881696465  W2        3761            0.0000000000
     11283      3761  TIP3      H2            -44.2769266405       10.7442277139      -25.9642596465  W2        3761            0.0000000000
     11284      3762  TIP3      OH2           -51.5860766405       10.8249977139      -23.6001396465  W2        3762            0.0000000000
     11285      3762  TIP3      H1            -51.5448666405       10.1993277139      -22.8768996465  W2        3762            0.0000000000
     11286      3762  TIP3      H2            -50.8833066405       11.4488577139      -23.4180996465  W2        3762            0.0000000000
     11287      3763  TIP3      OH2           -40.2485566405       14.1498277139      -26.8916196465  W2        3763            0.0000000000
     11288      3763  TIP3      H1            -40.6892866405       13.4294277139      -26.4410596465  W2        3763            0.0000000000
     11289      3763  TIP3      H2            -40.2615866405       14.8705477139      -26.2618496465  W2        3763            0.0000000000
     11290      3764  TIP3      OH2           -50.6627666405       15.2748877139      -25.0652296465  W2        3764            0.0000000000
     11291      3764  TIP3      H1            -51.0322466405       14.4729377139      -25.4347996465  W2        3764            0.0000000000
     11292      3764  TIP3      H2            -49.7216566405       15.1063777139      -25.0188896465  W2        3764            0.0000000000
     11293      3765  TIP3      OH2           -54.0527166405        8.9351477139      -29.6723496465  W2        3765            0.0000000000
     11294      3765  TIP3      H1            -54.5003766405        9.7810177139      -29.6906996465  W2        3765            0.0000000000
     11295      3765  TIP3      H2            -54.6135966405        8.3555677139      -30.1878396465  W2        3765            0.0000000000
     11296      3766  TIP3      OH2           -53.3421066405       11.0971077139      -27.5465496465  W2        3766            0.0000000000
     11297      3766  TIP3      H1            -53.1287566405       10.3272677139      -27.0192496465  W2        3766            0.0000000000
     11298      3766  TIP3      H2            -52.6043466405       11.1867777139      -28.1497896465  W2        3766            0.0000000000
     11299      3767  TIP3      OH2           -43.1370066405       19.2539977139      -26.6795796465  W2        3767            0.0000000000
     11300      3767  TIP3      H1            -42.5173666405       18.5774677139      -26.9526596465  W2        3767            0.0000000000
     11301      3767  TIP3      H2            -43.3452666405       19.0360777139      -25.7710896465  W2        3767            0.0000000000
     11302      3768  TIP3      OH2           -45.5651366405       13.6429277139      -24.7870296465  W2        3768            0.0000000000
     11303      3768  TIP3      H1            -45.2613466405       12.9570677139      -25.3816196465  W2        3768            0.0000000000
     11304      3768  TIP3      H2            -44.8437366405       13.7617977139      -24.1692296465  W2        3768            0.0000000000
     11305      3769  TIP3      OH2           -36.9021566405        5.2444577139      -23.9264096465  W2        3769            0.0000000000
     11306      3769  TIP3      H1            -36.8529366405        5.8545777139      -23.1904996465  W2        3769            0.0000000000
     11307      3769  TIP3      H2            -36.4766466405        5.7055477139      -24.6492996465  W2        3769            0.0000000000
     11308      3770  TIP3      OH2           -42.4244366405        8.0371677139      -24.4595496465  W2        3770            0.0000000000
     11309      3770  TIP3      H1            -42.2818466405        7.0908677139      -24.4393896465  W2        3770            0.0000000000
     11310      3770  TIP3      H2            -42.5305366405        8.2441477139      -25.3880596465  W2        3770            0.0000000000
     11311      3771  TIP3      OH2           -49.2696066405        6.1388077139      -27.1870696465  W2        3771            0.0000000000
     11312      3771  TIP3      H1            -49.2264966405        6.9986577139      -27.6054396465  W2        3771            0.0000000000
     11313      3771  TIP3      H2            -49.7271966405        5.5862777139      -27.8207496465  W2        3771            0.0000000000
     11314      3772  TIP3      OH2           -41.5473366405        6.2693677139      -28.7862396465  W2        3772            0.0000000000
     11315      3772  TIP3      H1            -40.9009066405        5.9406877139      -28.1614796465  W2        3772            0.0000000000
     11316      3772  TIP3      H2            -41.0373966405        6.7872677139      -29.4090996465  W2        3772            0.0000000000
     11317      3773  TIP3      OH2           -52.6494566405        8.5353877139      -26.4249296465  W2        3773            0.0000000000
     11318      3773  TIP3      H1            -51.9957966405        7.9855577139      -25.9929196465  W2        3773            0.0000000000
     11319      3773  TIP3      H2            -52.6255266405        8.2612877139      -27.3417296465  W2        3773            0.0000000000
     11320      3774  TIP3      OH2           -47.4930066405       10.0855177139      -27.2097796465  W2        3774            0.0000000000
     11321      3774  TIP3      H1            -46.8769066405        9.5590577139      -26.7003796465  W2        3774            0.0000000000
     11322      3774  TIP3      H2            -48.0791266405        9.4453877139      -27.6134196465  W2        3774            0.0000000000
     11323      3775  TIP3      OH2           -36.5106966405        6.7223777139      -21.6904296465  W2        3775            0.0000000000
     11324      3775  TIP3      H1            -37.1992366405        7.3804477139      -21.7857696465  W2        3775            0.0000000000
     11325      3775  TIP3      H2            -36.4952366405        6.5251677139      -20.7538896465  W2        3775            0.0000000000
     11326      3776  TIP3      OH2           -50.4594166405        5.0566477139      -23.1129896465  W2        3776            0.0000000000
     11327      3776  TIP3      H1            -50.6782466405        5.5867077139      -23.8793896465  W2        3776            0.0000000000
     11328      3776  TIP3      H2            -51.1273266405        5.2831977139      -22.4658496465  W2        3776            0.0000000000
     11329      3777  TIP3      OH2           -43.0904366405       14.5567577139      -29.5690796465  W2        3777            0.0000000000
     11330      3777  TIP3      H1            -43.3859266405       14.2339877139      -30.4203896465  W2        3777            0.0000000000
     11331      3777  TIP3      H2            -43.4146566405       15.4564277139      -29.5278196465  W2        3777            0.0000000000
     11332      3778  TIP3      OH2           -47.8902766405       12.7322177139      -22.8256196465  W2        3778            0.0000000000
     11333      3778  TIP3      H1            -48.6303666405       13.3303677139      -22.7220996465  W2        3778            0.0000000000
     11334      3778  TIP3      H2            -47.1763266405       13.2861777139      -23.1412596465  W2        3778            0.0000000000
     11335      3779  TIP3      OH2           -39.7834966405        5.5602977139      -26.8056496465  W2        3779            0.0000000000
     11336      3779  TIP3      H1            -39.9986966405        4.7946377139      -26.2730496465  W2        3779            0.0000000000
     11337      3779  TIP3      H2            -39.1277566405        6.0327577139      -26.2927996465  W2        3779            0.0000000000
     11338      3780  TIP3      OH2           -50.8656866405        6.9488277139      -25.1607696465  W2        3780            0.0000000000
     11339      3780  TIP3      H1            -50.2520566405        7.5815877139      -24.7875296465  W2        3780            0.0000000000
     11340      3780  TIP3      H2            -50.3536166405        6.4763277139      -25.8170796465  W2        3780            0.0000000000
     11341      3781  TIP3      OH2           -49.4828466405       14.6965177139      -22.0384696465  W2        3781            0.0000000000
     11342      3781  TIP3      H1            -49.4880866405       15.5758677139      -22.4165396465  W2        3781            0.0000000000
     11343      3781  TIP3      H2            -50.3364366405       14.6129277139      -21.6134796465  W2        3781            0.0000000000
     11344      3782  TIP3      OH2           -53.3617566405       14.3673077139      -31.2565396465  W2        3782            0.0000000000
     11345      3782  TIP3      H1            -53.6336666405       14.5964077139      -32.1452496465  W2        3782            0.0000000000
     11346      3782  TIP3      H2            -53.3161866405       15.2051877139      -30.7960096465  W2        3782            0.0000000000
     11347      3783  TIP3      OH2           -39.7367866405       15.9888977139      -24.5436896465  W2        3783            0.0000000000
     11348      3783  TIP3      H1            -40.6784166405       16.0472877139      -24.3819996465  W2        3783            0.0000000000
     11349      3783  TIP3      H2            -39.4601766405       16.8949477139      -24.6807196465  W2        3783            0.0000000000
     11350      3784  TIP3      OH2           -39.4360866405        4.2754277139      -23.1262996465  W2        3784            0.0000000000
     11351      3784  TIP3      H1            -40.1721666405        4.8861377139      -23.1641696465  W2        3784            0.0000000000
     11352      3784  TIP3      H2            -38.7526866405        4.6903277139      -23.6526596465  W2        3784            0.0000000000
     11353      3785  TIP3      OH2           -46.4329466405        2.3621577139      -25.6604996465  W2        3785            0.0000000000
     11354      3785  TIP3      H1            -46.5505266405        1.4137577139      -25.7146696465  W2        3785            0.0000000000
     11355      3785  TIP3      H2            -47.2879366405        2.6947677139      -25.3873896465  W2        3785            0.0000000000
     11356      3786  TIP3      OH2           -41.4846666405       17.7702477139      -27.9185296465  W2        3786            0.0000000000
     11357      3786  TIP3      H1            -41.0594366405       17.0630377139      -28.4035696465  W2        3786            0.0000000000
     11358      3786  TIP3      H2            -41.1676666405       18.5715177139      -28.3353096465  W2        3786            0.0000000000
     11359      3787  TIP3      OH2           -40.3250166405       15.6710977139      -29.4098696465  W2        3787            0.0000000000
     11360      3787  TIP3      H1            -40.5825366405       14.9811077139      -30.0212796465  W2        3787            0.0000000000
     11361      3787  TIP3      H2            -40.2539366405       15.2282177139      -28.5642796465  W2        3787            0.0000000000
     11362      3788  TIP3      OH2           -38.6389966405       14.2377677139      -20.9325196465  W2        3788            0.0000000000
     11363      3788  TIP3      H1            -38.4993666405       13.6460177139      -21.6718196465  W2        3788            0.0000000000
     11364      3788  TIP3      H2            -38.4717166405       15.1103577139      -21.2886396465  W2        3788            0.0000000000
     11365      3789  TIP3      OH2           -44.1664566405       11.1997177139      -31.1599196465  W2        3789            0.0000000000
     11366      3789  TIP3      H1            -44.8779066405       11.7346877139      -31.5118696465  W2        3789            0.0000000000
     11367      3789  TIP3      H2            -43.4754966405       11.2549277139      -31.8200296465  W2        3789            0.0000000000
     11368      3790  TIP3      OH2           -44.1125366405        9.6571477139      -34.1214196465  W2        3790            0.0000000000
     11369      3790  TIP3      H1            -43.4115466405        9.6798377139      -33.4700196465  W2        3790            0.0000000000
     11370      3790  TIP3      H2            -43.8102466405        9.0291177139      -34.7774896465  W2        3790            0.0000000000
     11371      3791  TIP3      OH2           -36.7970666405       10.5775677139      -22.8664796465  W2        3791            0.0000000000
     11372      3791  TIP3      H1            -37.4496566405       11.2721277139      -22.7773896465  W2        3791            0.0000000000
     11373      3791  TIP3      H2            -36.3320366405       10.7876577139      -23.6763196465  W2        3791            0.0000000000
     11374      3792  TIP3      OH2           -40.7606866405       11.4090477139      -30.2083296465  W2        3792            0.0000000000
     11375      3792  TIP3      H1            -41.4925866405       11.6374177139      -29.6352696465  W2        3792            0.0000000000
     11376      3792  TIP3      H2            -40.3134666405       10.6953177139      -29.7535796465  W2        3792            0.0000000000
     11377      3793  TIP3      OH2           -40.8633366405        9.5833077139      -21.1406296465  W2        3793            0.0000000000
     11378      3793  TIP3      H1            -40.7834266405       10.3467477139      -20.5687796465  W2        3793            0.0000000000
     11379      3793  TIP3      H2            -41.4645666405        9.8625477139      -21.8311196465  W2        3793            0.0000000000
     11380      3794  TIP3      OH2           -49.1153166405       12.0396677139      -28.3258296465  W2        3794            0.0000000000
     11381      3794  TIP3      H1            -49.4457966405       11.6690077139      -29.1441296465  W2        3794            0.0000000000
     11382      3794  TIP3      H2            -48.5269066405       11.3690677139      -27.9789996465  W2        3794            0.0000000000
     11383      3795  TIP3      OH2           -47.7485666405       15.4677277139      -25.6446096465  W2        3795            0.0000000000
     11384      3795  TIP3      H1            -47.8434366405       14.8890377139      -26.4011496465  W2        3795            0.0000000000
     11385      3795  TIP3      H2            -47.0192066405       15.0962977139      -25.1483296465  W2        3795            0.0000000000
     11386      3796  TIP3      OH2           -48.7487666405       10.8082277139      -24.6923296465  W2        3796            0.0000000000
     11387      3796  TIP3      H1            -48.1835166405       10.9296477139      -25.4552096465  W2        3796            0.0000000000
     11388      3796  TIP3      H2            -48.4298766405       11.4457277139      -24.0534796465  W2        3796            0.0000000000
     11389      3797  TIP3      OH2           -42.4395466405       16.3114177139      -23.9582796465  W2        3797            0.0000000000
     11390      3797  TIP3      H1            -42.6798866405       16.9737277139      -23.3103596465  W2        3797            0.0000000000
     11391      3797  TIP3      H2            -42.6377266405       15.4769377139      -23.5333196465  W2        3797            0.0000000000
     11392      3798  TIP3      OH2           -47.8686966405       15.2074977139      -19.9751396465  W2        3798            0.0000000000
     11393      3798  TIP3      H1            -48.1799466405       15.9898177139      -19.5198196465  W2        3798            0.0000000000
     11394      3798  TIP3      H2            -48.5186766405       15.0544077139      -20.6609396465  W2        3798            0.0000000000
     11395      3799  TIP3      OH2           -41.8897366405       10.5713377139      -32.5232096465  W2        3799            0.0000000000
     11396      3799  TIP3      H1            -41.3101866405       10.7213677139      -31.7763196465  W2        3799            0.0000000000
     11397      3799  TIP3      H2            -41.4757366405       11.0420777139      -33.2465696465  W2        3799            0.0000000000
     11398      3800  TIP3      OH2           -50.9487066405       11.4056077139      -20.7465696465  W2        3800            0.0000000000
     11399      3800  TIP3      H1            -50.8783866405       12.0562877139      -20.0480696465  W2        3800            0.0000000000
     11400      3800  TIP3      H2            -51.8394866405       11.5083577139      -21.0814796465  W2        3800            0.0000000000
     11401      3801  TIP3      OH2           -44.1632466405       17.3081877139      -29.0878996465  W2        3801            0.0000000000
     11402      3801  TIP3      H1            -43.6894866405       17.6038177139      -28.3104796465  W2        3801            0.0000000000
     11403      3801  TIP3      H2            -44.7263166405       18.0463477139      -29.3209396465  W2        3801            0.0000000000
     11404      3802  TIP3      OH2           -49.6291066405       17.2789977139      -19.2117596465  W2        3802            0.0000000000
     11405      3802  TIP3      H1            -49.6215766405       17.1429677139      -20.1592096465  W2        3802            0.0000000000
     11406      3802  TIP3      H2            -50.5450666405       17.1618077139      -18.9597596465  W2        3802            0.0000000000
     11407      3803  TIP3      OH2           -38.1908966405        2.3213777139      -32.7102396465  W2        3803            0.0000000000
     11408      3803  TIP3      H1            -39.0908266405        2.4602777139      -32.4151796465  W2        3803            0.0000000000
     11409      3803  TIP3      H2            -37.9390566405        3.1528377139      -33.1120696465  W2        3803            0.0000000000
     11410      3804  TIP3      OH2           -50.1250466405       11.1090977139      -30.7365496465  W2        3804            0.0000000000
     11411      3804  TIP3      H1            -50.4169166405       11.8772677139      -31.2274196465  W2        3804            0.0000000000
     11412      3804  TIP3      H2            -50.7995266405       10.4497177139      -30.8994096465  W2        3804            0.0000000000
     11413      3805  TIP3      OH2           -37.0017566405       16.6876177139      -34.3338496465  W2        3805            0.0000000000
     11414      3805  TIP3      H1            -36.9284066405       17.6266377139      -34.1633196465  W2        3805            0.0000000000
     11415      3805  TIP3      H2            -36.0962466405       16.3824777139      -34.3901196465  W2        3805            0.0000000000
     11416      3806  TIP3      OH2           -54.0320366405       13.4720177139      -21.9215696465  W2        3806            0.0000000000
     11417      3806  TIP3      H1            -54.5331966405       13.4439577139      -22.7365996465  W2        3806            0.0000000000
     11418      3806  TIP3      H2            -54.0266666405       12.5663377139      -21.6118396465  W2        3806            0.0000000000
     11419      3807  TIP3      OH2           -54.2817666405       16.2523977139      -25.0375496465  W2        3807            0.0000000000
     11420      3807  TIP3      H1            -53.3357066405       16.1080977139      -25.0565996465  W2        3807            0.0000000000
     11421      3807  TIP3      H2            -54.3941366405       17.0366777139      -24.5004296465  W2        3807            0.0000000000
     11422      3808  TIP3      OH2           -36.0839166405       16.9183677139      -19.3551796465  W2        3808            0.0000000000
     11423      3808  TIP3      H1            -36.1332366405       15.9631777139      -19.3924196465  W2        3808            0.0000000000
     11424      3808  TIP3      H2            -36.9106866405       17.1858977139      -18.9537996465  W2        3808            0.0000000000
     11425      3809  TIP3      OH2           -45.1055166405       16.4922877139      -20.4790396465  W2        3809            0.0000000000
     11426      3809  TIP3      H1            -45.0180566405       17.3187477139      -20.0041296465  W2        3809            0.0000000000
     11427      3809  TIP3      H2            -45.9690066405       16.1626677139      -20.2301096465  W2        3809            0.0000000000
     11428      3810  TIP3      OH2           -44.6909366405       20.2646577139      -30.6729796465  W2        3810            0.0000000000
     11429      3810  TIP3      H1            -44.7663366405       20.1433777139      -31.6194596465  W2        3810            0.0000000000
     11430      3810  TIP3      H2            -44.6580666405       21.2139277139      -30.5545196465  W2        3810            0.0000000000
     11431      3811  TIP3      OH2           -51.0375566405       19.0533577139      -28.8920796465  W2        3811            0.0000000000
     11432      3811  TIP3      H1            -50.8855166405       18.7053977139      -28.0134296465  W2        3811            0.0000000000
     11433      3811  TIP3      H2            -51.8885166405       18.6970877139      -29.1473596465  W2        3811            0.0000000000
     11434      3812  TIP3      OH2           -41.5893366405       19.4186777139      -33.6707396465  W2        3812            0.0000000000
     11435      3812  TIP3      H1            -41.2144966405       18.6742877139      -34.1414796465  W2        3812            0.0000000000
     11436      3812  TIP3      H2            -41.5849666405       19.1487377139      -32.7524096465  W2        3812            0.0000000000
     11437      3813  TIP3      OH2           -41.9205266405       19.3443877139      -30.9215196465  W2        3813            0.0000000000
     11438      3813  TIP3      H1            -42.8555466405       19.4445777139      -30.7428196465  W2        3813            0.0000000000
     11439      3813  TIP3      H2            -41.6403366405       18.6349877139      -30.3431996465  W2        3813            0.0000000000
     11440      3814  TIP3      OH2           -38.9319366405        8.4116177139      -18.8749596465  W2        3814            0.0000000000
     11441      3814  TIP3      H1            -39.3392566405        8.8921777139      -19.5956296465  W2        3814            0.0000000000
     11442      3814  TIP3      H2            -38.8913666405        7.5062177139      -19.1828796465  W2        3814            0.0000000000
     11443      3815  TIP3      OH2           -51.7829866405       14.7955577139      -20.8782896465  W2        3815            0.0000000000
     11444      3815  TIP3      H1            -51.5668566405       14.4341177139      -20.0187096465  W2        3815            0.0000000000
     11445      3815  TIP3      H2            -52.6385166405       14.4209377139      -21.0879396465  W2        3815            0.0000000000
     11446      3816  TIP3      OH2           -49.1641866405        3.2656077139      -24.8828696465  W2        3816            0.0000000000
     11447      3816  TIP3      H1            -50.0258166405        3.1784277139      -25.2905796465  W2        3816            0.0000000000
     11448      3816  TIP3      H2            -49.1866166405        4.1216177139      -24.4551096465  W2        3816            0.0000000000
     11449      3817  TIP3      OH2           -44.5014066405        2.9876477139      -21.5081696465  W2        3817            0.0000000000
     11450      3817  TIP3      H1            -44.0810966405        2.5723577139      -20.7551096465  W2        3817            0.0000000000
     11451      3817  TIP3      H2            -45.4344466405        2.8089777139      -21.3909696465  W2        3817            0.0000000000
     11452      3818  TIP3      OH2           -41.1749166405        6.7431677139      -20.6547196465  W2        3818            0.0000000000
     11453      3818  TIP3      H1            -41.6889666405        6.6173877139      -19.8571196465  W2        3818            0.0000000000
     11454      3818  TIP3      H2            -41.3304466405        7.6554777139      -20.8990996465  W2        3818            0.0000000000
     11455      3819  TIP3      OH2           -40.4124266405       11.6041677139      -34.8934196465  W2        3819            0.0000000000
     11456      3819  TIP3      H1            -40.3703466405       11.3815577139      -35.8234196465  W2        3819            0.0000000000
     11457      3819  TIP3      H2            -39.5632166405       12.0028777139      -34.7034296465  W2        3819            0.0000000000
     11458      3820  TIP3      OH2           -44.8396766405        5.4799877139      -34.2230896465  W2        3820            0.0000000000
     11459      3820  TIP3      H1            -45.0931966405        5.4991477139      -33.3002796465  W2        3820            0.0000000000
     11460      3820  TIP3      H2            -45.0964666405        4.6085277139      -34.5244696465  W2        3820            0.0000000000
     11461      3821  TIP3      OH2           -49.0731766405        8.2310577139      -23.7878496465  W2        3821            0.0000000000
     11462      3821  TIP3      H1            -49.7149666405        8.1907877139      -23.0788396465  W2        3821            0.0000000000
     11463      3821  TIP3      H2            -49.0359766405        9.1575277139      -24.0255496465  W2        3821            0.0000000000
     11464      3822  TIP3      OH2           -49.0762666405        8.4520677139      -28.8758496465  W2        3822            0.0000000000
     11465      3822  TIP3      H1            -49.9689766405        8.1116777139      -28.9344696465  W2        3822            0.0000000000
     11466      3822  TIP3      H2            -48.6256066405        8.0751577139      -29.6315296465  W2        3822            0.0000000000
     11467      3823  TIP3      OH2           -43.5407166405        8.8680977139      -30.0587696465  W2        3823            0.0000000000
     11468      3823  TIP3      H1            -43.9496866405        9.6829577139      -30.3502896465  W2        3823            0.0000000000
     11469      3823  TIP3      H2            -42.8200966405        8.7281077139      -30.6730596465  W2        3823            0.0000000000
     11470      3824  TIP3      OH2           -44.4385566405        9.0437377139      -18.5706996465  W2        3824            0.0000000000
     11471      3824  TIP3      H1            -45.0011766405        8.3388977139      -18.2499196465  W2        3824            0.0000000000
     11472      3824  TIP3      H2            -43.6122166405        8.9229277139      -18.1029396465  W2        3824            0.0000000000
     11473      3825  TIP3      OH2           -42.5359466405        8.3141377139      -27.2447996465  W2        3825            0.0000000000
     11474      3825  TIP3      H1            -42.7314966405        8.9198177139      -27.9597396465  W2        3825            0.0000000000
     11475      3825  TIP3      H2            -42.3546866405        7.4806577139      -27.6791696465  W2        3825            0.0000000000
     11476      3826  TIP3      OH2           -51.3231266405        8.5514077139      -21.9206496465  W2        3826            0.0000000000
     11477      3826  TIP3      H1            -51.3611866405        8.9515677139      -21.0519396465  W2        3826            0.0000000000
     11478      3826  TIP3      H2            -51.8140166405        7.7346477139      -21.8303596465  W2        3826            0.0000000000
     11479      3827  TIP3      OH2           -47.9573866405        5.9256377139      -35.1220496465  W2        3827            0.0000000000
     11480      3827  TIP3      H1            -48.3883166405        5.4806477139      -34.3923096465  W2        3827            0.0000000000
     11481      3827  TIP3      H2            -48.6755166405        6.2972677139      -35.6342996465  W2        3827            0.0000000000
     11482      3828  TIP3      OH2           -54.7150466405        5.6675877139      -28.0701796465  W2        3828            0.0000000000
     11483      3828  TIP3      H1            -54.0842766405        5.6387977139      -27.3507896465  W2        3828            0.0000000000
     11484      3828  TIP3      H2            -54.2656166405        5.2424577139      -28.8005896465  W2        3828            0.0000000000
     11485      3829  TIP3      OH2           -53.4408366405        6.4137877139      -32.6461396465  W2        3829            0.0000000000
     11486      3829  TIP3      H1            -52.9666666405        7.0047777139      -33.2310496465  W2        3829            0.0000000000
     11487      3829  TIP3      H2            -54.1581966405        6.9440777139      -32.2991296465  W2        3829            0.0000000000
     11488      3830  TIP3      OH2           -43.2720266405        9.9522677139      -22.5735596465  W2        3830            0.0000000000
     11489      3830  TIP3      H1            -42.9485466405        9.3212377139      -23.2165096465  W2        3830            0.0000000000
     11490      3830  TIP3      H2            -43.7120966405        9.4174877139      -21.9128196465  W2        3830            0.0000000000
     11491      3831  TIP3      OH2           -46.4947366405        5.8798177139      -27.7894396465  W2        3831            0.0000000000
     11492      3831  TIP3      H1            -47.4056266405        5.9364977139      -27.5008396465  W2        3831            0.0000000000
     11493      3831  TIP3      H2            -45.9894466405        5.8193677139      -26.9787196465  W2        3831            0.0000000000
     11494      3832  TIP3      OH2           -51.6663966405        7.5084477139      -28.9626796465  W2        3832            0.0000000000
     11495      3832  TIP3      H1            -52.5555966405        7.6079977139      -29.3027196465  W2        3832            0.0000000000
     11496      3832  TIP3      H2            -51.3699066405        6.6667477139      -29.3088896465  W2        3832            0.0000000000
     11497      3833  TIP3      OH2           -48.0132166405        7.5087077139      -31.3062196465  W2        3833            0.0000000000
     11498      3833  TIP3      H1            -47.0816666405        7.6377077139      -31.1279096465  W2        3833            0.0000000000
     11499      3833  TIP3      H2            -48.2281866405        8.1781377139      -31.9557496465  W2        3833            0.0000000000
     11500      3834  TIP3      OH2           -42.0895466405        5.1144477139      -24.5252596465  W2        3834            0.0000000000
     11501      3834  TIP3      H1            -42.7663866405        5.2457577139      -23.8612896465  W2        3834            0.0000000000
     11502      3834  TIP3      H2            -42.5750566405        4.9593977139      -25.3354896465  W2        3834            0.0000000000
     11503      3835  TIP3      OH2           -49.3391966405        8.7029277139      -33.7396096465  W2        3835            0.0000000000
     11504      3835  TIP3      H1            -49.8816866405        8.3233077139      -34.4308496465  W2        3835            0.0000000000
     11505      3835  TIP3      H2            -48.5057066405        8.8973977139      -34.1681996465  W2        3835            0.0000000000
     11506      3836  TIP3      OH2           -38.8020366405       20.7859877139      -18.2484996465  W2        3836            0.0000000000
     11507      3836  TIP3      H1            -38.6021666405       21.2101777139      -19.0829696465  W2        3836            0.0000000000
     11508      3836  TIP3      H2            -38.1466666405       21.1298077139      -17.6414596465  W2        3836            0.0000000000
     11509      3837  TIP3      OH2           -51.2040566405       13.2601177139      -18.6404496465  W2        3837            0.0000000000
     11510      3837  TIP3      H1            -50.4718166405       13.5147077139      -18.0789996465  W2        3837            0.0000000000
     11511      3837  TIP3      H2            -51.9841866405       13.4646577139      -18.1249096465  W2        3837            0.0000000000
     11512      3838  TIP3      OH2           -45.1747666405        8.6671177139      -25.9024796465  W2        3838            0.0000000000
     11513      3838  TIP3      H1            -44.6104266405        8.1207777139      -26.4495196465  W2        3838            0.0000000000
     11514      3838  TIP3      H2            -45.3224266405        8.1453077139      -25.1137196465  W2        3838            0.0000000000
     11515      3839  TIP3      OH2           -50.1727966405        4.8037277139      -29.4839996465  W2        3839            0.0000000000
     11516      3839  TIP3      H1            -50.4898466405        3.9012577139      -29.5194596465  W2        3839            0.0000000000
     11517      3839  TIP3      H2            -49.3913866405        4.8054677139      -30.0368396465  W2        3839            0.0000000000
     11518      3840  TIP3      OH2           -46.5481766405        7.0557277139      -23.4884396465  W2        3840            0.0000000000
     11519      3840  TIP3      H1            -47.3836466405        7.5096777139      -23.3781996465  W2        3840            0.0000000000
     11520      3840  TIP3      H2            -46.0241166405        7.3315777139      -22.7364496465  W2        3840            0.0000000000
     11521      3841  TIP3      OH2           -46.0039166405       13.2684977139      -31.8037996465  W2        3841            0.0000000000
     11522      3841  TIP3      H1            -46.7488166405       12.7610277139      -32.1260096465  W2        3841            0.0000000000
     11523      3841  TIP3      H2            -46.1381966405       13.3172977139      -30.8573196465  W2        3841            0.0000000000
     11524      3842  TIP3      OH2           -38.8540266405       12.4013177139      -23.0170396465  W2        3842            0.0000000000
     11525      3842  TIP3      H1            -38.2121466405       12.8579477139      -23.5608196465  W2        3842            0.0000000000
     11526      3842  TIP3      H2            -39.6843366405       12.5145577139      -23.4796296465  W2        3842            0.0000000000
     11527      3843  TIP3      OH2           -42.1062366405        6.0824877139      -33.6045396465  W2        3843            0.0000000000
     11528      3843  TIP3      H1            -43.0448166405        6.1940477139      -33.7556596465  W2        3843            0.0000000000
     11529      3843  TIP3      H2            -41.8090266405        6.9391777139      -33.2979696465  W2        3843            0.0000000000
     11530      3844  TIP3      OH2           -44.4847066405       13.4528277139      -20.5668896465  W2        3844            0.0000000000
     11531      3844  TIP3      H1            -44.8300966405       13.0710677139      -19.7599296465  W2        3844            0.0000000000
     11532      3844  TIP3      H2            -44.6846966405       14.3861877139      -20.4955996465  W2        3844            0.0000000000
     11533      3845  TIP3      OH2           -41.3878866405        7.9497577139      -31.9437996465  W2        3845            0.0000000000
     11534      3845  TIP3      H1            -40.4959866405        7.8122577139      -31.6246796465  W2        3845            0.0000000000
     11535      3845  TIP3      H2            -41.3315266405        8.7403677139      -32.4804496465  W2        3845            0.0000000000
     11536      3846  TIP3      OH2           -50.8790866405       12.5634977139      -26.0340096465  W2        3846            0.0000000000
     11537      3846  TIP3      H1            -50.1343666405       12.5610677139      -26.6353596465  W2        3846            0.0000000000
     11538      3846  TIP3      H2            -50.8014266405       11.7398777139      -25.5524996465  W2        3846            0.0000000000
     11539      3847  TIP3      OH2           -43.8785066405       14.7269277139      -32.7783396465  W2        3847            0.0000000000
     11540      3847  TIP3      H1            -44.1736666405       15.5537177139      -32.3968596465  W2        3847            0.0000000000
     11541      3847  TIP3      H2            -44.5815066405       14.1076177139      -32.5821996465  W2        3847            0.0000000000
     11542      3848  TIP3      OH2           -53.8711166405       11.0241877139      -20.7191596465  W2        3848            0.0000000000
     11543      3848  TIP3      H1            -53.6482566405       10.6061477139      -19.8874096465  W2        3848            0.0000000000
     11544      3848  TIP3      H2            -54.4731066405       10.4116877139      -21.1418796465  W2        3848            0.0000000000
     11545      3849  TIP3      OH2           -46.8546266405       10.5411777139      -18.5061896465  W2        3849            0.0000000000
     11546      3849  TIP3      H1            -47.1505466405       10.3754777139      -19.4012796465  W2        3849            0.0000000000
     11547      3849  TIP3      H2            -45.9231066405       10.3212077139      -18.5167996465  W2        3849            0.0000000000
     11548      3850  TIP3      OH2           -42.2343466405       15.9143777139      -20.6163896465  W2        3850            0.0000000000
     11549      3850  TIP3      H1            -43.1349166405       16.0976377139      -20.8839996465  W2        3850            0.0000000000
     11550      3850  TIP3      H2            -42.2002366405       16.1733077139      -19.6955096465  W2        3850            0.0000000000
     11551      3851  TIP3      OH2           -36.5030166405        8.1591677139      -32.2491296465  W2        3851            0.0000000000
     11552      3851  TIP3      H1            -37.0573866405        7.7629677139      -32.9213796465  W2        3851            0.0000000000
     11553      3851  TIP3      H2            -36.4026566405        9.0696877139      -32.5267996465  W2        3851            0.0000000000
     11554      3852  TIP3      OH2           -36.5398166405       13.9593377139      -19.4119796465  W2        3852            0.0000000000
     11555      3852  TIP3      H1            -37.3909666405       14.1977177139      -19.7793396465  W2        3852            0.0000000000
     11556      3852  TIP3      H2            -35.9494766405       13.9426577139      -20.1652696465  W2        3852            0.0000000000
     11557      3853  TIP3      OH2           -38.2078466405       16.9452077139      -31.7839196465  W2        3853            0.0000000000
     11558      3853  TIP3      H1            -38.5807366405       16.1195877139      -31.4748596465  W2        3853            0.0000000000
     11559      3853  TIP3      H2            -37.9304966405       16.7621477139      -32.6815796465  W2        3853            0.0000000000
     11560      3854  TIP3      OH2           -41.0474566405       11.7531577139      -24.7627296465  W2        3854            0.0000000000
     11561      3854  TIP3      H1            -41.9757666405       11.5213477139      -24.7897996465  W2        3854            0.0000000000
     11562      3854  TIP3      H2            -40.5963466405       10.9761377139      -25.0928496465  W2        3854            0.0000000000
     11563      3855  TIP3      OH2           -48.5041466405       16.0813177139      -28.6298596465  W2        3855            0.0000000000
     11564      3855  TIP3      H1            -47.9769266405       16.8547577139      -28.8299796465  W2        3855            0.0000000000
     11565      3855  TIP3      H2            -49.3842966405       16.3062377139      -28.9314596465  W2        3855            0.0000000000
     11566      3856  TIP3      OH2           -52.7493766405       10.9437277139      -34.0426196465  W2        3856            0.0000000000
     11567      3856  TIP3      H1            -52.1333866405       11.5704477139      -33.6631396465  W2        3856            0.0000000000
     11568      3856  TIP3      H2            -53.6111166405       11.2597077139      -33.7709696465  W2        3856            0.0000000000
     11569      3857  TIP3      OH2           -47.0769166405       13.7443077139      -29.0534296465  W2        3857            0.0000000000
     11570      3857  TIP3      H1            -47.3179166405       14.6697477139      -29.0118996465  W2        3857            0.0000000000
     11571      3857  TIP3      H2            -47.8175566405       13.2854377139      -28.6570396465  W2        3857            0.0000000000
     11572      3858  TIP3      OH2           -46.5622566405       17.8936677139      -22.7383196465  W2        3858            0.0000000000
     11573      3858  TIP3      H1            -46.1997866405       18.7482277139      -22.9718796465  W2        3858            0.0000000000
     11574      3858  TIP3      H2            -46.0307366405       17.6018277139      -21.9976896465  W2        3858            0.0000000000
     11575      3859  TIP3      OH2           -48.3938366405       18.7660677139      -29.5082096465  W2        3859            0.0000000000
     11576      3859  TIP3      H1            -49.3437866405       18.8718077139      -29.4568796465  W2        3859            0.0000000000
     11577      3859  TIP3      H2            -48.0420266405       19.5868077139      -29.1634596465  W2        3859            0.0000000000
     11578      3860  TIP3      OH2           -43.0181766405       13.9927377139      -23.0377596465  W2        3860            0.0000000000
     11579      3860  TIP3      H1            -43.4440466405       13.7649077139      -22.2113596465  W2        3860            0.0000000000
     11580      3860  TIP3      H2            -42.4375966405       13.2539177139      -23.2202296465  W2        3860            0.0000000000
     11581      3861  TIP3      OH2           -40.8152866405       14.9217877139      -33.9638596465  W2        3861            0.0000000000
     11582      3861  TIP3      H1            -40.4619766405       14.5417677139      -33.1595096465  W2        3861            0.0000000000
     11583      3861  TIP3      H2            -41.7639366405       14.8282677139      -33.8769296465  W2        3861            0.0000000000
     11584      3862  TIP3      OH2           -40.3597566405       18.5446877139      -20.5682796465  W2        3862            0.0000000000
     11585      3862  TIP3      H1            -40.9614366405       17.9889777139      -21.0636496465  W2        3862            0.0000000000
     11586      3862  TIP3      H2            -40.0783866405       19.2116677139      -21.1945396465  W2        3862            0.0000000000
     11587      3863  TIP3      OH2           -36.3118466405       19.4010377139      -33.7628396465  W2        3863            0.0000000000
     11588      3863  TIP3      H1            -35.5680566405       19.9870877139      -33.9026796465  W2        3863            0.0000000000
     11589      3863  TIP3      H2            -37.0060366405       19.9696177139      -33.4295996465  W2        3863            0.0000000000
     11590      3864  TIP3      OH2           -52.2371666405        5.7774577139      -21.1610196465  W2        3864            0.0000000000
     11591      3864  TIP3      H1            -53.1299366405        6.1159977139      -21.2286196465  W2        3864            0.0000000000
     11592      3864  TIP3      H2            -52.3358866405        4.9220677139      -20.7429396465  W2        3864            0.0000000000
     11593      3865  TIP3      OH2           -39.9493566405       13.5939877139      -31.7370696465  W2        3865            0.0000000000
     11594      3865  TIP3      H1            -40.2265966405       12.8659177139      -31.1809596465  W2        3865            0.0000000000
     11595      3865  TIP3      H2            -39.0220566405       13.7131877139      -31.5318096465  W2        3865            0.0000000000
     11596      3866  TIP3      OH2           -52.5859666405       17.5818977139      -22.7260796465  W2        3866            0.0000000000
     11597      3866  TIP3      H1            -52.3689366405       16.6501377139      -22.7571096465  W2        3866            0.0000000000
     11598      3866  TIP3      H2            -52.3396166405       17.8563977139      -21.8427996465  W2        3866            0.0000000000
     11599      3867  TIP3      OH2           -46.7245066405       16.0333977139      -35.5168596465  W2        3867            0.0000000000
     11600      3867  TIP3      H1            -46.4855266405       15.2852077139      -36.0639696465  W2        3867            0.0000000000
     11601      3867  TIP3      H2            -46.9933766405       15.6455677139      -34.6840796465  W2        3867            0.0000000000
     11602      3868  TIP3      OH2           -47.7874466405       15.6037777139      -33.0605996465  W2        3868            0.0000000000
     11603      3868  TIP3      H1            -47.6406466405       15.0837577139      -32.2705096465  W2        3868            0.0000000000
     11604      3868  TIP3      H2            -47.7902766405       16.5105377139      -32.7540096465  W2        3868            0.0000000000
     11605      3869  TIP3      OH2           -51.3343366405       12.8561077139      -32.5500596465  W2        3869            0.0000000000
     11606      3869  TIP3      H1            -52.0204066405       13.2083577139      -31.9830896465  W2        3869            0.0000000000
     11607      3869  TIP3      H2            -50.8115466405       13.6190677139      -32.7966296465  W2        3869            0.0000000000
     11608      3870  TIP3      OH2           -43.5028266405        5.5184877139      -22.2711596465  W2        3870            0.0000000000
     11609      3870  TIP3      H1            -42.8040366405        5.5923577139      -21.6211896465  W2        3870            0.0000000000
     11610      3870  TIP3      H2            -43.8836866405        4.6539877139      -22.1168696465  W2        3870            0.0000000000
     11611      3871  TIP3      OH2           -42.7183366405        5.1706577139      -31.1739296465  W2        3871            0.0000000000
     11612      3871  TIP3      H1            -42.4985066405        5.6421977139      -31.9773896465  W2        3871            0.0000000000
     11613      3871  TIP3      H2            -42.1599366405        5.5649177139      -30.5038696465  W2        3871            0.0000000000
     11614      3872  TIP3      OH2           -45.0497266405       17.3011377139      -32.3111796465  W2        3872            0.0000000000
     11615      3872  TIP3      H1            -45.8661166405       17.7981077139      -32.2587496465  W2        3872            0.0000000000
     11616      3872  TIP3      H2            -44.5200966405       17.7764877139      -32.9512996465  W2        3872            0.0000000000
     11617      3873  TIP3      OH2           -45.5183466405        6.8985377139      -30.3390896465  W2        3873            0.0000000000
     11618      3873  TIP3      H1            -44.7060866405        7.4028577139      -30.2929196465  W2        3873            0.0000000000
     11619      3873  TIP3      H2            -45.7630466405        6.7535077139      -29.4251296465  W2        3873            0.0000000000
     11620      3874  TIP3      OH2           -44.9827066405        7.8848077139      -21.1544296465  W2        3874            0.0000000000
     11621      3874  TIP3      H1            -44.8636766405        8.4583477139      -20.3973896465  W2        3874            0.0000000000
     11622      3874  TIP3      H2            -44.3272466405        7.1967477139      -21.0396496465  W2        3874            0.0000000000
     11623      3875  TIP3      OH2           -44.6346766405        3.9798377139      -29.4009796465  W2        3875            0.0000000000
     11624      3875  TIP3      H1            -44.9813266405        4.5968977139      -28.7565496465  W2        3875            0.0000000000
     11625      3875  TIP3      H2            -43.9759866405        4.4804077139      -29.8824296465  W2        3875            0.0000000000
     11626      3876  TIP3      OH2           -47.7114166405       18.3448577139      -32.3294896465  W2        3876            0.0000000000
     11627      3876  TIP3      H1            -47.5505466405       19.1446077139      -32.8302296465  W2        3876            0.0000000000
     11628      3876  TIP3      H2            -47.9086366405       18.6514577139      -31.4444296465  W2        3876            0.0000000000
     11629      3877  TIP3      OH2           -48.9769766405        5.0427777139      -32.7137296465  W2        3877            0.0000000000
     11630      3877  TIP3      H1            -49.0604966405        5.9310877139      -32.3670896465  W2        3877            0.0000000000
     11631      3877  TIP3      H2            -48.0869466405        4.7774477139      -32.4820496465  W2        3877            0.0000000000
     11632      3878  TIP3      OH2           -38.7781266405        5.7918377139      -20.3194596465  W2        3878            0.0000000000
     11633      3878  TIP3      H1            -39.6945466405        6.0540077139      -20.4070896465  W2        3878            0.0000000000
     11634      3878  TIP3      H2            -38.4426266405        5.7887377139      -21.2159296465  W2        3878            0.0000000000
     11635      3879  TIP3      OH2           -40.1760266405        9.5419377139      -26.2237296465  W2        3879            0.0000000000
     11636      3879  TIP3      H1            -40.9735866405        9.1269577139      -26.5522296465  W2        3879            0.0000000000
     11637      3879  TIP3      H2            -39.7309166405        8.8513077139      -25.7326796465  W2        3879            0.0000000000
     11638      3880  TIP3      OH2           -50.7184466405       15.4699977139      -33.6532796465  W2        3880            0.0000000000
     11639      3880  TIP3      H1            -50.1262966405       16.1694777139      -33.3770396465  W2        3880            0.0000000000
     11640      3880  TIP3      H2            -50.2591466405       15.0369477139      -34.3728196465  W2        3880            0.0000000000
     11641      3881  TIP3      OH2           -52.4025266405        8.1342977139      -34.5373396465  W2        3881            0.0000000000
     11642      3881  TIP3      H1            -52.4472666405        9.0736077139      -34.3586396465  W2        3881            0.0000000000
     11643      3881  TIP3      H2            -53.2902066405        7.8987877139      -34.8071296465  W2        3881            0.0000000000
     11644      3882  TIP3      OH2           -39.0895666405       18.7981877139      -24.6013796465  W2        3882            0.0000000000
     11645      3882  TIP3      H1            -39.2451366405       19.4766277139      -25.2584496465  W2        3882            0.0000000000
     11646      3882  TIP3      H2            -38.1569266405       18.8701177139      -24.3983196465  W2        3882            0.0000000000
     11647      3883  TIP3      OH2           -51.5943266405        2.9159577139      -25.8642396465  W2        3883            0.0000000000
     11648      3883  TIP3      H1            -51.8233466405        2.9752077139      -26.7917396465  W2        3883            0.0000000000
     11649      3883  TIP3      H2            -52.0369866405        2.1245077139      -25.5578296465  W2        3883            0.0000000000
     11650      3884  TIP3      OH2           -52.6639966405       16.8566677139      -29.7036596465  W2        3884            0.0000000000
     11651      3884  TIP3      H1            -53.4961366405       17.3289377139      -29.6765196465  W2        3884            0.0000000000
     11652      3884  TIP3      H2            -52.1181666405       17.3664277139      -30.3023496465  W2        3884            0.0000000000
     11653      3885  TIP3      OH2           -53.3756266405       19.4690377139      -18.3738596465  W2        3885            0.0000000000
     11654      3885  TIP3      H1            -52.8354066405       19.2524377139      -17.6139396465  W2        3885            0.0000000000
     11655      3885  TIP3      H2            -53.8568266405       18.6636377139      -18.5636096465  W2        3885            0.0000000000
     11656      3886  TIP3      OH2           -48.7782866405       18.3884777139      -16.7534396465  W2        3886            0.0000000000
     11657      3886  TIP3      H1            -48.0105666405       17.9295577139      -16.4125196465  W2        3886            0.0000000000
     11658      3886  TIP3      H2            -48.7996666405       18.1624577139      -17.6833196465  W2        3886            0.0000000000
     11659      3887  TIP3      OH2           -44.6863266405       17.8965377139      -35.3782596465  W2        3887            0.0000000000
     11660      3887  TIP3      H1            -45.3302266405       17.2653977139      -35.0568896465  W2        3887            0.0000000000
     11661      3887  TIP3      H2            -43.9244966405       17.3653377139      -35.6099096465  W2        3887            0.0000000000
     11662      3888  TIP3      OH2           -42.2014166405       16.7685877139      -18.0242896465  W2        3888            0.0000000000
     11663      3888  TIP3      H1            -42.5524666405       15.9118877139      -17.7812496465  W2        3888            0.0000000000
     11664      3888  TIP3      H2            -41.4750966405       16.9112577139      -17.4173896465  W2        3888            0.0000000000
     11665      3889  TIP3      OH2           -40.0820366405       17.7135277139      -35.1444596465  W2        3889            0.0000000000
     11666      3889  TIP3      H1            -39.7989966405       16.9190477139      -34.6917696465  W2        3889            0.0000000000
     11667      3889  TIP3      H2            -39.3422466405       17.9466277139      -35.7053496465  W2        3889            0.0000000000
     11668      3890  TIP3      OH2           -53.4686766405       13.2794477139      -17.4194296465  W2        3890            0.0000000000
     11669      3890  TIP3      H1            -53.3246266405       12.3775177139      -17.7057596465  W2        3890            0.0000000000
     11670      3890  TIP3      H2            -54.2409366405       13.5656577139      -17.9071996465  W2        3890            0.0000000000
     11671      3891  TIP3      OH2           -49.1273066405       13.6230177139      -35.2869696465  W2        3891            0.0000000000
     11672      3891  TIP3      H1            -49.0628966405       12.8289777139      -34.7563296465  W2        3891            0.0000000000
     11673      3891  TIP3      H2            -48.4743866405       13.5042977139      -35.9767696465  W2        3891            0.0000000000
     11674      3892  TIP3      OH2           -46.8130666405       13.2492577139      -17.9867896465  W2        3892            0.0000000000
     11675      3892  TIP3      H1            -47.1416866405       13.5200677139      -18.8440496465  W2        3892            0.0000000000
     11676      3892  TIP3      H2            -46.6612466405       12.3082377139      -18.0742896465  W2        3892            0.0000000000
     11677      3893  TIP3      OH2           -43.7749666405       14.6701877139      -35.5511696465  W2        3893            0.0000000000
     11678      3893  TIP3      H1            -44.0435566405       14.8503977139      -34.6502796465  W2        3893            0.0000000000
     11679      3893  TIP3      H2            -43.9814066405       13.7448077139      -35.6825896465  W2        3893            0.0000000000
     11680      3894  TIP3      OH2           -41.0785466405       13.1649877139      -20.6035596465  W2        3894            0.0000000000
     11681      3894  TIP3      H1            -40.3330666405       13.7533577139      -20.7231596465  W2        3894            0.0000000000
     11682      3894  TIP3      H2            -41.8358666405       13.7469577139      -20.5402496465  W2        3894            0.0000000000
     11683      3895  TIP3      OH2           -52.6360266405       10.4797777139      -17.9994996465  W2        3895            0.0000000000
     11684      3895  TIP3      H1            -52.2279066405        9.6224377139      -18.1204396465  W2        3895            0.0000000000
     11685      3895  TIP3      H2            -52.8962666405       10.4939077139      -17.0784696465  W2        3895            0.0000000000
     11686      3896  TIP3      OH2           -47.9779266405       11.5956377139      -32.9811696465  W2        3896            0.0000000000
     11687      3896  TIP3      H1            -48.4377266405       11.1114677139      -32.2953196465  W2        3896            0.0000000000
     11688      3896  TIP3      H2            -47.7230566405       10.9271777139      -33.6171196465  W2        3896            0.0000000000
     11689      3897  TIP3      OH2           -48.6889966405        9.4883477139      -20.6252096465  W2        3897            0.0000000000
     11690      3897  TIP3      H1            -49.3073866405       10.1630077139      -20.3447396465  W2        3897            0.0000000000
     11691      3897  TIP3      H2            -48.3448766405        9.8097377139      -21.4585896465  W2        3897            0.0000000000
     11692      3898  TIP3      OH2           -46.9068866405        9.8388177139      -34.7188496465  W2        3898            0.0000000000
     11693      3898  TIP3      H1            -47.0873866405        9.6839377139      -35.6460196465  W2        3898            0.0000000000
     11694      3898  TIP3      H2            -45.9568366405        9.9466877139      -34.6740596465  W2        3898            0.0000000000
     11695      3899  TIP3      OH2           -43.6691766405       11.9598777139      -17.3477296465  W2        3899            0.0000000000
     11696      3899  TIP3      H1            -42.7160566405       12.0437877139      -17.3751296465  W2        3899            0.0000000000
     11697      3899  TIP3      H2            -43.8297166405       11.2480577139      -16.7282396465  W2        3899            0.0000000000
     11698      3900  TIP3      OH2           -37.5170566405       12.1932377139      -35.2730396465  W2        3900            0.0000000000
     11699      3900  TIP3      H1            -37.7905766405       11.7687877139      -36.0862096465  W2        3900            0.0000000000
     11700      3900  TIP3      H2            -37.4776466405       13.1246877139      -35.4899996465  W2        3900            0.0000000000
     11701      3901  TIP3      OH2           -48.3496266405        6.8434277139      -19.5428996465  W2        3901            0.0000000000
     11702      3901  TIP3      H1            -48.1995366405        6.1145577139      -20.1449296465  W2        3901            0.0000000000
     11703      3901  TIP3      H2            -48.3473866405        7.6205977139      -20.1016796465  W2        3901            0.0000000000
     11704      3902  TIP3      OH2           -47.9370566405        5.2130077139      -22.0501596465  W2        3902            0.0000000000
     11705      3902  TIP3      H1            -47.4013066405        5.6646777139      -22.7022296465  W2        3902            0.0000000000
     11706      3902  TIP3      H2            -48.7890966405        5.1049877139      -22.4727496465  W2        3902            0.0000000000
     11707      3903  TIP3      OH2           -46.3552166405       10.6526277139      -21.8106396465  W2        3903            0.0000000000
     11708      3903  TIP3      H1            -45.6047366405       10.4963777139      -22.3838596465  W2        3903            0.0000000000
     11709      3903  TIP3      H2            -46.6943866405       11.5042877139      -22.0860896465  W2        3903            0.0000000000
     11710      3904  TIP3      OH2           -41.9395966405        8.4678077139      -16.7821096465  W2        3904            0.0000000000
     11711      3904  TIP3      H1            -41.7474666405        7.5367477139      -16.8936596465  W2        3904            0.0000000000
     11712      3904  TIP3      H2            -41.0819666405        8.8927577139      -16.7925696465  W2        3904            0.0000000000
     11713      3905  TIP3      OH2           -40.6228766405       11.2563277139      -18.7048396465  W2        3905            0.0000000000
     11714      3905  TIP3      H1            -40.9043766405       11.9657877139      -19.2824596465  W2        3905            0.0000000000
     11715      3905  TIP3      H2            -39.6804466405       11.1836277139      -18.8557196465  W2        3905            0.0000000000
     11716      3906  TIP3      OH2           -49.8709966405        8.0417777139      -17.6313396465  W2        3906            0.0000000000
     11717      3906  TIP3      H1            -50.6380966405        7.5092577139      -17.8415796465  W2        3906            0.0000000000
     11718      3906  TIP3      H2            -49.1920966405        7.7318177139      -18.2307096465  W2        3906            0.0000000000
     11719      3907  TIP3      OH2           -47.1315066405        2.6695777139      -21.6187996465  W2        3907            0.0000000000
     11720      3907  TIP3      H1            -47.2295466405        3.6158977139      -21.7241796465  W2        3907            0.0000000000
     11721      3907  TIP3      H2            -47.8738866405        2.2969577139      -22.0944496465  W2        3907            0.0000000000
     11722      3908  TIP3      OH2           -45.8674566405        6.9911177139      -18.0549596465  W2        3908            0.0000000000
     11723      3908  TIP3      H1            -46.1029166405        6.7717877139      -17.1534696465  W2        3908            0.0000000000
     11724      3908  TIP3      H2            -46.6507666405        6.7842377139      -18.5647096465  W2        3908            0.0000000000
     11725      3909  TIP3      OH2           -43.1517966405        6.1184677139      -18.9796096465  W2        3909            0.0000000000
     11726      3909  TIP3      H1            -44.0992566405        6.1504377139      -18.8472796465  W2        3909            0.0000000000
     11727      3909  TIP3      H2            -42.8391266405        5.4931777139      -18.3257896465  W2        3909            0.0000000000
     11728      3910  TIP3      OH2           -41.5176466405        4.7525777139      -16.9744196465  W2        3910            0.0000000000
     11729      3910  TIP3      H1            -41.6144666405        3.8003077139      -16.9802296465  W2        3910            0.0000000000
     11730      3910  TIP3      H2            -41.8393366405        5.0212577139      -16.1138696465  W2        3910            0.0000000000
     11731      3911  TIP3      OH2           -51.6907166405        5.9621577139      -17.9268696465  W2        3911            0.0000000000
     11732      3911  TIP3      H1            -51.4789766405        5.2557677139      -18.5371196465  W2        3911            0.0000000000
     11733      3911  TIP3      H2            -51.8019666405        5.5247577139      -17.0827496465  W2        3911            0.0000000000
     11734      3912  TIP3      OH2           -46.9096966405        1.9633177139      -18.9475196465  W2        3912            0.0000000000
     11735      3912  TIP3      H1            -46.1978566405        1.3235377139      -18.9616096465  W2        3912            0.0000000000
     11736      3912  TIP3      H2            -47.0106566405        2.2301477139      -19.8612096465  W2        3912            0.0000000000
     11737      3913  TIP3      OH2           -46.5559466405        3.6461577139      -16.8938896465  W2        3913            0.0000000000
     11738      3913  TIP3      H1            -46.6877266405        3.1705377139      -17.7140396465  W2        3913            0.0000000000
     11739      3913  TIP3      H2            -47.1552066405        4.3905177139      -16.9491796465  W2        3913            0.0000000000
     11740      3914  TIP3      OH2           -47.0097166405       20.5291877139      -33.7174896465  W2        3914            0.0000000000
     11741      3914  TIP3      H1            -46.0766466405       20.6870577139      -33.5736496465  W2        3914            0.0000000000
     11742      3914  TIP3      H2            -47.2738366405       21.2044877139      -34.3423396465  W2        3914            0.0000000000
     11743      3915  TIP3      OH2           -53.4412266405       15.1655677139      -34.2346796465  W2        3915            0.0000000000
     11744      3915  TIP3      H1            -52.5273066405       15.2444577139      -33.9612896465  W2        3915            0.0000000000
     11745      3915  TIP3      H2            -53.4339166405       14.4785277139      -34.9011196465  W2        3915            0.0000000000
     11746      3916  TIP3      OH2           -54.7921666405       20.5584177139      -29.1572896465  W2        3916            0.0000000000
     11747      3916  TIP3      H1            -55.4394566405       20.0965877139      -29.6901696465  W2        3916            0.0000000000
     11748      3916  TIP3      H2            -54.4377066405       19.8867477139      -28.5746696465  W2        3916            0.0000000000
     11749      3917  TIP3      OH2           -53.9222466405       18.6391177139      -27.3526696465  W2        3917            0.0000000000
     11750      3917  TIP3      H1            -54.2565666405       17.7588477139      -27.1806496465  W2        3917            0.0000000000
     11751      3917  TIP3      H2            -53.7000066405       18.9846177139      -26.4881096465  W2        3917            0.0000000000
     11752      3918  TIP3      OH2           -36.3737666405       19.4487577139      -24.3721896465  W2        3918            0.0000000000
     11753      3918  TIP3      H1            -36.3950966405       19.6335977139      -23.4332496465  W2        3918            0.0000000000
     11754      3918  TIP3      H2            -35.6831466405       20.0171577139      -24.7130496465  W2        3918            0.0000000000
     11755      3919  TIP3      OH2           -36.8104766405       19.0158677139      -21.4502796465  W2        3919            0.0000000000
     11756      3919  TIP3      H1            -37.2976066405       18.2802777139      -21.8215396465  W2        3919            0.0000000000
     11757      3919  TIP3      H2            -36.2612066405       18.6222577139      -20.7723396465  W2        3919            0.0000000000
     11758      3920  TIP3      OH2           -38.3597466405       14.8056777139      -16.8122496465  W2        3920            0.0000000000
     11759      3920  TIP3      H1            -39.2256366405       14.7006477139      -16.4180196465  W2        3920            0.0000000000
     11760      3920  TIP3      H2            -37.9831566405       15.5640077139      -16.3657796465  W2        3920            0.0000000000
     11761      3921  TIP3      OH2           -37.0587766405       13.0620477139      -31.2979996465  W2        3921            0.0000000000
     11762      3921  TIP3      H1            -36.2086366405       13.4831377139      -31.1708396465  W2        3921            0.0000000000
     11763      3921  TIP3      H2            -37.0532666405       12.3220577139      -30.6908596465  W2        3921            0.0000000000
     11764      3922  TIP3      OH2           -36.6642166405       11.1157877139      -29.4744296465  W2        3922            0.0000000000
     11765      3922  TIP3      H1            -37.3907566405       10.6360477139      -29.0766696465  W2        3922            0.0000000000
     11766      3922  TIP3      H2            -36.0828866405       11.3212577139      -28.7422696465  W2        3922            0.0000000000
     11767      3923  TIP3      OH2           -36.9050966405       13.9005377139      -24.5266696465  W2        3923            0.0000000000
     11768      3923  TIP3      H1            -36.0716766405       13.5225377139      -24.8073096465  W2        3923            0.0000000000
     11769      3923  TIP3      H2            -36.7930666405       14.8436577139      -24.6457596465  W2        3923            0.0000000000
     11770      3924  TIP3      OH2           -38.4188666405       16.7782877139      -22.2198296465  W2        3924            0.0000000000
     11771      3924  TIP3      H1            -39.0663366405       17.1034377139      -21.5943096465  W2        3924            0.0000000000
     11772      3924  TIP3      H2            -38.9364666405       16.3380577139      -22.8939996465  W2        3924            0.0000000000
     11773      3925  TIP3      OH2           -36.3959066405       11.0166377139      -33.0832996465  W2        3925            0.0000000000
     11774      3925  TIP3      H1            -36.9177966405       11.3730477139      -33.8022096465  W2        3925            0.0000000000
     11775      3925  TIP3      H2            -36.4289866405       11.6914177139      -32.4052096465  W2        3925            0.0000000000
     11776      3926  TIP3      OH2           -38.0470066405        8.2561977139      -34.5325896465  W2        3926            0.0000000000
     11777      3926  TIP3      H1            -37.9505666405        8.9228977139      -35.2126196465  W2        3926            0.0000000000
     11778      3926  TIP3      H2            -38.1870466405        7.4408277139      -35.0140396465  W2        3926            0.0000000000
     11779      3927  TIP3      OH2           -38.8775366405        9.6364377139      -28.9115596465  W2        3927            0.0000000000
     11780      3927  TIP3      H1            -39.0276566405        8.6912977139      -28.9317796465  W2        3927            0.0000000000
     11781      3927  TIP3      H2            -39.2310866405        9.9175777139      -28.0676496465  W2        3927            0.0000000000
     11782      3928  TIP3      OH2           -53.8422966405       11.7146577139      -24.9011796465  W2        3928            0.0000000000
     11783      3928  TIP3      H1            -53.6580066405       11.6328277139      -25.8368896465  W2        3928            0.0000000000
     11784      3928  TIP3      H2            -52.9930066405       11.5903577139      -24.4775396465  W2        3928            0.0000000000
     11785      3929  TIP3      OH2           -38.0212466405       11.6067677139      -19.2727296465  W2        3929            0.0000000000
     11786      3929  TIP3      H1            -37.4385166405       10.8719977139      -19.0810096465  W2        3929            0.0000000000
     11787      3929  TIP3      H2            -37.4573166405       12.3787977139      -19.2261496465  W2        3929            0.0000000000
     11788      3930  TIP3      OH2           -36.5245366405        9.5093477139      -18.5881896465  W2        3930            0.0000000000
     11789      3930  TIP3      H1            -37.3878666405        9.1305577139      -18.7537196465  W2        3930            0.0000000000
     11790      3930  TIP3      H2            -35.9201666405        8.7708277139      -18.6626096465  W2        3930            0.0000000000
     11791      3931  TIP3      OH2           -38.7996266405        5.6641777139      -35.4150396465  W2        3931            0.0000000000
     11792      3931  TIP3      H1            -38.1890466405        5.2928577139      -34.7782196465  W2        3931            0.0000000000
     11793      3931  TIP3      H2            -39.6364766405        5.2428677139      -35.2190396465  W2        3931            0.0000000000
     11794      3932  TIP3      OH2           -39.1670566405        7.2190177139      -30.4490496465  W2        3932            0.0000000000
     11795      3932  TIP3      H1            -38.8873466405        6.3120577139      -30.3248796465  W2        3932            0.0000000000
     11796      3932  TIP3      H2            -38.4078866405        7.6531677139      -30.8381296465  W2        3932            0.0000000000
     11797      3933  TIP3      OH2           -38.5552266405        7.8007577139      -25.0131596465  W2        3933            0.0000000000
     11798      3933  TIP3      H1            -37.6224266405        8.0127477139      -25.0475596465  W2        3933            0.0000000000
     11799      3933  TIP3      H2            -38.7904766405        7.9019677139      -24.0908596465  W2        3933            0.0000000000
     11800      3934  TIP3      OH2           -38.5260366405        8.5372877139      -22.2372196465  W2        3934            0.0000000000
     11801      3934  TIP3      H1            -39.3689066405        8.8053277139      -21.8712396465  W2        3934            0.0000000000
     11802      3934  TIP3      H2            -38.0836066405        9.3594777139      -22.4481096465  W2        3934            0.0000000000
     11803      3935  TIP3      OH2           -54.2448166405        6.9851577139      -18.7602996465  W2        3935            0.0000000000
     11804      3935  TIP3      H1            -53.3253266405        6.8629877139      -18.5239896465  W2        3935            0.0000000000
     11805      3935  TIP3      H2            -54.6943666405        6.2351277139      -18.3709496465  W2        3935            0.0000000000
     11806      3936  TIP3      OH2           -36.2428766405        2.5173077139      -16.8837196465  W2        3936            0.0000000000
     11807      3936  TIP3      H1            -35.8931766405        1.8636577139      -17.4892496465  W2        3936            0.0000000000
     11808      3936  TIP3      H2            -36.0959266405        3.3547177139      -17.3234596465  W2        3936            0.0000000000
     11809      3937  TIP3      OH2           -38.5535766405        4.4819477139      -30.4008496465  W2        3937            0.0000000000
     11810      3937  TIP3      H1            -38.3710766405        4.0330977139      -29.5753496465  W2        3937            0.0000000000
     11811      3937  TIP3      H2            -39.1532866405        3.8973877139      -30.8643896465  W2        3937            0.0000000000
     11812      3938  TIP3      OH2           -53.0235666405        5.2973177139      -25.8690096465  W2        3938            0.0000000000
     11813      3938  TIP3      H1            -52.5784066405        4.5055677139      -25.5670396465  W2        3938            0.0000000000
     11814      3938  TIP3      H2            -52.5572666405        6.0138377139      -25.4384496465  W2        3938            0.0000000000
     11815      3939  TIP3      OH2           -54.7195366405        8.2966177139      -24.7999896465  W2        3939            0.0000000000
     11816      3939  TIP3      H1            -54.2275566405        8.0756677139      -25.5907896465  W2        3939            0.0000000000
     11817      3939  TIP3      H2            -54.3574466405        9.1369577139      -24.5190396465  W2        3939            0.0000000000
     11818      3940  TIP3      OH2           -36.7231566405        4.6267677139      -18.5345896465  W2        3940            0.0000000000
     11819      3940  TIP3      H1            -37.6405866405        4.8974777139      -18.5702396465  W2        3940            0.0000000000
     11820      3940  TIP3      H2            -36.6002166405        4.0916077139      -19.3186196465  W2        3940            0.0000000000
     11821      3941  TIP3      OH2           -36.6869566405        4.5497577139      -33.8728196465  W2        3941            0.0000000000
     11822      3941  TIP3      H1            -36.2746966405        3.8283277139      -34.3480196465  W2        3941            0.0000000000
     11823      3941  TIP3      H2            -36.0053066405        5.2192177139      -33.8143896465  W2        3941            0.0000000000
     11824      3942  TIP3      OH2           -54.4058866405        4.5545277139      -30.7457496465  W2        3942            0.0000000000
     11825      3942  TIP3      H1            -55.3310466405        4.7631877139      -30.8751996465  W2        3942            0.0000000000
     11826      3942  TIP3      H2            -53.9518966405        5.0386077139      -31.4355196465  W2        3942            0.0000000000
     11827      3943  TIP3      OH2           -39.6351666405       19.5386977139      -28.8000096465  W2        3943            0.0000000000
     11828      3943  TIP3      H1            -38.9828766405       19.1909077139      -29.4080996465  W2        3943            0.0000000000
     11829      3943  TIP3      H2            -39.1247866405       20.0270177139      -28.1540396465  W2        3943            0.0000000000
     11830      3944  TIP3      OH2           -54.4423466405        3.2924277139      -22.4014996465  W2        3944            0.0000000000
     11831      3944  TIP3      H1            -55.1072966405        3.0464577139      -21.7584096465  W2        3944            0.0000000000
     11832      3944  TIP3      H2            -54.8852166405        3.9144677139      -22.9786996465  W2        3944            0.0000000000
     11833      3945  TIP3      OH2           -52.2504166405       16.4678377139      -18.2569196465  W2        3945            0.0000000000
     11834      3945  TIP3      H1            -53.0711666405       16.6424877139      -18.7174496465  W2        3945            0.0000000000
     11835      3945  TIP3      H2            -52.5026366405       16.3943077139      -17.3364796465  W2        3945            0.0000000000
     11836      3946  TIP3      OH2           -49.2961266405       17.4419577139      -21.9985196465  W2        3946            0.0000000000
     11837      3946  TIP3      H1            -49.7210166405       18.2518077139      -22.2810596465  W2        3946            0.0000000000
     11838      3946  TIP3      H2            -48.3918466405       17.5273677139      -22.3005396465  W2        3946            0.0000000000
     11839      3947  TIP3      OH2           -44.9849866405       18.8409577139      -19.0391496465  W2        3947            0.0000000000
     11840      3947  TIP3      H1            -44.8002366405       18.5075677139      -18.1611196465  W2        3947            0.0000000000
     11841      3947  TIP3      H2            -44.1385366405       19.1508177139      -19.3612296465  W2        3947            0.0000000000
     11842      3948  TIP3      OH2           -42.6399466405       20.1268477139      -19.7950096465  W2        3948            0.0000000000
     11843      3948  TIP3      H1            -41.9630566405       19.4940777139      -20.0350896465  W2        3948            0.0000000000
     11844      3948  TIP3      H2            -42.3180666405       20.5278977139      -18.9876796465  W2        3948            0.0000000000
     11845      3949  TIP3      OH2           -37.7225666405        2.7163977139      -20.7155096465  W2        3949            0.0000000000
     11846      3949  TIP3      H1            -38.5352166405        3.0414277139      -21.1030396465  W2        3949            0.0000000000
     11847      3949  TIP3      H2            -37.4897166405        1.9562477139      -21.2485996465  W2        3949            0.0000000000
     11848      3950  TIP3      OH2           -51.8944566405       20.6983477139      -21.9509896465  W2        3950            0.0000000000
     11849      3950  TIP3      H1            -52.6148166405       21.1384477139      -22.4022196465  W2        3950            0.0000000000
     11850      3950  TIP3      H2            -52.2600566405       20.4478177139      -21.1025896465  W2        3950            0.0000000000
     11851      3951  TIP3      OH2           -49.4271966405       20.2987377139      -22.9212696465  W2        3951            0.0000000000
     11852      3951  TIP3      H1            -50.2919766405       20.3705877139      -22.5172596465  W2        3951            0.0000000000
     11853      3951  TIP3      H2            -49.4822966405       20.8454677139      -23.7050196465  W2        3951            0.0000000000
     11854      3952  TIP3      OH2           -44.7166366405       20.1866277139      -23.7456696465  W2        3952            0.0000000000
     11855      3952  TIP3      H1            -45.1732366405       20.7155977139      -24.3998296465  W2        3952            0.0000000000
     11856      3952  TIP3      H2            -44.5538366405       20.7897677139      -23.0204396465  W2        3952            0.0000000000
     11857      3953  TIP3      OH2           -42.3890066405       19.0645877139      -22.8006396465  W2        3953            0.0000000000
     11858      3953  TIP3      H1            -43.2936366405       19.2296077139      -23.0664296465  W2        3953            0.0000000000
     11859      3953  TIP3      H2            -41.9601466405       19.9178077139      -22.8662996465  W2        3953            0.0000000000
     11860      3954  TIP3      OH2           -39.7848166405       20.6344977139      -22.5058596465  W2        3954            0.0000000000
     11861      3954  TIP3      H1            -39.9666166405       21.5503877139      -22.7163696465  W2        3954            0.0000000000
     11862      3954  TIP3      H2            -39.6080366405       20.2242077139      -23.3523996465  W2        3954            0.0000000000
     11863      3955  TIP3      OH2           -52.4796466405       19.3215977139      -25.0408096465  W2        3955            0.0000000000
     11864      3955  TIP3      H1            -52.4980466405       18.8961077139      -24.1835796465  W2        3955            0.0000000000
     11865      3955  TIP3      H2            -51.6748566405       19.0030977139      -25.4495896465  W2        3955            0.0000000000
     11866      3956  TIP3      OH2           -50.3383366405       18.0314677139      -26.3858196465  W2        3956            0.0000000000
     11867      3956  TIP3      H1            -50.5572666405       17.1152077139      -26.2162196465  W2        3956            0.0000000000
     11868      3956  TIP3      H2            -49.5141166405       18.1715077139      -25.9196796465  W2        3956            0.0000000000
     11869      3957  TIP3      OH2           -47.8010866405       18.5013977139      -25.5370196465  W2        3957            0.0000000000
     11870      3957  TIP3      H1            -47.5885166405       17.6132977139      -25.8239296465  W2        3957            0.0000000000
     11871      3957  TIP3      H2            -47.7365766405       18.4671677139      -24.5826196465  W2        3957            0.0000000000
     11872      3958  TIP3      OH2           -44.2927166405        4.1654577139      -26.3926896465  W2        3958            0.0000000000
     11873      3958  TIP3      H1            -44.9670366405        3.5360177139      -26.1371096465  W2        3958            0.0000000000
     11874      3958  TIP3      H2            -43.7287966405        3.6813477139      -26.9958996465  W2        3958            0.0000000000
     11875      3959  TIP3      OH2           -39.1499966405        2.2728577139      -26.2799796465  W2        3959            0.0000000000
     11876      3959  TIP3      H1            -38.5462366405        2.8203977139      -26.7818796465  W2        3959            0.0000000000
     11877      3959  TIP3      H2            -40.0197966405        2.5918977139      -26.5205696465  W2        3959            0.0000000000
     11878      3960  TIP3      OH2           -37.4229566405        3.4117277139      -27.9468896465  W2        3960            0.0000000000
     11879      3960  TIP3      H1            -36.8112066405        2.8972977139      -28.4735296465  W2        3960            0.0000000000
     11880      3960  TIP3      H2            -37.0406166405        4.2889377139      -27.9234496465  W2        3960            0.0000000000
     11881      3961  TIP3      OH2           -51.9659666405        2.7994877139      -28.5706996465  W2        3961            0.0000000000
     11882      3961  TIP3      H1            -52.7429866405        2.5649777139      -29.0781096465  W2        3961            0.0000000000
     11883      3961  TIP3      H2            -51.4356066405        2.0026977139      -28.5618996465  W2        3961            0.0000000000
     11884      3962  TIP3      OH2           -53.1296266405        2.5972977139      -32.7670896465  W2        3962            0.0000000000
     11885      3962  TIP3      H1            -52.6905566405        3.2083477139      -33.3587396465  W2        3962            0.0000000000
     11886      3962  TIP3      H2            -53.7633866405        3.1357077139      -32.2930896465  W2        3962            0.0000000000
     11887      3963  TIP3      OH2           -47.3867066405        2.7261977139      -28.7573896465  W2        3963            0.0000000000
     11888      3963  TIP3      H1            -46.5123666405        3.1146277139      -28.7869596465  W2        3963            0.0000000000
     11889      3963  TIP3      H2            -47.5226266405        2.5109777139      -27.8346696465  W2        3963            0.0000000000
     11890      3964  TIP3      OH2           -41.8298666405        2.7561777139      -27.1082196465  W2        3964            0.0000000000
     11891      3964  TIP3      H1            -41.7537066405        2.8513377139      -28.0576196465  W2        3964            0.0000000000
     11892      3964  TIP3      H2            -42.1049466405        1.8484677139      -26.9793096465  W2        3964            0.0000000000
     11893      3965  TIP3      OH2           -40.4766066405        2.7819577139      -31.4157196465  W2        3965            0.0000000000
     11894      3965  TIP3      H1            -41.1794966405        3.3968777139      -31.6255796465  W2        3965            0.0000000000
     11895      3965  TIP3      H2            -40.9214666405        1.9446277139      -31.2846296465  W2        3965            0.0000000000
     11896      3966  TIP3      OH2           -53.2286766405       18.5455177139      -31.8695796465  W2        3966            0.0000000000
     11897      3966  TIP3      H1            -53.9136866405       18.5074077139      -32.5370696465  W2        3966            0.0000000000
     11898      3966  TIP3      H2            -53.2249566405       19.4582777139      -31.5813696465  W2        3966            0.0000000000
     11899      3967  TIP3      OH2           -51.2687166405        4.5134477139      -34.3246796465  W2        3967            0.0000000000
     11900      3967  TIP3      H1            -50.7773766405        3.8836877139      -34.8521296465  W2        3967            0.0000000000
     11901      3967  TIP3      H2            -50.6450866405        4.8093877139      -33.6615596465  W2        3967            0.0000000000
     11902      3968  TIP3      OH2           -46.2427066405        4.8065977139      -31.8676296465  W2        3968            0.0000000000
     11903      3968  TIP3      H1            -46.0645766405        4.1599177139      -31.1847696465  W2        3968            0.0000000000
     11904      3968  TIP3      H2            -46.2960866405        5.6403677139      -31.4005196465  W2        3968            0.0000000000
     11905      3969  TIP3      OH2           -44.3643266405       19.7550077139      -33.4719596465  W2        3969            0.0000000000
     11906      3969  TIP3      H1            -43.4983066405       20.1217477139      -33.6501396465  W2        3969            0.0000000000
     11907      3969  TIP3      H2            -44.6110466405       19.3158077139      -34.2858796465  W2        3969            0.0000000000
     11908      3970  TIP3      OH2           -37.6553666405       19.3180377139      -30.7928496465  W2        3970            0.0000000000
     11909      3970  TIP3      H1            -37.8496566405       18.5702477139      -31.3578896465  W2        3970            0.0000000000
     11910      3970  TIP3      H2            -37.6943566405       20.0760477139      -31.3760596465  W2        3970            0.0000000000
     11911      3971  TIP3      OH2           -52.0081666405        3.3136777139      -19.0530796465  W2        3971            0.0000000000
     11912      3971  TIP3      H1            -52.3743466405        2.5479377139      -18.6106096465  W2        3971            0.0000000000
     11913      3971  TIP3      H2            -51.0953166405        3.3426977139      -18.7665696465  W2        3971            0.0000000000
     11914      3972  TIP3      OH2           -50.0350866405        2.6641177139      -17.5173696465  W2        3972            0.0000000000
     11915      3972  TIP3      H1            -49.1367266405        2.3901377139      -17.7020296465  W2        3972            0.0000000000
     11916      3972  TIP3      H2            -50.4217766405        1.9217177139      -17.0531096465  W2        3972            0.0000000000
     11917      3973  TIP3      OH2           -51.4105566405       19.4655977139      -34.8443696465  W2        3973            0.0000000000
     11918      3973  TIP3      H1            -51.6780966405       19.7518877139      -33.9710596465  W2        3973            0.0000000000
     11919      3973  TIP3      H2            -50.6392966405       18.9195177139      -34.6921196465  W2        3973            0.0000000000
     11920      3974  TIP3      OH2           -41.6138566405        1.9966477139      -17.3350896465  W2        3974            0.0000000000
     11921      3974  TIP3      H1            -41.5371366405        1.5707177139      -16.4813196465  W2        3974            0.0000000000
     11922      3974  TIP3      H2            -40.7201966405        2.0101177139      -17.6777396465  W2        3974            0.0000000000
     11923      3975  TIP3      OH2           -38.4377466405       18.0692777139      -18.6426696465  W2        3975            0.0000000000
     11924      3975  TIP3      H1            -39.2195566405       17.8830777139      -19.1626096465  W2        3975            0.0000000000
     11925      3975  TIP3      H2            -38.5097566405       18.9987077139      -18.4254196465  W2        3975            0.0000000000
     11926      3976  TIP3      OH2           -24.0317066405       11.9557177139      -28.6119496465  W2        3976            0.0000000000
     11927      3976  TIP3      H1            -23.9425966405       12.8995377139      -28.7442396465  W2        3976            0.0000000000
     11928      3976  TIP3      H2            -24.6699466405       11.6803577139      -29.2700096465  W2        3976            0.0000000000
     11929      3977  TIP3      OH2           -25.0985766405       11.2107877139      -25.1931296465  W2        3977            0.0000000000
     11930      3977  TIP3      H1            -25.1368266405       10.5644177139      -24.4881696465  W2        3977            0.0000000000
     11931      3977  TIP3      H2            -25.4209266405       10.7442277139      -25.9642596465  W2        3977            0.0000000000
     11932      3978  TIP3      OH2           -32.7300766405       10.8249977139      -23.6001396465  W2        3978            0.0000000000
     11933      3978  TIP3      H1            -32.6888666405       10.1993277139      -22.8768996465  W2        3978            0.0000000000
     11934      3978  TIP3      H2            -32.0273066405       11.4488577139      -23.4180996465  W2        3978            0.0000000000
     11935      3979  TIP3      OH2           -21.3925566405       14.1498277139      -26.8916196465  W2        3979            0.0000000000
     11936      3979  TIP3      H1            -21.8332866405       13.4294277139      -26.4410596465  W2        3979            0.0000000000
     11937      3979  TIP3      H2            -21.4055866405       14.8705477139      -26.2618496465  W2        3979            0.0000000000
     11938      3980  TIP3      OH2           -31.8067666405       15.2748877139      -25.0652296465  W2        3980            0.0000000000
     11939      3980  TIP3      H1            -32.1762466405       14.4729377139      -25.4347996465  W2        3980            0.0000000000
     11940      3980  TIP3      H2            -30.8656566405       15.1063777139      -25.0188896465  W2        3980            0.0000000000
     11941      3981  TIP3      OH2           -35.1967166405        8.9351477139      -29.6723496465  W2        3981            0.0000000000
     11942      3981  TIP3      H1            -35.6443766405        9.7810177139      -29.6906996465  W2        3981            0.0000000000
     11943      3981  TIP3      H2            -35.7575966405        8.3555677139      -30.1878396465  W2        3981            0.0000000000
     11944      3982  TIP3      OH2           -34.4861066405       11.0971077139      -27.5465496465  W2        3982            0.0000000000
     11945      3982  TIP3      H1            -34.2727566405       10.3272677139      -27.0192496465  W2        3982            0.0000000000
     11946      3982  TIP3      H2            -33.7483466405       11.1867777139      -28.1497896465  W2        3982            0.0000000000
     11947      3983  TIP3      OH2           -24.2810066405       19.2539977139      -26.6795796465  W2        3983            0.0000000000
     11948      3983  TIP3      H1            -23.6613666405       18.5774677139      -26.9526596465  W2        3983            0.0000000000
     11949      3983  TIP3      H2            -24.4892666405       19.0360777139      -25.7710896465  W2        3983            0.0000000000
     11950      3984  TIP3      OH2           -26.7091366405       13.6429277139      -24.7870296465  W2        3984            0.0000000000
     11951      3984  TIP3      H1            -26.4053466405       12.9570677139      -25.3816196465  W2        3984            0.0000000000
     11952      3984  TIP3      H2            -25.9877366405       13.7617977139      -24.1692296465  W2        3984            0.0000000000
     11953      3985  TIP3      OH2           -18.0461566405        5.2444577139      -23.9264096465  W2        3985            0.0000000000
     11954      3985  TIP3      H1            -17.9969366405        5.8545777139      -23.1904996465  W2        3985            0.0000000000
     11955      3985  TIP3      H2            -17.6206466405        5.7055477139      -24.6492996465  W2        3985            0.0000000000
     11956      3986  TIP3      OH2           -23.5684366405        8.0371677139      -24.4595496465  W2        3986            0.0000000000
     11957      3986  TIP3      H1            -23.4258466405        7.0908677139      -24.4393896465  W2        3986            0.0000000000
     11958      3986  TIP3      H2            -23.6745366405        8.2441477139      -25.3880596465  W2        3986            0.0000000000
     11959      3987  TIP3      OH2           -30.4136066405        6.1388077139      -27.1870696465  W2        3987            0.0000000000
     11960      3987  TIP3      H1            -30.3704966405        6.9986577139      -27.6054396465  W2        3987            0.0000000000
     11961      3987  TIP3      H2            -30.8711966405        5.5862777139      -27.8207496465  W2        3987            0.0000000000
     11962      3988  TIP3      OH2           -22.6913366405        6.2693677139      -28.7862396465  W2        3988            0.0000000000
     11963      3988  TIP3      H1            -22.0449066405        5.9406877139      -28.1614796465  W2        3988            0.0000000000
     11964      3988  TIP3      H2            -22.1813966405        6.7872677139      -29.4090996465  W2        3988            0.0000000000
     11965      3989  TIP3      OH2           -33.7934566405        8.5353877139      -26.4249296465  W2        3989            0.0000000000
     11966      3989  TIP3      H1            -33.1397966405        7.9855577139      -25.9929196465  W2        3989            0.0000000000
     11967      3989  TIP3      H2            -33.7695266405        8.2612877139      -27.3417296465  W2        3989            0.0000000000
     11968      3990  TIP3      OH2           -28.6370066405       10.0855177139      -27.2097796465  W2        3990            0.0000000000
     11969      3990  TIP3      H1            -28.0209066405        9.5590577139      -26.7003796465  W2        3990            0.0000000000
     11970      3990  TIP3      H2            -29.2231266405        9.4453877139      -27.6134196465  W2        3990            0.0000000000
     11971      3991  TIP3      OH2           -17.6546966405        6.7223777139      -21.6904296465  W2        3991            0.0000000000
     11972      3991  TIP3      H1            -18.3432366405        7.3804477139      -21.7857696465  W2        3991            0.0000000000
     11973      3991  TIP3      H2            -17.6392366405        6.5251677139      -20.7538896465  W2        3991            0.0000000000
     11974      3992  TIP3      OH2           -31.6034166405        5.0566477139      -23.1129896465  W2        3992            0.0000000000
     11975      3992  TIP3      H1            -31.8222466405        5.5867077139      -23.8793896465  W2        3992            0.0000000000
     11976      3992  TIP3      H2            -32.2713266405        5.2831977139      -22.4658496465  W2        3992            0.0000000000
     11977      3993  TIP3      OH2           -24.2344366405       14.5567577139      -29.5690796465  W2        3993            0.0000000000
     11978      3993  TIP3      H1            -24.5299266405       14.2339877139      -30.4203896465  W2        3993            0.0000000000
     11979      3993  TIP3      H2            -24.5586566405       15.4564277139      -29.5278196465  W2        3993            0.0000000000
     11980      3994  TIP3      OH2           -29.0342766405       12.7322177139      -22.8256196465  W2        3994            0.0000000000
     11981      3994  TIP3      H1            -29.7743666405       13.3303677139      -22.7220996465  W2        3994            0.0000000000
     11982      3994  TIP3      H2            -28.3203266405       13.2861777139      -23.1412596465  W2        3994            0.0000000000
     11983      3995  TIP3      OH2           -20.9274966405        5.5602977139      -26.8056496465  W2        3995            0.0000000000
     11984      3995  TIP3      H1            -21.1426966405        4.7946377139      -26.2730496465  W2        3995            0.0000000000
     11985      3995  TIP3      H2            -20.2717566405        6.0327577139      -26.2927996465  W2        3995            0.0000000000
     11986      3996  TIP3      OH2           -32.0096866405        6.9488277139      -25.1607696465  W2        3996            0.0000000000
     11987      3996  TIP3      H1            -31.3960566405        7.5815877139      -24.7875296465  W2        3996            0.0000000000
     11988      3996  TIP3      H2            -31.4976166405        6.4763277139      -25.8170796465  W2        3996            0.0000000000
     11989      3997  TIP3      OH2           -30.6268466405       14.6965177139      -22.0384696465  W2        3997            0.0000000000
     11990      3997  TIP3      H1            -30.6320866405       15.5758677139      -22.4165396465  W2        3997            0.0000000000
     11991      3997  TIP3      H2            -31.4804366405       14.6129277139      -21.6134796465  W2        3997            0.0000000000
     11992      3998  TIP3      OH2           -34.5057566405       14.3673077139      -31.2565396465  W2        3998            0.0000000000
     11993      3998  TIP3      H1            -34.7776666405       14.5964077139      -32.1452496465  W2        3998            0.0000000000
     11994      3998  TIP3      H2            -34.4601866405       15.2051877139      -30.7960096465  W2        3998            0.0000000000
     11995      3999  TIP3      OH2           -20.8807866405       15.9888977139      -24.5436896465  W2        3999            0.0000000000
     11996      3999  TIP3      H1            -21.8224166405       16.0472877139      -24.3819996465  W2        3999            0.0000000000
     11997      3999  TIP3      H2            -20.6041766405       16.8949477139      -24.6807196465  W2        3999            0.0000000000
     11998      4000  TIP3      OH2           -20.5800866405        4.2754277139      -23.1262996465  W2        4000            0.0000000000
     11999      4000  TIP3      H1            -21.3161666405        4.8861377139      -23.1641696465  W2        4000            0.0000000000
     12000      4000  TIP3      H2            -19.8966866405        4.6903277139      -23.6526596465  W2        4000            0.0000000000
     12001      4001  TIP3      OH2           -27.5769466405        2.3621577139      -25.6604996465  W2        4001            0.0000000000
     12002      4001  TIP3      H1            -27.6945266405        1.4137577139      -25.7146696465  W2        4001            0.0000000000
     12003      4001  TIP3      H2            -28.4319366405        2.6947677139      -25.3873896465  W2        4001            0.0000000000
     12004      4002  TIP3      OH2           -22.6286666405       17.7702477139      -27.9185296465  W2        4002            0.0000000000
     12005      4002  TIP3      H1            -22.2034366405       17.0630377139      -28.4035696465  W2        4002            0.0000000000
     12006      4002  TIP3      H2            -22.3116666405       18.5715177139      -28.3353096465  W2        4002            0.0000000000
     12007      4003  TIP3      OH2           -21.4690166405       15.6710977139      -29.4098696465  W2        4003            0.0000000000
     12008      4003  TIP3      H1            -21.7265366405       14.9811077139      -30.0212796465  W2        4003            0.0000000000
     12009      4003  TIP3      H2            -21.3979366405       15.2282177139      -28.5642796465  W2        4003            0.0000000000
     12010      4004  TIP3      OH2           -19.7829966405       14.2377677139      -20.9325196465  W2        4004            0.0000000000
     12011      4004  TIP3      H1            -19.6433666405       13.6460177139      -21.6718196465  W2        4004            0.0000000000
     12012      4004  TIP3      H2            -19.6157166405       15.1103577139      -21.2886396465  W2        4004            0.0000000000
     12013      4005  TIP3      OH2           -25.3104566405       11.1997177139      -31.1599196465  W2        4005            0.0000000000
     12014      4005  TIP3      H1            -26.0219066405       11.7346877139      -31.5118696465  W2        4005            0.0000000000
     12015      4005  TIP3      H2            -24.6194966405       11.2549277139      -31.8200296465  W2        4005            0.0000000000
     12016      4006  TIP3      OH2           -25.2565366405        9.6571477139      -34.1214196465  W2        4006            0.0000000000
     12017      4006  TIP3      H1            -24.5555466405        9.6798377139      -33.4700196465  W2        4006            0.0000000000
     12018      4006  TIP3      H2            -24.9542466405        9.0291177139      -34.7774896465  W2        4006            0.0000000000
     12019      4007  TIP3      OH2           -17.9410666405       10.5775677139      -22.8664796465  W2        4007            0.0000000000
     12020      4007  TIP3      H1            -18.5936566405       11.2721277139      -22.7773896465  W2        4007            0.0000000000
     12021      4007  TIP3      H2            -17.4760366405       10.7876577139      -23.6763196465  W2        4007            0.0000000000
     12022      4008  TIP3      OH2           -21.9046866405       11.4090477139      -30.2083296465  W2        4008            0.0000000000
     12023      4008  TIP3      H1            -22.6365866405       11.6374177139      -29.6352696465  W2        4008            0.0000000000
     12024      4008  TIP3      H2            -21.4574666405       10.6953177139      -29.7535796465  W2        4008            0.0000000000
     12025      4009  TIP3      OH2           -22.0073366405        9.5833077139      -21.1406296465  W2        4009            0.0000000000
     12026      4009  TIP3      H1            -21.9274266405       10.3467477139      -20.5687796465  W2        4009            0.0000000000
     12027      4009  TIP3      H2            -22.6085666405        9.8625477139      -21.8311196465  W2        4009            0.0000000000
     12028      4010  TIP3      OH2           -30.2593166405       12.0396677139      -28.3258296465  W2        4010            0.0000000000
     12029      4010  TIP3      H1            -30.5897966405       11.6690077139      -29.1441296465  W2        4010            0.0000000000
     12030      4010  TIP3      H2            -29.6709066405       11.3690677139      -27.9789996465  W2        4010            0.0000000000
     12031      4011  TIP3      OH2           -28.8925666405       15.4677277139      -25.6446096465  W2        4011            0.0000000000
     12032      4011  TIP3      H1            -28.9874366405       14.8890377139      -26.4011496465  W2        4011            0.0000000000
     12033      4011  TIP3      H2            -28.1632066405       15.0962977139      -25.1483296465  W2        4011            0.0000000000
     12034      4012  TIP3      OH2           -29.8927666405       10.8082277139      -24.6923296465  W2        4012            0.0000000000
     12035      4012  TIP3      H1            -29.3275166405       10.9296477139      -25.4552096465  W2        4012            0.0000000000
     12036      4012  TIP3      H2            -29.5738766405       11.4457277139      -24.0534796465  W2        4012            0.0000000000
     12037      4013  TIP3      OH2           -23.5835466405       16.3114177139      -23.9582796465  W2        4013            0.0000000000
     12038      4013  TIP3      H1            -23.8238866405       16.9737277139      -23.3103596465  W2        4013            0.0000000000
     12039      4013  TIP3      H2            -23.7817266405       15.4769377139      -23.5333196465  W2        4013            0.0000000000
     12040      4014  TIP3      OH2           -29.0126966405       15.2074977139      -19.9751396465  W2        4014            0.0000000000
     12041      4014  TIP3      H1            -29.3239466405       15.9898177139      -19.5198196465  W2        4014            0.0000000000
     12042      4014  TIP3      H2            -29.6626766405       15.0544077139      -20.6609396465  W2        4014            0.0000000000
     12043      4015  TIP3      OH2           -23.0337366405       10.5713377139      -32.5232096465  W2        4015            0.0000000000
     12044      4015  TIP3      H1            -22.4541866405       10.7213677139      -31.7763196465  W2        4015            0.0000000000
     12045      4015  TIP3      H2            -22.6197366405       11.0420777139      -33.2465696465  W2        4015            0.0000000000
     12046      4016  TIP3      OH2           -32.0927066405       11.4056077139      -20.7465696465  W2        4016            0.0000000000
     12047      4016  TIP3      H1            -32.0223866405       12.0562877139      -20.0480696465  W2        4016            0.0000000000
     12048      4016  TIP3      H2            -32.9834866405       11.5083577139      -21.0814796465  W2        4016            0.0000000000
     12049      4017  TIP3      OH2           -25.3072466405       17.3081877139      -29.0878996465  W2        4017            0.0000000000
     12050      4017  TIP3      H1            -24.8334866405       17.6038177139      -28.3104796465  W2        4017            0.0000000000
     12051      4017  TIP3      H2            -25.8703166405       18.0463477139      -29.3209396465  W2        4017            0.0000000000
     12052      4018  TIP3      OH2           -30.7731066405       17.2789977139      -19.2117596465  W2        4018            0.0000000000
     12053      4018  TIP3      H1            -30.7655766405       17.1429677139      -20.1592096465  W2        4018            0.0000000000
     12054      4018  TIP3      H2            -31.6890666405       17.1618077139      -18.9597596465  W2        4018            0.0000000000
     12055      4019  TIP3      OH2           -19.3348966405        2.3213777139      -32.7102396465  W2        4019            0.0000000000
     12056      4019  TIP3      H1            -20.2348266405        2.4602777139      -32.4151796465  W2        4019            0.0000000000
     12057      4019  TIP3      H2            -19.0830566405        3.1528377139      -33.1120696465  W2        4019            0.0000000000
     12058      4020  TIP3      OH2           -31.2690466405       11.1090977139      -30.7365496465  W2        4020            0.0000000000
     12059      4020  TIP3      H1            -31.5609166405       11.8772677139      -31.2274196465  W2        4020            0.0000000000
     12060      4020  TIP3      H2            -31.9435266405       10.4497177139      -30.8994096465  W2        4020            0.0000000000
     12061      4021  TIP3      OH2           -18.1457566405       16.6876177139      -34.3338496465  W2        4021            0.0000000000
     12062      4021  TIP3      H1            -18.0724066405       17.6266377139      -34.1633196465  W2        4021            0.0000000000
     12063      4021  TIP3      H2            -17.2402466405       16.3824777139      -34.3901196465  W2        4021            0.0000000000
     12064      4022  TIP3      OH2           -35.1760366405       13.4720177139      -21.9215696465  W2        4022            0.0000000000
     12065      4022  TIP3      H1            -35.6771966405       13.4439577139      -22.7365996465  W2        4022            0.0000000000
     12066      4022  TIP3      H2            -35.1706666405       12.5663377139      -21.6118396465  W2        4022            0.0000000000
     12067      4023  TIP3      OH2           -35.4257666405       16.2523977139      -25.0375496465  W2        4023            0.0000000000
     12068      4023  TIP3      H1            -34.4797066405       16.1080977139      -25.0565996465  W2        4023            0.0000000000
     12069      4023  TIP3      H2            -35.5381366405       17.0366777139      -24.5004296465  W2        4023            0.0000000000
     12070      4024  TIP3      OH2           -17.2279166405       16.9183677139      -19.3551796465  W2        4024            0.0000000000
     12071      4024  TIP3      H1            -17.2772366405       15.9631777139      -19.3924196465  W2        4024            0.0000000000
     12072      4024  TIP3      H2            -18.0546866405       17.1858977139      -18.9537996465  W2        4024            0.0000000000
     12073      4025  TIP3      OH2           -26.2495166405       16.4922877139      -20.4790396465  W2        4025            0.0000000000
     12074      4025  TIP3      H1            -26.1620566405       17.3187477139      -20.0041296465  W2        4025            0.0000000000
     12075      4025  TIP3      H2            -27.1130066405       16.1626677139      -20.2301096465  W2        4025            0.0000000000
     12076      4026  TIP3      OH2           -25.8349366405       20.2646577139      -30.6729796465  W2        4026            0.0000000000
     12077      4026  TIP3      H1            -25.9103366405       20.1433777139      -31.6194596465  W2        4026            0.0000000000
     12078      4026  TIP3      H2            -25.8020666405       21.2139277139      -30.5545196465  W2        4026            0.0000000000
     12079      4027  TIP3      OH2           -32.1815566405       19.0533577139      -28.8920796465  W2        4027            0.0000000000
     12080      4027  TIP3      H1            -32.0295166405       18.7053977139      -28.0134296465  W2        4027            0.0000000000
     12081      4027  TIP3      H2            -33.0325166405       18.6970877139      -29.1473596465  W2        4027            0.0000000000
     12082      4028  TIP3      OH2           -22.7333366405       19.4186777139      -33.6707396465  W2        4028            0.0000000000
     12083      4028  TIP3      H1            -22.3584966405       18.6742877139      -34.1414796465  W2        4028            0.0000000000
     12084      4028  TIP3      H2            -22.7289666405       19.1487377139      -32.7524096465  W2        4028            0.0000000000
     12085      4029  TIP3      OH2           -23.0645266405       19.3443877139      -30.9215196465  W2        4029            0.0000000000
     12086      4029  TIP3      H1            -23.9995466405       19.4445777139      -30.7428196465  W2        4029            0.0000000000
     12087      4029  TIP3      H2            -22.7843366405       18.6349877139      -30.3431996465  W2        4029            0.0000000000
     12088      4030  TIP3      OH2           -20.0759366405        8.4116177139      -18.8749596465  W2        4030            0.0000000000
     12089      4030  TIP3      H1            -20.4832566405        8.8921777139      -19.5956296465  W2        4030            0.0000000000
     12090      4030  TIP3      H2            -20.0353666405        7.5062177139      -19.1828796465  W2        4030            0.0000000000
     12091      4031  TIP3      OH2           -32.9269866405       14.7955577139      -20.8782896465  W2        4031            0.0000000000
     12092      4031  TIP3      H1            -32.7108566405       14.4341177139      -20.0187096465  W2        4031            0.0000000000
     12093      4031  TIP3      H2            -33.7825166405       14.4209377139      -21.0879396465  W2        4031            0.0000000000
     12094      4032  TIP3      OH2           -30.3081866405        3.2656077139      -24.8828696465  W2        4032            0.0000000000
     12095      4032  TIP3      H1            -31.1698166405        3.1784277139      -25.2905796465  W2        4032            0.0000000000
     12096      4032  TIP3      H2            -30.3306166405        4.1216177139      -24.4551096465  W2        4032            0.0000000000
     12097      4033  TIP3      OH2           -25.6454066405        2.9876477139      -21.5081696465  W2        4033            0.0000000000
     12098      4033  TIP3      H1            -25.2250966405        2.5723577139      -20.7551096465  W2        4033            0.0000000000
     12099      4033  TIP3      H2            -26.5784466405        2.8089777139      -21.3909696465  W2        4033            0.0000000000
     12100      4034  TIP3      OH2           -22.3189166405        6.7431677139      -20.6547196465  W2        4034            0.0000000000
     12101      4034  TIP3      H1            -22.8329666405        6.6173877139      -19.8571196465  W2        4034            0.0000000000
     12102      4034  TIP3      H2            -22.4744466405        7.6554777139      -20.8990996465  W2        4034            0.0000000000
     12103      4035  TIP3      OH2           -21.5564266405       11.6041677139      -34.8934196465  W2        4035            0.0000000000
     12104      4035  TIP3      H1            -21.5143466405       11.3815577139      -35.8234196465  W2        4035            0.0000000000
     12105      4035  TIP3      H2            -20.7072166405       12.0028777139      -34.7034296465  W2        4035            0.0000000000
     12106      4036  TIP3      OH2           -25.9836766405        5.4799877139      -34.2230896465  W2        4036            0.0000000000
     12107      4036  TIP3      H1            -26.2371966405        5.4991477139      -33.3002796465  W2        4036            0.0000000000
     12108      4036  TIP3      H2            -26.2404666405        4.6085277139      -34.5244696465  W2        4036            0.0000000000
     12109      4037  TIP3      OH2           -30.2171766405        8.2310577139      -23.7878496465  W2        4037            0.0000000000
     12110      4037  TIP3      H1            -30.8589666405        8.1907877139      -23.0788396465  W2        4037            0.0000000000
     12111      4037  TIP3      H2            -30.1799766405        9.1575277139      -24.0255496465  W2        4037            0.0000000000
     12112      4038  TIP3      OH2           -30.2202666405        8.4520677139      -28.8758496465  W2        4038            0.0000000000
     12113      4038  TIP3      H1            -31.1129766405        8.1116777139      -28.9344696465  W2        4038            0.0000000000
     12114      4038  TIP3      H2            -29.7696066405        8.0751577139      -29.6315296465  W2        4038            0.0000000000
     12115      4039  TIP3      OH2           -24.6847166405        8.8680977139      -30.0587696465  W2        4039            0.0000000000
     12116      4039  TIP3      H1            -25.0936866405        9.6829577139      -30.3502896465  W2        4039            0.0000000000
     12117      4039  TIP3      H2            -23.9640966405        8.7281077139      -30.6730596465  W2        4039            0.0000000000
     12118      4040  TIP3      OH2           -25.5825566405        9.0437377139      -18.5706996465  W2        4040            0.0000000000
     12119      4040  TIP3      H1            -26.1451766405        8.3388977139      -18.2499196465  W2        4040            0.0000000000
     12120      4040  TIP3      H2            -24.7562166405        8.9229277139      -18.1029396465  W2        4040            0.0000000000
     12121      4041  TIP3      OH2           -23.6799466405        8.3141377139      -27.2447996465  W2        4041            0.0000000000
     12122      4041  TIP3      H1            -23.8754966405        8.9198177139      -27.9597396465  W2        4041            0.0000000000
     12123      4041  TIP3      H2            -23.4986866405        7.4806577139      -27.6791696465  W2        4041            0.0000000000
     12124      4042  TIP3      OH2           -32.4671266405        8.5514077139      -21.9206496465  W2        4042            0.0000000000
     12125      4042  TIP3      H1            -32.5051866405        8.9515677139      -21.0519396465  W2        4042            0.0000000000
     12126      4042  TIP3      H2            -32.9580166405        7.7346477139      -21.8303596465  W2        4042            0.0000000000
     12127      4043  TIP3      OH2           -29.1013866405        5.9256377139      -35.1220496465  W2        4043            0.0000000000
     12128      4043  TIP3      H1            -29.5323166405        5.4806477139      -34.3923096465  W2        4043            0.0000000000
     12129      4043  TIP3      H2            -29.8195166405        6.2972677139      -35.6342996465  W2        4043            0.0000000000
     12130      4044  TIP3      OH2           -35.8590466405        5.6675877139      -28.0701796465  W2        4044            0.0000000000
     12131      4044  TIP3      H1            -35.2282766405        5.6387977139      -27.3507896465  W2        4044            0.0000000000
     12132      4044  TIP3      H2            -35.4096166405        5.2424577139      -28.8005896465  W2        4044            0.0000000000
     12133      4045  TIP3      OH2           -34.5848366405        6.4137877139      -32.6461396465  W2        4045            0.0000000000
     12134      4045  TIP3      H1            -34.1106666405        7.0047777139      -33.2310496465  W2        4045            0.0000000000
     12135      4045  TIP3      H2            -35.3021966405        6.9440777139      -32.2991296465  W2        4045            0.0000000000
     12136      4046  TIP3      OH2           -24.4160266405        9.9522677139      -22.5735596465  W2        4046            0.0000000000
     12137      4046  TIP3      H1            -24.0925466405        9.3212377139      -23.2165096465  W2        4046            0.0000000000
     12138      4046  TIP3      H2            -24.8560966405        9.4174877139      -21.9128196465  W2        4046            0.0000000000
     12139      4047  TIP3      OH2           -27.6387366405        5.8798177139      -27.7894396465  W2        4047            0.0000000000
     12140      4047  TIP3      H1            -28.5496266405        5.9364977139      -27.5008396465  W2        4047            0.0000000000
     12141      4047  TIP3      H2            -27.1334466405        5.8193677139      -26.9787196465  W2        4047            0.0000000000
     12142      4048  TIP3      OH2           -32.8103966405        7.5084477139      -28.9626796465  W2        4048            0.0000000000
     12143      4048  TIP3      H1            -33.6995966405        7.6079977139      -29.3027196465  W2        4048            0.0000000000
     12144      4048  TIP3      H2            -32.5139066405        6.6667477139      -29.3088896465  W2        4048            0.0000000000
     12145      4049  TIP3      OH2           -29.1572166405        7.5087077139      -31.3062196465  W2        4049            0.0000000000
     12146      4049  TIP3      H1            -28.2256666405        7.6377077139      -31.1279096465  W2        4049            0.0000000000
     12147      4049  TIP3      H2            -29.3721866405        8.1781377139      -31.9557496465  W2        4049            0.0000000000
     12148      4050  TIP3      OH2           -23.2335466405        5.1144477139      -24.5252596465  W2        4050            0.0000000000
     12149      4050  TIP3      H1            -23.9103866405        5.2457577139      -23.8612896465  W2        4050            0.0000000000
     12150      4050  TIP3      H2            -23.7190566405        4.9593977139      -25.3354896465  W2        4050            0.0000000000
     12151      4051  TIP3      OH2           -30.4831966405        8.7029277139      -33.7396096465  W2        4051            0.0000000000
     12152      4051  TIP3      H1            -31.0256866405        8.3233077139      -34.4308496465  W2        4051            0.0000000000
     12153      4051  TIP3      H2            -29.6497066405        8.8973977139      -34.1681996465  W2        4051            0.0000000000
     12154      4052  TIP3      OH2           -19.9460366405       20.7859877139      -18.2484996465  W2        4052            0.0000000000
     12155      4052  TIP3      H1            -19.7461666405       21.2101777139      -19.0829696465  W2        4052            0.0000000000
     12156      4052  TIP3      H2            -19.2906666405       21.1298077139      -17.6414596465  W2        4052            0.0000000000
     12157      4053  TIP3      OH2           -32.3480566405       13.2601177139      -18.6404496465  W2        4053            0.0000000000
     12158      4053  TIP3      H1            -31.6158166405       13.5147077139      -18.0789996465  W2        4053            0.0000000000
     12159      4053  TIP3      H2            -33.1281866405       13.4646577139      -18.1249096465  W2        4053            0.0000000000
     12160      4054  TIP3      OH2           -26.3187666405        8.6671177139      -25.9024796465  W2        4054            0.0000000000
     12161      4054  TIP3      H1            -25.7544266405        8.1207777139      -26.4495196465  W2        4054            0.0000000000
     12162      4054  TIP3      H2            -26.4664266405        8.1453077139      -25.1137196465  W2        4054            0.0000000000
     12163      4055  TIP3      OH2           -31.3167966405        4.8037277139      -29.4839996465  W2        4055            0.0000000000
     12164      4055  TIP3      H1            -31.6338466405        3.9012577139      -29.5194596465  W2        4055            0.0000000000
     12165      4055  TIP3      H2            -30.5353866405        4.8054677139      -30.0368396465  W2        4055            0.0000000000
     12166      4056  TIP3      OH2           -27.6921766405        7.0557277139      -23.4884396465  W2        4056            0.0000000000
     12167      4056  TIP3      H1            -28.5276466405        7.5096777139      -23.3781996465  W2        4056            0.0000000000
     12168      4056  TIP3      H2            -27.1681166405        7.3315777139      -22.7364496465  W2        4056            0.0000000000
     12169      4057  TIP3      OH2           -27.1479166405       13.2684977139      -31.8037996465  W2        4057            0.0000000000
     12170      4057  TIP3      H1            -27.8928166405       12.7610277139      -32.1260096465  W2        4057            0.0000000000
     12171      4057  TIP3      H2            -27.2821966405       13.3172977139      -30.8573196465  W2        4057            0.0000000000
     12172      4058  TIP3      OH2           -19.9980266405       12.4013177139      -23.0170396465  W2        4058            0.0000000000
     12173      4058  TIP3      H1            -19.3561466405       12.8579477139      -23.5608196465  W2        4058            0.0000000000
     12174      4058  TIP3      H2            -20.8283366405       12.5145577139      -23.4796296465  W2        4058            0.0000000000
     12175      4059  TIP3      OH2           -23.2502366405        6.0824877139      -33.6045396465  W2        4059            0.0000000000
     12176      4059  TIP3      H1            -24.1888166405        6.1940477139      -33.7556596465  W2        4059            0.0000000000
     12177      4059  TIP3      H2            -22.9530266405        6.9391777139      -33.2979696465  W2        4059            0.0000000000
     12178      4060  TIP3      OH2           -25.6287066405       13.4528277139      -20.5668896465  W2        4060            0.0000000000
     12179      4060  TIP3      H1            -25.9740966405       13.0710677139      -19.7599296465  W2        4060            0.0000000000
     12180      4060  TIP3      H2            -25.8286966405       14.3861877139      -20.4955996465  W2        4060            0.0000000000
     12181      4061  TIP3      OH2           -22.5318866405        7.9497577139      -31.9437996465  W2        4061            0.0000000000
     12182      4061  TIP3      H1            -21.6399866405        7.8122577139      -31.6246796465  W2        4061            0.0000000000
     12183      4061  TIP3      H2            -22.4755266405        8.7403677139      -32.4804496465  W2        4061            0.0000000000
     12184      4062  TIP3      OH2           -32.0230866405       12.5634977139      -26.0340096465  W2        4062            0.0000000000
     12185      4062  TIP3      H1            -31.2783666405       12.5610677139      -26.6353596465  W2        4062            0.0000000000
     12186      4062  TIP3      H2            -31.9454266405       11.7398777139      -25.5524996465  W2        4062            0.0000000000
     12187      4063  TIP3      OH2           -25.0225066405       14.7269277139      -32.7783396465  W2        4063            0.0000000000
     12188      4063  TIP3      H1            -25.3176666405       15.5537177139      -32.3968596465  W2        4063            0.0000000000
     12189      4063  TIP3      H2            -25.7255066405       14.1076177139      -32.5821996465  W2        4063            0.0000000000
     12190      4064  TIP3      OH2           -35.0151166405       11.0241877139      -20.7191596465  W2        4064            0.0000000000
     12191      4064  TIP3      H1            -34.7922566405       10.6061477139      -19.8874096465  W2        4064            0.0000000000
     12192      4064  TIP3      H2            -35.6171066405       10.4116877139      -21.1418796465  W2        4064            0.0000000000
     12193      4065  TIP3      OH2           -27.9986266405       10.5411777139      -18.5061896465  W2        4065            0.0000000000
     12194      4065  TIP3      H1            -28.2945466405       10.3754777139      -19.4012796465  W2        4065            0.0000000000
     12195      4065  TIP3      H2            -27.0671066405       10.3212077139      -18.5167996465  W2        4065            0.0000000000
     12196      4066  TIP3      OH2           -23.3783466405       15.9143777139      -20.6163896465  W2        4066            0.0000000000
     12197      4066  TIP3      H1            -24.2789166405       16.0976377139      -20.8839996465  W2        4066            0.0000000000
     12198      4066  TIP3      H2            -23.3442366405       16.1733077139      -19.6955096465  W2        4066            0.0000000000
     12199      4067  TIP3      OH2           -17.6470166405        8.1591677139      -32.2491296465  W2        4067            0.0000000000
     12200      4067  TIP3      H1            -18.2013866405        7.7629677139      -32.9213796465  W2        4067            0.0000000000
     12201      4067  TIP3      H2            -17.5466566405        9.0696877139      -32.5267996465  W2        4067            0.0000000000
     12202      4068  TIP3      OH2           -17.6838166405       13.9593377139      -19.4119796465  W2        4068            0.0000000000
     12203      4068  TIP3      H1            -18.5349666405       14.1977177139      -19.7793396465  W2        4068            0.0000000000
     12204      4068  TIP3      H2            -17.0934766405       13.9426577139      -20.1652696465  W2        4068            0.0000000000
     12205      4069  TIP3      OH2           -19.3518466405       16.9452077139      -31.7839196465  W2        4069            0.0000000000
     12206      4069  TIP3      H1            -19.7247366405       16.1195877139      -31.4748596465  W2        4069            0.0000000000
     12207      4069  TIP3      H2            -19.0744966405       16.7621477139      -32.6815796465  W2        4069            0.0000000000
     12208      4070  TIP3      OH2           -22.1914566405       11.7531577139      -24.7627296465  W2        4070            0.0000000000
     12209      4070  TIP3      H1            -23.1197666405       11.5213477139      -24.7897996465  W2        4070            0.0000000000
     12210      4070  TIP3      H2            -21.7403466405       10.9761377139      -25.0928496465  W2        4070            0.0000000000
     12211      4071  TIP3      OH2           -29.6481466405       16.0813177139      -28.6298596465  W2        4071            0.0000000000
     12212      4071  TIP3      H1            -29.1209266405       16.8547577139      -28.8299796465  W2        4071            0.0000000000
     12213      4071  TIP3      H2            -30.5282966405       16.3062377139      -28.9314596465  W2        4071            0.0000000000
     12214      4072  TIP3      OH2           -33.8933766405       10.9437277139      -34.0426196465  W2        4072            0.0000000000
     12215      4072  TIP3      H1            -33.2773866405       11.5704477139      -33.6631396465  W2        4072            0.0000000000
     12216      4072  TIP3      H2            -34.7551166405       11.2597077139      -33.7709696465  W2        4072            0.0000000000
     12217      4073  TIP3      OH2           -28.2209166405       13.7443077139      -29.0534296465  W2        4073            0.0000000000
     12218      4073  TIP3      H1            -28.4619166405       14.6697477139      -29.0118996465  W2        4073            0.0000000000
     12219      4073  TIP3      H2            -28.9615566405       13.2854377139      -28.6570396465  W2        4073            0.0000000000
     12220      4074  TIP3      OH2           -27.7062566405       17.8936677139      -22.7383196465  W2        4074            0.0000000000
     12221      4074  TIP3      H1            -27.3437866405       18.7482277139      -22.9718796465  W2        4074            0.0000000000
     12222      4074  TIP3      H2            -27.1747366405       17.6018277139      -21.9976896465  W2        4074            0.0000000000
     12223      4075  TIP3      OH2           -29.5378366405       18.7660677139      -29.5082096465  W2        4075            0.0000000000
     12224      4075  TIP3      H1            -30.4877866405       18.8718077139      -29.4568796465  W2        4075            0.0000000000
     12225      4075  TIP3      H2            -29.1860266405       19.5868077139      -29.1634596465  W2        4075            0.0000000000
     12226      4076  TIP3      OH2           -24.1621766405       13.9927377139      -23.0377596465  W2        4076            0.0000000000
     12227      4076  TIP3      H1            -24.5880466405       13.7649077139      -22.2113596465  W2        4076            0.0000000000
     12228      4076  TIP3      H2            -23.5815966405       13.2539177139      -23.2202296465  W2        4076            0.0000000000
     12229      4077  TIP3      OH2           -21.9592866405       14.9217877139      -33.9638596465  W2        4077            0.0000000000
     12230      4077  TIP3      H1            -21.6059766405       14.5417677139      -33.1595096465  W2        4077            0.0000000000
     12231      4077  TIP3      H2            -22.9079366405       14.8282677139      -33.8769296465  W2        4077            0.0000000000
     12232      4078  TIP3      OH2           -21.5037566405       18.5446877139      -20.5682796465  W2        4078            0.0000000000
     12233      4078  TIP3      H1            -22.1054366405       17.9889777139      -21.0636496465  W2        4078            0.0000000000
     12234      4078  TIP3      H2            -21.2223866405       19.2116677139      -21.1945396465  W2        4078            0.0000000000
     12235      4079  TIP3      OH2           -17.4558466405       19.4010377139      -33.7628396465  W2        4079            0.0000000000
     12236      4079  TIP3      H1            -16.7120566405       19.9870877139      -33.9026796465  W2        4079            0.0000000000
     12237      4079  TIP3      H2            -18.1500366405       19.9696177139      -33.4295996465  W2        4079            0.0000000000
     12238      4080  TIP3      OH2           -33.3811666405        5.7774577139      -21.1610196465  W2        4080            0.0000000000
     12239      4080  TIP3      H1            -34.2739366405        6.1159977139      -21.2286196465  W2        4080            0.0000000000
     12240      4080  TIP3      H2            -33.4798866405        4.9220677139      -20.7429396465  W2        4080            0.0000000000
     12241      4081  TIP3      OH2           -21.0933566405       13.5939877139      -31.7370696465  W2        4081            0.0000000000
     12242      4081  TIP3      H1            -21.3705966405       12.8659177139      -31.1809596465  W2        4081            0.0000000000
     12243      4081  TIP3      H2            -20.1660566405       13.7131877139      -31.5318096465  W2        4081            0.0000000000
     12244      4082  TIP3      OH2           -33.7299666405       17.5818977139      -22.7260796465  W2        4082            0.0000000000
     12245      4082  TIP3      H1            -33.5129366405       16.6501377139      -22.7571096465  W2        4082            0.0000000000
     12246      4082  TIP3      H2            -33.4836166405       17.8563977139      -21.8427996465  W2        4082            0.0000000000
     12247      4083  TIP3      OH2           -27.8685066405       16.0333977139      -35.5168596465  W2        4083            0.0000000000
     12248      4083  TIP3      H1            -27.6295266405       15.2852077139      -36.0639696465  W2        4083            0.0000000000
     12249      4083  TIP3      H2            -28.1373766405       15.6455677139      -34.6840796465  W2        4083            0.0000000000
     12250      4084  TIP3      OH2           -28.9314466405       15.6037777139      -33.0605996465  W2        4084            0.0000000000
     12251      4084  TIP3      H1            -28.7846466405       15.0837577139      -32.2705096465  W2        4084            0.0000000000
     12252      4084  TIP3      H2            -28.9342766405       16.5105377139      -32.7540096465  W2        4084            0.0000000000
     12253      4085  TIP3      OH2           -32.4783366405       12.8561077139      -32.5500596465  W2        4085            0.0000000000
     12254      4085  TIP3      H1            -33.1644066405       13.2083577139      -31.9830896465  W2        4085            0.0000000000
     12255      4085  TIP3      H2            -31.9555466405       13.6190677139      -32.7966296465  W2        4085            0.0000000000
     12256      4086  TIP3      OH2           -24.6468266405        5.5184877139      -22.2711596465  W2        4086            0.0000000000
     12257      4086  TIP3      H1            -23.9480366405        5.5923577139      -21.6211896465  W2        4086            0.0000000000
     12258      4086  TIP3      H2            -25.0276866405        4.6539877139      -22.1168696465  W2        4086            0.0000000000
     12259      4087  TIP3      OH2           -23.8623366405        5.1706577139      -31.1739296465  W2        4087            0.0000000000
     12260      4087  TIP3      H1            -23.6425066405        5.6421977139      -31.9773896465  W2        4087            0.0000000000
     12261      4087  TIP3      H2            -23.3039366405        5.5649177139      -30.5038696465  W2        4087            0.0000000000
     12262      4088  TIP3      OH2           -26.1937266405       17.3011377139      -32.3111796465  W2        4088            0.0000000000
     12263      4088  TIP3      H1            -27.0101166405       17.7981077139      -32.2587496465  W2        4088            0.0000000000
     12264      4088  TIP3      H2            -25.6640966405       17.7764877139      -32.9512996465  W2        4088            0.0000000000
     12265      4089  TIP3      OH2           -26.6623466405        6.8985377139      -30.3390896465  W2        4089            0.0000000000
     12266      4089  TIP3      H1            -25.8500866405        7.4028577139      -30.2929196465  W2        4089            0.0000000000
     12267      4089  TIP3      H2            -26.9070466405        6.7535077139      -29.4251296465  W2        4089            0.0000000000
     12268      4090  TIP3      OH2           -26.1267066405        7.8848077139      -21.1544296465  W2        4090            0.0000000000
     12269      4090  TIP3      H1            -26.0076766405        8.4583477139      -20.3973896465  W2        4090            0.0000000000
     12270      4090  TIP3      H2            -25.4712466405        7.1967477139      -21.0396496465  W2        4090            0.0000000000
     12271      4091  TIP3      OH2           -25.7786766405        3.9798377139      -29.4009796465  W2        4091            0.0000000000
     12272      4091  TIP3      H1            -26.1253266405        4.5968977139      -28.7565496465  W2        4091            0.0000000000
     12273      4091  TIP3      H2            -25.1199866405        4.4804077139      -29.8824296465  W2        4091            0.0000000000
     12274      4092  TIP3      OH2           -28.8554166405       18.3448577139      -32.3294896465  W2        4092            0.0000000000
     12275      4092  TIP3      H1            -28.6945466405       19.1446077139      -32.8302296465  W2        4092            0.0000000000
     12276      4092  TIP3      H2            -29.0526366405       18.6514577139      -31.4444296465  W2        4092            0.0000000000
     12277      4093  TIP3      OH2           -30.1209766405        5.0427777139      -32.7137296465  W2        4093            0.0000000000
     12278      4093  TIP3      H1            -30.2044966405        5.9310877139      -32.3670896465  W2        4093            0.0000000000
     12279      4093  TIP3      H2            -29.2309466405        4.7774477139      -32.4820496465  W2        4093            0.0000000000
     12280      4094  TIP3      OH2           -19.9221266405        5.7918377139      -20.3194596465  W2        4094            0.0000000000
     12281      4094  TIP3      H1            -20.8385466405        6.0540077139      -20.4070896465  W2        4094            0.0000000000
     12282      4094  TIP3      H2            -19.5866266405        5.7887377139      -21.2159296465  W2        4094            0.0000000000
     12283      4095  TIP3      OH2           -21.3200266405        9.5419377139      -26.2237296465  W2        4095            0.0000000000
     12284      4095  TIP3      H1            -22.1175866405        9.1269577139      -26.5522296465  W2        4095            0.0000000000
     12285      4095  TIP3      H2            -20.8749166405        8.8513077139      -25.7326796465  W2        4095            0.0000000000
     12286      4096  TIP3      OH2           -31.8624466405       15.4699977139      -33.6532796465  W2        4096            0.0000000000
     12287      4096  TIP3      H1            -31.2702966405       16.1694777139      -33.3770396465  W2        4096            0.0000000000
     12288      4096  TIP3      H2            -31.4031466405       15.0369477139      -34.3728196465  W2        4096            0.0000000000
     12289      4097  TIP3      OH2           -33.5465266405        8.1342977139      -34.5373396465  W2        4097            0.0000000000
     12290      4097  TIP3      H1            -33.5912666405        9.0736077139      -34.3586396465  W2        4097            0.0000000000
     12291      4097  TIP3      H2            -34.4342066405        7.8987877139      -34.8071296465  W2        4097            0.0000000000
     12292      4098  TIP3      OH2           -20.2335666405       18.7981877139      -24.6013796465  W2        4098            0.0000000000
     12293      4098  TIP3      H1            -20.3891366405       19.4766277139      -25.2584496465  W2        4098            0.0000000000
     12294      4098  TIP3      H2            -19.3009266405       18.8701177139      -24.3983196465  W2        4098            0.0000000000
     12295      4099  TIP3      OH2           -32.7383266405        2.9159577139      -25.8642396465  W2        4099            0.0000000000
     12296      4099  TIP3      H1            -32.9673466405        2.9752077139      -26.7917396465  W2        4099            0.0000000000
     12297      4099  TIP3      H2            -33.1809866405        2.1245077139      -25.5578296465  W2        4099            0.0000000000
     12298      4100  TIP3      OH2           -33.8079966405       16.8566677139      -29.7036596465  W2        4100            0.0000000000
     12299      4100  TIP3      H1            -34.6401366405       17.3289377139      -29.6765196465  W2        4100            0.0000000000
     12300      4100  TIP3      H2            -33.2621666405       17.3664277139      -30.3023496465  W2        4100            0.0000000000
     12301      4101  TIP3      OH2           -34.5196266405       19.4690377139      -18.3738596465  W2        4101            0.0000000000
     12302      4101  TIP3      H1            -33.9794066405       19.2524377139      -17.6139396465  W2        4101            0.0000000000
     12303      4101  TIP3      H2            -35.0008266405       18.6636377139      -18.5636096465  W2        4101            0.0000000000
     12304      4102  TIP3      OH2           -29.9222866405       18.3884777139      -16.7534396465  W2        4102            0.0000000000
     12305      4102  TIP3      H1            -29.1545666405       17.9295577139      -16.4125196465  W2        4102            0.0000000000
     12306      4102  TIP3      H2            -29.9436666405       18.1624577139      -17.6833196465  W2        4102            0.0000000000
     12307      4103  TIP3      OH2           -25.8303266405       17.8965377139      -35.3782596465  W2        4103            0.0000000000
     12308      4103  TIP3      H1            -26.4742266405       17.2653977139      -35.0568896465  W2        4103            0.0000000000
     12309      4103  TIP3      H2            -25.0684966405       17.3653377139      -35.6099096465  W2        4103            0.0000000000
     12310      4104  TIP3      OH2           -23.3454166405       16.7685877139      -18.0242896465  W2        4104            0.0000000000
     12311      4104  TIP3      H1            -23.6964666405       15.9118877139      -17.7812496465  W2        4104            0.0000000000
     12312      4104  TIP3      H2            -22.6190966405       16.9112577139      -17.4173896465  W2        4104            0.0000000000
     12313      4105  TIP3      OH2           -21.2260366405       17.7135277139      -35.1444596465  W2        4105            0.0000000000
     12314      4105  TIP3      H1            -20.9429966405       16.9190477139      -34.6917696465  W2        4105            0.0000000000
     12315      4105  TIP3      H2            -20.4862466405       17.9466277139      -35.7053496465  W2        4105            0.0000000000
     12316      4106  TIP3      OH2           -34.6126766405       13.2794477139      -17.4194296465  W2        4106            0.0000000000
     12317      4106  TIP3      H1            -34.4686266405       12.3775177139      -17.7057596465  W2        4106            0.0000000000
     12318      4106  TIP3      H2            -35.3849366405       13.5656577139      -17.9071996465  W2        4106            0.0000000000
     12319      4107  TIP3      OH2           -30.2713066405       13.6230177139      -35.2869696465  W2        4107            0.0000000000
     12320      4107  TIP3      H1            -30.2068966405       12.8289777139      -34.7563296465  W2        4107            0.0000000000
     12321      4107  TIP3      H2            -29.6183866405       13.5042977139      -35.9767696465  W2        4107            0.0000000000
     12322      4108  TIP3      OH2           -27.9570666405       13.2492577139      -17.9867896465  W2        4108            0.0000000000
     12323      4108  TIP3      H1            -28.2856866405       13.5200677139      -18.8440496465  W2        4108            0.0000000000
     12324      4108  TIP3      H2            -27.8052466405       12.3082377139      -18.0742896465  W2        4108            0.0000000000
     12325      4109  TIP3      OH2           -24.9189666405       14.6701877139      -35.5511696465  W2        4109            0.0000000000
     12326      4109  TIP3      H1            -25.1875566405       14.8503977139      -34.6502796465  W2        4109            0.0000000000
     12327      4109  TIP3      H2            -25.1254066405       13.7448077139      -35.6825896465  W2        4109            0.0000000000
     12328      4110  TIP3      OH2           -22.2225466405       13.1649877139      -20.6035596465  W2        4110            0.0000000000
     12329      4110  TIP3      H1            -21.4770666405       13.7533577139      -20.7231596465  W2        4110            0.0000000000
     12330      4110  TIP3      H2            -22.9798666405       13.7469577139      -20.5402496465  W2        4110            0.0000000000
     12331      4111  TIP3      OH2           -33.7800266405       10.4797777139      -17.9994996465  W2        4111            0.0000000000
     12332      4111  TIP3      H1            -33.3719066405        9.6224377139      -18.1204396465  W2        4111            0.0000000000
     12333      4111  TIP3      H2            -34.0402666405       10.4939077139      -17.0784696465  W2        4111            0.0000000000
     12334      4112  TIP3      OH2           -29.1219266405       11.5956377139      -32.9811696465  W2        4112            0.0000000000
     12335      4112  TIP3      H1            -29.5817266405       11.1114677139      -32.2953196465  W2        4112            0.0000000000
     12336      4112  TIP3      H2            -28.8670566405       10.9271777139      -33.6171196465  W2        4112            0.0000000000
     12337      4113  TIP3      OH2           -29.8329966405        9.4883477139      -20.6252096465  W2        4113            0.0000000000
     12338      4113  TIP3      H1            -30.4513866405       10.1630077139      -20.3447396465  W2        4113            0.0000000000
     12339      4113  TIP3      H2            -29.4888766405        9.8097377139      -21.4585896465  W2        4113            0.0000000000
     12340      4114  TIP3      OH2           -28.0508866405        9.8388177139      -34.7188496465  W2        4114            0.0000000000
     12341      4114  TIP3      H1            -28.2313866405        9.6839377139      -35.6460196465  W2        4114            0.0000000000
     12342      4114  TIP3      H2            -27.1008366405        9.9466877139      -34.6740596465  W2        4114            0.0000000000
     12343      4115  TIP3      OH2           -24.8131766405       11.9598777139      -17.3477296465  W2        4115            0.0000000000
     12344      4115  TIP3      H1            -23.8600566405       12.0437877139      -17.3751296465  W2        4115            0.0000000000
     12345      4115  TIP3      H2            -24.9737166405       11.2480577139      -16.7282396465  W2        4115            0.0000000000
     12346      4116  TIP3      OH2           -18.6610566405       12.1932377139      -35.2730396465  W2        4116            0.0000000000
     12347      4116  TIP3      H1            -18.9345766405       11.7687877139      -36.0862096465  W2        4116            0.0000000000
     12348      4116  TIP3      H2            -18.6216466405       13.1246877139      -35.4899996465  W2        4116            0.0000000000
     12349      4117  TIP3      OH2           -29.4936266405        6.8434277139      -19.5428996465  W2        4117            0.0000000000
     12350      4117  TIP3      H1            -29.3435366405        6.1145577139      -20.1449296465  W2        4117            0.0000000000
     12351      4117  TIP3      H2            -29.4913866405        7.6205977139      -20.1016796465  W2        4117            0.0000000000
     12352      4118  TIP3      OH2           -29.0810566405        5.2130077139      -22.0501596465  W2        4118            0.0000000000
     12353      4118  TIP3      H1            -28.5453066405        5.6646777139      -22.7022296465  W2        4118            0.0000000000
     12354      4118  TIP3      H2            -29.9330966405        5.1049877139      -22.4727496465  W2        4118            0.0000000000
     12355      4119  TIP3      OH2           -27.4992166405       10.6526277139      -21.8106396465  W2        4119            0.0000000000
     12356      4119  TIP3      H1            -26.7487366405       10.4963777139      -22.3838596465  W2        4119            0.0000000000
     12357      4119  TIP3      H2            -27.8383866405       11.5042877139      -22.0860896465  W2        4119            0.0000000000
     12358      4120  TIP3      OH2           -23.0835966405        8.4678077139      -16.7821096465  W2        4120            0.0000000000
     12359      4120  TIP3      H1            -22.8914666405        7.5367477139      -16.8936596465  W2        4120            0.0000000000
     12360      4120  TIP3      H2            -22.2259666405        8.8927577139      -16.7925696465  W2        4120            0.0000000000
     12361      4121  TIP3      OH2           -21.7668766405       11.2563277139      -18.7048396465  W2        4121            0.0000000000
     12362      4121  TIP3      H1            -22.0483766405       11.9657877139      -19.2824596465  W2        4121            0.0000000000
     12363      4121  TIP3      H2            -20.8244466405       11.1836277139      -18.8557196465  W2        4121            0.0000000000
     12364      4122  TIP3      OH2           -31.0149966405        8.0417777139      -17.6313396465  W2        4122            0.0000000000
     12365      4122  TIP3      H1            -31.7820966405        7.5092577139      -17.8415796465  W2        4122            0.0000000000
     12366      4122  TIP3      H2            -30.3360966405        7.7318177139      -18.2307096465  W2        4122            0.0000000000
     12367      4123  TIP3      OH2           -28.2755066405        2.6695777139      -21.6187996465  W2        4123            0.0000000000
     12368      4123  TIP3      H1            -28.3735466405        3.6158977139      -21.7241796465  W2        4123            0.0000000000
     12369      4123  TIP3      H2            -29.0178866405        2.2969577139      -22.0944496465  W2        4123            0.0000000000
     12370      4124  TIP3      OH2           -27.0114566405        6.9911177139      -18.0549596465  W2        4124            0.0000000000
     12371      4124  TIP3      H1            -27.2469166405        6.7717877139      -17.1534696465  W2        4124            0.0000000000
     12372      4124  TIP3      H2            -27.7947666405        6.7842377139      -18.5647096465  W2        4124            0.0000000000
     12373      4125  TIP3      OH2           -24.2957966405        6.1184677139      -18.9796096465  W2        4125            0.0000000000
     12374      4125  TIP3      H1            -25.2432566405        6.1504377139      -18.8472796465  W2        4125            0.0000000000
     12375      4125  TIP3      H2            -23.9831266405        5.4931777139      -18.3257896465  W2        4125            0.0000000000
     12376      4126  TIP3      OH2           -22.6616466405        4.7525777139      -16.9744196465  W2        4126            0.0000000000
     12377      4126  TIP3      H1            -22.7584666405        3.8003077139      -16.9802296465  W2        4126            0.0000000000
     12378      4126  TIP3      H2            -22.9833366405        5.0212577139      -16.1138696465  W2        4126            0.0000000000
     12379      4127  TIP3      OH2           -32.8347166405        5.9621577139      -17.9268696465  W2        4127            0.0000000000
     12380      4127  TIP3      H1            -32.6229766405        5.2557677139      -18.5371196465  W2        4127            0.0000000000
     12381      4127  TIP3      H2            -32.9459666405        5.5247577139      -17.0827496465  W2        4127            0.0000000000
     12382      4128  TIP3      OH2           -28.0536966405        1.9633177139      -18.9475196465  W2        4128            0.0000000000
     12383      4128  TIP3      H1            -27.3418566405        1.3235377139      -18.9616096465  W2        4128            0.0000000000
     12384      4128  TIP3      H2            -28.1546566405        2.2301477139      -19.8612096465  W2        4128            0.0000000000
     12385      4129  TIP3      OH2           -27.6999466405        3.6461577139      -16.8938896465  W2        4129            0.0000000000
     12386      4129  TIP3      H1            -27.8317266405        3.1705377139      -17.7140396465  W2        4129            0.0000000000
     12387      4129  TIP3      H2            -28.2992066405        4.3905177139      -16.9491796465  W2        4129            0.0000000000
     12388      4130  TIP3      OH2           -28.1537166405       20.5291877139      -33.7174896465  W2        4130            0.0000000000
     12389      4130  TIP3      H1            -27.2206466405       20.6870577139      -33.5736496465  W2        4130            0.0000000000
     12390      4130  TIP3      H2            -28.4178366405       21.2044877139      -34.3423396465  W2        4130            0.0000000000
     12391      4131  TIP3      OH2           -34.5852266405       15.1655677139      -34.2346796465  W2        4131            0.0000000000
     12392      4131  TIP3      H1            -33.6713066405       15.2444577139      -33.9612896465  W2        4131            0.0000000000
     12393      4131  TIP3      H2            -34.5779166405       14.4785277139      -34.9011196465  W2        4131            0.0000000000
     12394      4132  TIP3      OH2           -35.9361666405       20.5584177139      -29.1572896465  W2        4132            0.0000000000
     12395      4132  TIP3      H1            -36.5834566405       20.0965877139      -29.6901696465  W2        4132            0.0000000000
     12396      4132  TIP3      H2            -35.5817066405       19.8867477139      -28.5746696465  W2        4132            0.0000000000
     12397      4133  TIP3      OH2           -35.0662466405       18.6391177139      -27.3526696465  W2        4133            0.0000000000
     12398      4133  TIP3      H1            -35.4005666405       17.7588477139      -27.1806496465  W2        4133            0.0000000000
     12399      4133  TIP3      H2            -34.8440066405       18.9846177139      -26.4881096465  W2        4133            0.0000000000
     12400      4134  TIP3      OH2           -17.5177666405       19.4487577139      -24.3721896465  W2        4134            0.0000000000
     12401      4134  TIP3      H1            -17.5390966405       19.6335977139      -23.4332496465  W2        4134            0.0000000000
     12402      4134  TIP3      H2            -16.8271466405       20.0171577139      -24.7130496465  W2        4134            0.0000000000
     12403      4135  TIP3      OH2           -17.9544766405       19.0158677139      -21.4502796465  W2        4135            0.0000000000
     12404      4135  TIP3      H1            -18.4416066405       18.2802777139      -21.8215396465  W2        4135            0.0000000000
     12405      4135  TIP3      H2            -17.4052066405       18.6222577139      -20.7723396465  W2        4135            0.0000000000
     12406      4136  TIP3      OH2           -19.5037466405       14.8056777139      -16.8122496465  W2        4136            0.0000000000
     12407      4136  TIP3      H1            -20.3696366405       14.7006477139      -16.4180196465  W2        4136            0.0000000000
     12408      4136  TIP3      H2            -19.1271566405       15.5640077139      -16.3657796465  W2        4136            0.0000000000
     12409      4137  TIP3      OH2           -18.2027766405       13.0620477139      -31.2979996465  W2        4137            0.0000000000
     12410      4137  TIP3      H1            -17.3526366405       13.4831377139      -31.1708396465  W2        4137            0.0000000000
     12411      4137  TIP3      H2            -18.1972666405       12.3220577139      -30.6908596465  W2        4137            0.0000000000
     12412      4138  TIP3      OH2           -17.8082166405       11.1157877139      -29.4744296465  W2        4138            0.0000000000
     12413      4138  TIP3      H1            -18.5347566405       10.6360477139      -29.0766696465  W2        4138            0.0000000000
     12414      4138  TIP3      H2            -17.2268866405       11.3212577139      -28.7422696465  W2        4138            0.0000000000
     12415      4139  TIP3      OH2           -18.0490966405       13.9005377139      -24.5266696465  W2        4139            0.0000000000
     12416      4139  TIP3      H1            -17.2156766405       13.5225377139      -24.8073096465  W2        4139            0.0000000000
     12417      4139  TIP3      H2            -17.9370666405       14.8436577139      -24.6457596465  W2        4139            0.0000000000
     12418      4140  TIP3      OH2           -19.5628666405       16.7782877139      -22.2198296465  W2        4140            0.0000000000
     12419      4140  TIP3      H1            -20.2103366405       17.1034377139      -21.5943096465  W2        4140            0.0000000000
     12420      4140  TIP3      H2            -20.0804666405       16.3380577139      -22.8939996465  W2        4140            0.0000000000
     12421      4141  TIP3      OH2           -17.5399066405       11.0166377139      -33.0832996465  W2        4141            0.0000000000
     12422      4141  TIP3      H1            -18.0617966405       11.3730477139      -33.8022096465  W2        4141            0.0000000000
     12423      4141  TIP3      H2            -17.5729866405       11.6914177139      -32.4052096465  W2        4141            0.0000000000
     12424      4142  TIP3      OH2           -19.1910066405        8.2561977139      -34.5325896465  W2        4142            0.0000000000
     12425      4142  TIP3      H1            -19.0945666405        8.9228977139      -35.2126196465  W2        4142            0.0000000000
     12426      4142  TIP3      H2            -19.3310466405        7.4408277139      -35.0140396465  W2        4142            0.0000000000
     12427      4143  TIP3      OH2           -20.0215366405        9.6364377139      -28.9115596465  W2        4143            0.0000000000
     12428      4143  TIP3      H1            -20.1716566405        8.6912977139      -28.9317796465  W2        4143            0.0000000000
     12429      4143  TIP3      H2            -20.3750866405        9.9175777139      -28.0676496465  W2        4143            0.0000000000
     12430      4144  TIP3      OH2           -34.9862966405       11.7146577139      -24.9011796465  W2        4144            0.0000000000
     12431      4144  TIP3      H1            -34.8020066405       11.6328277139      -25.8368896465  W2        4144            0.0000000000
     12432      4144  TIP3      H2            -34.1370066405       11.5903577139      -24.4775396465  W2        4144            0.0000000000
     12433      4145  TIP3      OH2           -19.1652466405       11.6067677139      -19.2727296465  W2        4145            0.0000000000
     12434      4145  TIP3      H1            -18.5825166405       10.8719977139      -19.0810096465  W2        4145            0.0000000000
     12435      4145  TIP3      H2            -18.6013166405       12.3787977139      -19.2261496465  W2        4145            0.0000000000
     12436      4146  TIP3      OH2           -17.6685366405        9.5093477139      -18.5881896465  W2        4146            0.0000000000
     12437      4146  TIP3      H1            -18.5318666405        9.1305577139      -18.7537196465  W2        4146            0.0000000000
     12438      4146  TIP3      H2            -17.0641666405        8.7708277139      -18.6626096465  W2        4146            0.0000000000
     12439      4147  TIP3      OH2           -19.9436266405        5.6641777139      -35.4150396465  W2        4147            0.0000000000
     12440      4147  TIP3      H1            -19.3330466405        5.2928577139      -34.7782196465  W2        4147            0.0000000000
     12441      4147  TIP3      H2            -20.7804766405        5.2428677139      -35.2190396465  W2        4147            0.0000000000
     12442      4148  TIP3      OH2           -20.3110566405        7.2190177139      -30.4490496465  W2        4148            0.0000000000
     12443      4148  TIP3      H1            -20.0313466405        6.3120577139      -30.3248796465  W2        4148            0.0000000000
     12444      4148  TIP3      H2            -19.5518866405        7.6531677139      -30.8381296465  W2        4148            0.0000000000
     12445      4149  TIP3      OH2           -19.6992266405        7.8007577139      -25.0131596465  W2        4149            0.0000000000
     12446      4149  TIP3      H1            -18.7664266405        8.0127477139      -25.0475596465  W2        4149            0.0000000000
     12447      4149  TIP3      H2            -19.9344766405        7.9019677139      -24.0908596465  W2        4149            0.0000000000
     12448      4150  TIP3      OH2           -19.6700366405        8.5372877139      -22.2372196465  W2        4150            0.0000000000
     12449      4150  TIP3      H1            -20.5129066405        8.8053277139      -21.8712396465  W2        4150            0.0000000000
     12450      4150  TIP3      H2            -19.2276066405        9.3594777139      -22.4481096465  W2        4150            0.0000000000
     12451      4151  TIP3      OH2           -35.3888166405        6.9851577139      -18.7602996465  W2        4151            0.0000000000
     12452      4151  TIP3      H1            -34.4693266405        6.8629877139      -18.5239896465  W2        4151            0.0000000000
     12453      4151  TIP3      H2            -35.8383666405        6.2351277139      -18.3709496465  W2        4151            0.0000000000
     12454      4152  TIP3      OH2           -17.3868766405        2.5173077139      -16.8837196465  W2        4152            0.0000000000
     12455      4152  TIP3      H1            -17.0371766405        1.8636577139      -17.4892496465  W2        4152            0.0000000000
     12456      4152  TIP3      H2            -17.2399266405        3.3547177139      -17.3234596465  W2        4152            0.0000000000
     12457      4153  TIP3      OH2           -19.6975766405        4.4819477139      -30.4008496465  W2        4153            0.0000000000
     12458      4153  TIP3      H1            -19.5150766405        4.0330977139      -29.5753496465  W2        4153            0.0000000000
     12459      4153  TIP3      H2            -20.2972866405        3.8973877139      -30.8643896465  W2        4153            0.0000000000
     12460      4154  TIP3      OH2           -34.1675666405        5.2973177139      -25.8690096465  W2        4154            0.0000000000
     12461      4154  TIP3      H1            -33.7224066405        4.5055677139      -25.5670396465  W2        4154            0.0000000000
     12462      4154  TIP3      H2            -33.7012666405        6.0138377139      -25.4384496465  W2        4154            0.0000000000
     12463      4155  TIP3      OH2           -35.8635366405        8.2966177139      -24.7999896465  W2        4155            0.0000000000
     12464      4155  TIP3      H1            -35.3715566405        8.0756677139      -25.5907896465  W2        4155            0.0000000000
     12465      4155  TIP3      H2            -35.5014466405        9.1369577139      -24.5190396465  W2        4155            0.0000000000
     12466      4156  TIP3      OH2           -17.8671566405        4.6267677139      -18.5345896465  W2        4156            0.0000000000
     12467      4156  TIP3      H1            -18.7845866405        4.8974777139      -18.5702396465  W2        4156            0.0000000000
     12468      4156  TIP3      H2            -17.7442166405        4.0916077139      -19.3186196465  W2        4156            0.0000000000
     12469      4157  TIP3      OH2           -17.8309566405        4.5497577139      -33.8728196465  W2        4157            0.0000000000
     12470      4157  TIP3      H1            -17.4186966405        3.8283277139      -34.3480196465  W2        4157            0.0000000000
     12471      4157  TIP3      H2            -17.1493066405        5.2192177139      -33.8143896465  W2        4157            0.0000000000
     12472      4158  TIP3      OH2           -35.5498866405        4.5545277139      -30.7457496465  W2        4158            0.0000000000
     12473      4158  TIP3      H1            -36.4750466405        4.7631877139      -30.8751996465  W2        4158            0.0000000000
     12474      4158  TIP3      H2            -35.0958966405        5.0386077139      -31.4355196465  W2        4158            0.0000000000
     12475      4159  TIP3      OH2           -20.7791666405       19.5386977139      -28.8000096465  W2        4159            0.0000000000
     12476      4159  TIP3      H1            -20.1268766405       19.1909077139      -29.4080996465  W2        4159            0.0000000000
     12477      4159  TIP3      H2            -20.2687866405       20.0270177139      -28.1540396465  W2        4159            0.0000000000
     12478      4160  TIP3      OH2           -35.5863466405        3.2924277139      -22.4014996465  W2        4160            0.0000000000
     12479      4160  TIP3      H1            -36.2512966405        3.0464577139      -21.7584096465  W2        4160            0.0000000000
     12480      4160  TIP3      H2            -36.0292166405        3.9144677139      -22.9786996465  W2        4160            0.0000000000
     12481      4161  TIP3      OH2           -33.3944166405       16.4678377139      -18.2569196465  W2        4161            0.0000000000
     12482      4161  TIP3      H1            -34.2151666405       16.6424877139      -18.7174496465  W2        4161            0.0000000000
     12483      4161  TIP3      H2            -33.6466366405       16.3943077139      -17.3364796465  W2        4161            0.0000000000
     12484      4162  TIP3      OH2           -30.4401266405       17.4419577139      -21.9985196465  W2        4162            0.0000000000
     12485      4162  TIP3      H1            -30.8650166405       18.2518077139      -22.2810596465  W2        4162            0.0000000000
     12486      4162  TIP3      H2            -29.5358466405       17.5273677139      -22.3005396465  W2        4162            0.0000000000
     12487      4163  TIP3      OH2           -26.1289866405       18.8409577139      -19.0391496465  W2        4163            0.0000000000
     12488      4163  TIP3      H1            -25.9442366405       18.5075677139      -18.1611196465  W2        4163            0.0000000000
     12489      4163  TIP3      H2            -25.2825366405       19.1508177139      -19.3612296465  W2        4163            0.0000000000
     12490      4164  TIP3      OH2           -23.7839466405       20.1268477139      -19.7950096465  W2        4164            0.0000000000
     12491      4164  TIP3      H1            -23.1070566405       19.4940777139      -20.0350896465  W2        4164            0.0000000000
     12492      4164  TIP3      H2            -23.4620666405       20.5278977139      -18.9876796465  W2        4164            0.0000000000
     12493      4165  TIP3      OH2           -18.8665666405        2.7163977139      -20.7155096465  W2        4165            0.0000000000
     12494      4165  TIP3      H1            -19.6792166405        3.0414277139      -21.1030396465  W2        4165            0.0000000000
     12495      4165  TIP3      H2            -18.6337166405        1.9562477139      -21.2485996465  W2        4165            0.0000000000
     12496      4166  TIP3      OH2           -33.0384566405       20.6983477139      -21.9509896465  W2        4166            0.0000000000
     12497      4166  TIP3      H1            -33.7588166405       21.1384477139      -22.4022196465  W2        4166            0.0000000000
     12498      4166  TIP3      H2            -33.4040566405       20.4478177139      -21.1025896465  W2        4166            0.0000000000
     12499      4167  TIP3      OH2           -30.5711966405       20.2987377139      -22.9212696465  W2        4167            0.0000000000
     12500      4167  TIP3      H1            -31.4359766405       20.3705877139      -22.5172596465  W2        4167            0.0000000000
     12501      4167  TIP3      H2            -30.6262966405       20.8454677139      -23.7050196465  W2        4167            0.0000000000
     12502      4168  TIP3      OH2           -25.8606366405       20.1866277139      -23.7456696465  W2        4168            0.0000000000
     12503      4168  TIP3      H1            -26.3172366405       20.7155977139      -24.3998296465  W2        4168            0.0000000000
     12504      4168  TIP3      H2            -25.6978366405       20.7897677139      -23.0204396465  W2        4168            0.0000000000
     12505      4169  TIP3      OH2           -23.5330066405       19.0645877139      -22.8006396465  W2        4169            0.0000000000
     12506      4169  TIP3      H1            -24.4376366405       19.2296077139      -23.0664296465  W2        4169            0.0000000000
     12507      4169  TIP3      H2            -23.1041466405       19.9178077139      -22.8662996465  W2        4169            0.0000000000
     12508      4170  TIP3      OH2           -20.9288166405       20.6344977139      -22.5058596465  W2        4170            0.0000000000
     12509      4170  TIP3      H1            -21.1106166405       21.5503877139      -22.7163696465  W2        4170            0.0000000000
     12510      4170  TIP3      H2            -20.7520366405       20.2242077139      -23.3523996465  W2        4170            0.0000000000
     12511      4171  TIP3      OH2           -33.6236466405       19.3215977139      -25.0408096465  W2        4171            0.0000000000
     12512      4171  TIP3      H1            -33.6420466405       18.8961077139      -24.1835796465  W2        4171            0.0000000000
     12513      4171  TIP3      H2            -32.8188566405       19.0030977139      -25.4495896465  W2        4171            0.0000000000
     12514      4172  TIP3      OH2           -31.4823366405       18.0314677139      -26.3858196465  W2        4172            0.0000000000
     12515      4172  TIP3      H1            -31.7012666405       17.1152077139      -26.2162196465  W2        4172            0.0000000000
     12516      4172  TIP3      H2            -30.6581166405       18.1715077139      -25.9196796465  W2        4172            0.0000000000
     12517      4173  TIP3      OH2           -28.9450866405       18.5013977139      -25.5370196465  W2        4173            0.0000000000
     12518      4173  TIP3      H1            -28.7325166405       17.6132977139      -25.8239296465  W2        4173            0.0000000000
     12519      4173  TIP3      H2            -28.8805766405       18.4671677139      -24.5826196465  W2        4173            0.0000000000
     12520      4174  TIP3      OH2           -25.4367166405        4.1654577139      -26.3926896465  W2        4174            0.0000000000
     12521      4174  TIP3      H1            -26.1110366405        3.5360177139      -26.1371096465  W2        4174            0.0000000000
     12522      4174  TIP3      H2            -24.8727966405        3.6813477139      -26.9958996465  W2        4174            0.0000000000
     12523      4175  TIP3      OH2           -20.2939966405        2.2728577139      -26.2799796465  W2        4175            0.0000000000
     12524      4175  TIP3      H1            -19.6902366405        2.8203977139      -26.7818796465  W2        4175            0.0000000000
     12525      4175  TIP3      H2            -21.1637966405        2.5918977139      -26.5205696465  W2        4175            0.0000000000
     12526      4176  TIP3      OH2           -18.5669566405        3.4117277139      -27.9468896465  W2        4176            0.0000000000
     12527      4176  TIP3      H1            -17.9552066405        2.8972977139      -28.4735296465  W2        4176            0.0000000000
     12528      4176  TIP3      H2            -18.1846166405        4.2889377139      -27.9234496465  W2        4176            0.0000000000
     12529      4177  TIP3      OH2           -33.1099666405        2.7994877139      -28.5706996465  W2        4177            0.0000000000
     12530      4177  TIP3      H1            -33.8869866405        2.5649777139      -29.0781096465  W2        4177            0.0000000000
     12531      4177  TIP3      H2            -32.5796066405        2.0026977139      -28.5618996465  W2        4177            0.0000000000
     12532      4178  TIP3      OH2           -34.2736266405        2.5972977139      -32.7670896465  W2        4178            0.0000000000
     12533      4178  TIP3      H1            -33.8345566405        3.2083477139      -33.3587396465  W2        4178            0.0000000000
     12534      4178  TIP3      H2            -34.9073866405        3.1357077139      -32.2930896465  W2        4178            0.0000000000
     12535      4179  TIP3      OH2           -28.5307066405        2.7261977139      -28.7573896465  W2        4179            0.0000000000
     12536      4179  TIP3      H1            -27.6563666405        3.1146277139      -28.7869596465  W2        4179            0.0000000000
     12537      4179  TIP3      H2            -28.6666266405        2.5109777139      -27.8346696465  W2        4179            0.0000000000
     12538      4180  TIP3      OH2           -22.9738666405        2.7561777139      -27.1082196465  W2        4180            0.0000000000
     12539      4180  TIP3      H1            -22.8977066405        2.8513377139      -28.0576196465  W2        4180            0.0000000000
     12540      4180  TIP3      H2            -23.2489466405        1.8484677139      -26.9793096465  W2        4180            0.0000000000
     12541      4181  TIP3      OH2           -21.6206066405        2.7819577139      -31.4157196465  W2        4181            0.0000000000
     12542      4181  TIP3      H1            -22.3234966405        3.3968777139      -31.6255796465  W2        4181            0.0000000000
     12543      4181  TIP3      H2            -22.0654666405        1.9446277139      -31.2846296465  W2        4181            0.0000000000
     12544      4182  TIP3      OH2           -34.3726766405       18.5455177139      -31.8695796465  W2        4182            0.0000000000
     12545      4182  TIP3      H1            -35.0576866405       18.5074077139      -32.5370696465  W2        4182            0.0000000000
     12546      4182  TIP3      H2            -34.3689566405       19.4582777139      -31.5813696465  W2        4182            0.0000000000
     12547      4183  TIP3      OH2           -32.4127166405        4.5134477139      -34.3246796465  W2        4183            0.0000000000
     12548      4183  TIP3      H1            -31.9213766405        3.8836877139      -34.8521296465  W2        4183            0.0000000000
     12549      4183  TIP3      H2            -31.7890866405        4.8093877139      -33.6615596465  W2        4183            0.0000000000
     12550      4184  TIP3      OH2           -27.3867066405        4.8065977139      -31.8676296465  W2        4184            0.0000000000
     12551      4184  TIP3      H1            -27.2085766405        4.1599177139      -31.1847696465  W2        4184            0.0000000000
     12552      4184  TIP3      H2            -27.4400866405        5.6403677139      -31.4005196465  W2        4184            0.0000000000
     12553      4185  TIP3      OH2           -25.5083266405       19.7550077139      -33.4719596465  W2        4185            0.0000000000
     12554      4185  TIP3      H1            -24.6423066405       20.1217477139      -33.6501396465  W2        4185            0.0000000000
     12555      4185  TIP3      H2            -25.7550466405       19.3158077139      -34.2858796465  W2        4185            0.0000000000
     12556      4186  TIP3      OH2           -18.7993666405       19.3180377139      -30.7928496465  W2        4186            0.0000000000
     12557      4186  TIP3      H1            -18.9936566405       18.5702477139      -31.3578896465  W2        4186            0.0000000000
     12558      4186  TIP3      H2            -18.8383566405       20.0760477139      -31.3760596465  W2        4186            0.0000000000
     12559      4187  TIP3      OH2           -33.1521666405        3.3136777139      -19.0530796465  W2        4187            0.0000000000
     12560      4187  TIP3      H1            -33.5183466405        2.5479377139      -18.6106096465  W2        4187            0.0000000000
     12561      4187  TIP3      H2            -32.2393166405        3.3426977139      -18.7665696465  W2        4187            0.0000000000
     12562      4188  TIP3      OH2           -31.1790866405        2.6641177139      -17.5173696465  W2        4188            0.0000000000
     12563      4188  TIP3      H1            -30.2807266405        2.3901377139      -17.7020296465  W2        4188            0.0000000000
     12564      4188  TIP3      H2            -31.5657766405        1.9217177139      -17.0531096465  W2        4188            0.0000000000
     12565      4189  TIP3      OH2           -32.5545566405       19.4655977139      -34.8443696465  W2        4189            0.0000000000
     12566      4189  TIP3      H1            -32.8220966405       19.7518877139      -33.9710596465  W2        4189            0.0000000000
     12567      4189  TIP3      H2            -31.7832966405       18.9195177139      -34.6921196465  W2        4189            0.0000000000
     12568      4190  TIP3      OH2           -22.7578566405        1.9966477139      -17.3350896465  W2        4190            0.0000000000
     12569      4190  TIP3      H1            -22.6811366405        1.5707177139      -16.4813196465  W2        4190            0.0000000000
     12570      4190  TIP3      H2            -21.8641966405        2.0101177139      -17.6777396465  W2        4190            0.0000000000
     12571      4191  TIP3      OH2           -19.5817466405       18.0692777139      -18.6426696465  W2        4191            0.0000000000
     12572      4191  TIP3      H1            -20.3635566405       17.8830777139      -19.1626096465  W2        4191            0.0000000000
     12573      4191  TIP3      H2            -19.6537566405       18.9987077139      -18.4254196465  W2        4191            0.0000000000
     12574      4192  TIP3      OH2            -5.1757066405       11.9557177139      -28.6119496465  W2        4192            0.0000000000
     12575      4192  TIP3      H1             -5.0865966405       12.8995377139      -28.7442396465  W2        4192            0.0000000000
     12576      4192  TIP3      H2             -5.8139466405       11.6803577139      -29.2700096465  W2        4192            0.0000000000
     12577      4193  TIP3      OH2            -6.2425766405       11.2107877139      -25.1931296465  W2        4193            0.0000000000
     12578      4193  TIP3      H1             -6.2808266405       10.5644177139      -24.4881696465  W2        4193            0.0000000000
     12579      4193  TIP3      H2             -6.5649266405       10.7442277139      -25.9642596465  W2        4193            0.0000000000
     12580      4194  TIP3      OH2           -13.8740766405       10.8249977139      -23.6001396465  W2        4194            0.0000000000
     12581      4194  TIP3      H1            -13.8328666405       10.1993277139      -22.8768996465  W2        4194            0.0000000000
     12582      4194  TIP3      H2            -13.1713066405       11.4488577139      -23.4180996465  W2        4194            0.0000000000
     12583      4195  TIP3      OH2            -2.5365566405       14.1498277139      -26.8916196465  W2        4195            0.0000000000
     12584      4195  TIP3      H1             -2.9772866405       13.4294277139      -26.4410596465  W2        4195            0.0000000000
     12585      4195  TIP3      H2             -2.5495866405       14.8705477139      -26.2618496465  W2        4195            0.0000000000
     12586      4196  TIP3      OH2           -12.9507666405       15.2748877139      -25.0652296465  W2        4196            0.0000000000
     12587      4196  TIP3      H1            -13.3202466405       14.4729377139      -25.4347996465  W2        4196            0.0000000000
     12588      4196  TIP3      H2            -12.0096566405       15.1063777139      -25.0188896465  W2        4196            0.0000000000
     12589      4197  TIP3      OH2           -16.3407166405        8.9351477139      -29.6723496465  W2        4197            0.0000000000
     12590      4197  TIP3      H1            -16.7883766405        9.7810177139      -29.6906996465  W2        4197            0.0000000000
     12591      4197  TIP3      H2            -16.9015966405        8.3555677139      -30.1878396465  W2        4197            0.0000000000
     12592      4198  TIP3      OH2           -15.6301066405       11.0971077139      -27.5465496465  W2        4198            0.0000000000
     12593      4198  TIP3      H1            -15.4167566405       10.3272677139      -27.0192496465  W2        4198            0.0000000000
     12594      4198  TIP3      H2            -14.8923466405       11.1867777139      -28.1497896465  W2        4198            0.0000000000
     12595      4199  TIP3      OH2            -5.4250066405       19.2539977139      -26.6795796465  W2        4199            0.0000000000
     12596      4199  TIP3      H1             -4.8053666405       18.5774677139      -26.9526596465  W2        4199            0.0000000000
     12597      4199  TIP3      H2             -5.6332666405       19.0360777139      -25.7710896465  W2        4199            0.0000000000
     12598      4200  TIP3      OH2            -7.8531366405       13.6429277139      -24.7870296465  W2        4200            0.0000000000
     12599      4200  TIP3      H1             -7.5493466405       12.9570677139      -25.3816196465  W2        4200            0.0000000000
     12600      4200  TIP3      H2             -7.1317366405       13.7617977139      -24.1692296465  W2        4200            0.0000000000
     12601      4201  TIP3      OH2             0.8098433595        5.2444577139      -23.9264096465  W2        4201            0.0000000000
     12602      4201  TIP3      H1              0.8590633595        5.8545777139      -23.1904996465  W2        4201            0.0000000000
     12603      4201  TIP3      H2              1.2353533595        5.7055477139      -24.6492996465  W2        4201            0.0000000000
     12604      4202  TIP3      OH2            -4.7124366405        8.0371677139      -24.4595496465  W2        4202            0.0000000000
     12605      4202  TIP3      H1             -4.5698466405        7.0908677139      -24.4393896465  W2        4202            0.0000000000
     12606      4202  TIP3      H2             -4.8185366405        8.2441477139      -25.3880596465  W2        4202            0.0000000000
     12607      4203  TIP3      OH2           -11.5576066405        6.1388077139      -27.1870696465  W2        4203            0.0000000000
     12608      4203  TIP3      H1            -11.5144966405        6.9986577139      -27.6054396465  W2        4203            0.0000000000
     12609      4203  TIP3      H2            -12.0151966405        5.5862777139      -27.8207496465  W2        4203            0.0000000000
     12610      4204  TIP3      OH2            -3.8353366405        6.2693677139      -28.7862396465  W2        4204            0.0000000000
     12611      4204  TIP3      H1             -3.1889066405        5.9406877139      -28.1614796465  W2        4204            0.0000000000
     12612      4204  TIP3      H2             -3.3253966405        6.7872677139      -29.4090996465  W2        4204            0.0000000000
     12613      4205  TIP3      OH2           -14.9374566405        8.5353877139      -26.4249296465  W2        4205            0.0000000000
     12614      4205  TIP3      H1            -14.2837966405        7.9855577139      -25.9929196465  W2        4205            0.0000000000
     12615      4205  TIP3      H2            -14.9135266405        8.2612877139      -27.3417296465  W2        4205            0.0000000000
     12616      4206  TIP3      OH2            -9.7810066405       10.0855177139      -27.2097796465  W2        4206            0.0000000000
     12617      4206  TIP3      H1             -9.1649066405        9.5590577139      -26.7003796465  W2        4206            0.0000000000
     12618      4206  TIP3      H2            -10.3671266405        9.4453877139      -27.6134196465  W2        4206            0.0000000000
     12619      4207  TIP3      OH2             1.2013033595        6.7223777139      -21.6904296465  W2        4207            0.0000000000
     12620      4207  TIP3      H1              0.5127633595        7.3804477139      -21.7857696465  W2        4207            0.0000000000
     12621      4207  TIP3      H2              1.2167633595        6.5251677139      -20.7538896465  W2        4207            0.0000000000
     12622      4208  TIP3      OH2           -12.7474166405        5.0566477139      -23.1129896465  W2        4208            0.0000000000
     12623      4208  TIP3      H1            -12.9662466405        5.5867077139      -23.8793896465  W2        4208            0.0000000000
     12624      4208  TIP3      H2            -13.4153266405        5.2831977139      -22.4658496465  W2        4208            0.0000000000
     12625      4209  TIP3      OH2            -5.3784366405       14.5567577139      -29.5690796465  W2        4209            0.0000000000
     12626      4209  TIP3      H1             -5.6739266405       14.2339877139      -30.4203896465  W2        4209            0.0000000000
     12627      4209  TIP3      H2             -5.7026566405       15.4564277139      -29.5278196465  W2        4209            0.0000000000
     12628      4210  TIP3      OH2           -10.1782766405       12.7322177139      -22.8256196465  W2        4210            0.0000000000
     12629      4210  TIP3      H1            -10.9183666405       13.3303677139      -22.7220996465  W2        4210            0.0000000000
     12630      4210  TIP3      H2             -9.4643266405       13.2861777139      -23.1412596465  W2        4210            0.0000000000
     12631      4211  TIP3      OH2            -2.0714966405        5.5602977139      -26.8056496465  W2        4211            0.0000000000
     12632      4211  TIP3      H1             -2.2866966405        4.7946377139      -26.2730496465  W2        4211            0.0000000000
     12633      4211  TIP3      H2             -1.4157566405        6.0327577139      -26.2927996465  W2        4211            0.0000000000
     12634      4212  TIP3      OH2           -13.1536866405        6.9488277139      -25.1607696465  W2        4212            0.0000000000
     12635      4212  TIP3      H1            -12.5400566405        7.5815877139      -24.7875296465  W2        4212            0.0000000000
     12636      4212  TIP3      H2            -12.6416166405        6.4763277139      -25.8170796465  W2        4212            0.0000000000
     12637      4213  TIP3      OH2           -11.7708466405       14.6965177139      -22.0384696465  W2        4213            0.0000000000
     12638      4213  TIP3      H1            -11.7760866405       15.5758677139      -22.4165396465  W2        4213            0.0000000000
     12639      4213  TIP3      H2            -12.6244366405       14.6129277139      -21.6134796465  W2        4213            0.0000000000
     12640      4214  TIP3      OH2           -15.6497566405       14.3673077139      -31.2565396465  W2        4214            0.0000000000
     12641      4214  TIP3      H1            -15.9216666405       14.5964077139      -32.1452496465  W2        4214            0.0000000000
     12642      4214  TIP3      H2            -15.6041866405       15.2051877139      -30.7960096465  W2        4214            0.0000000000
     12643      4215  TIP3      OH2            -2.0247866405       15.9888977139      -24.5436896465  W2        4215            0.0000000000
     12644      4215  TIP3      H1             -2.9664166405       16.0472877139      -24.3819996465  W2        4215            0.0000000000
     12645      4215  TIP3      H2             -1.7481766405       16.8949477139      -24.6807196465  W2        4215            0.0000000000
     12646      4216  TIP3      OH2            -1.7240866405        4.2754277139      -23.1262996465  W2        4216            0.0000000000
     12647      4216  TIP3      H1             -2.4601666405        4.8861377139      -23.1641696465  W2        4216            0.0000000000
     12648      4216  TIP3      H2             -1.0406866405        4.6903277139      -23.6526596465  W2        4216            0.0000000000
     12649      4217  TIP3      OH2            -8.7209466405        2.3621577139      -25.6604996465  W2        4217            0.0000000000
     12650      4217  TIP3      H1             -8.8385266405        1.4137577139      -25.7146696465  W2        4217            0.0000000000
     12651      4217  TIP3      H2             -9.5759366405        2.6947677139      -25.3873896465  W2        4217            0.0000000000
     12652      4218  TIP3      OH2            -3.7726666405       17.7702477139      -27.9185296465  W2        4218            0.0000000000
     12653      4218  TIP3      H1             -3.3474366405       17.0630377139      -28.4035696465  W2        4218            0.0000000000
     12654      4218  TIP3      H2             -3.4556666405       18.5715177139      -28.3353096465  W2        4218            0.0000000000
     12655      4219  TIP3      OH2            -2.6130166405       15.6710977139      -29.4098696465  W2        4219            0.0000000000
     12656      4219  TIP3      H1             -2.8705366405       14.9811077139      -30.0212796465  W2        4219            0.0000000000
     12657      4219  TIP3      H2             -2.5419366405       15.2282177139      -28.5642796465  W2        4219            0.0000000000
     12658      4220  TIP3      OH2            -0.9269966405       14.2377677139      -20.9325196465  W2        4220            0.0000000000
     12659      4220  TIP3      H1             -0.7873666405       13.6460177139      -21.6718196465  W2        4220            0.0000000000
     12660      4220  TIP3      H2             -0.7597166405       15.1103577139      -21.2886396465  W2        4220            0.0000000000
     12661      4221  TIP3      OH2            -6.4544566405       11.1997177139      -31.1599196465  W2        4221            0.0000000000
     12662      4221  TIP3      H1             -7.1659066405       11.7346877139      -31.5118696465  W2        4221            0.0000000000
     12663      4221  TIP3      H2             -5.7634966405       11.2549277139      -31.8200296465  W2        4221            0.0000000000
     12664      4222  TIP3      OH2            -6.4005366405        9.6571477139      -34.1214196465  W2        4222            0.0000000000
     12665      4222  TIP3      H1             -5.6995466405        9.6798377139      -33.4700196465  W2        4222            0.0000000000
     12666      4222  TIP3      H2             -6.0982466405        9.0291177139      -34.7774896465  W2        4222            0.0000000000
     12667      4223  TIP3      OH2             0.9149333595       10.5775677139      -22.8664796465  W2        4223            0.0000000000
     12668      4223  TIP3      H1              0.2623433595       11.2721277139      -22.7773896465  W2        4223            0.0000000000
     12669      4223  TIP3      H2              1.3799633595       10.7876577139      -23.6763196465  W2        4223            0.0000000000
     12670      4224  TIP3      OH2            -3.0486866405       11.4090477139      -30.2083296465  W2        4224            0.0000000000
     12671      4224  TIP3      H1             -3.7805866405       11.6374177139      -29.6352696465  W2        4224            0.0000000000
     12672      4224  TIP3      H2             -2.6014666405       10.6953177139      -29.7535796465  W2        4224            0.0000000000
     12673      4225  TIP3      OH2            -3.1513366405        9.5833077139      -21.1406296465  W2        4225            0.0000000000
     12674      4225  TIP3      H1             -3.0714266405       10.3467477139      -20.5687796465  W2        4225            0.0000000000
     12675      4225  TIP3      H2             -3.7525666405        9.8625477139      -21.8311196465  W2        4225            0.0000000000
     12676      4226  TIP3      OH2           -11.4033166405       12.0396677139      -28.3258296465  W2        4226            0.0000000000
     12677      4226  TIP3      H1            -11.7337966405       11.6690077139      -29.1441296465  W2        4226            0.0000000000
     12678      4226  TIP3      H2            -10.8149066405       11.3690677139      -27.9789996465  W2        4226            0.0000000000
     12679      4227  TIP3      OH2           -10.0365666405       15.4677277139      -25.6446096465  W2        4227            0.0000000000
     12680      4227  TIP3      H1            -10.1314366405       14.8890377139      -26.4011496465  W2        4227            0.0000000000
     12681      4227  TIP3      H2             -9.3072066405       15.0962977139      -25.1483296465  W2        4227            0.0000000000
     12682      4228  TIP3      OH2           -11.0367666405       10.8082277139      -24.6923296465  W2        4228            0.0000000000
     12683      4228  TIP3      H1            -10.4715166405       10.9296477139      -25.4552096465  W2        4228            0.0000000000
     12684      4228  TIP3      H2            -10.7178766405       11.4457277139      -24.0534796465  W2        4228            0.0000000000
     12685      4229  TIP3      OH2            -4.7275466405       16.3114177139      -23.9582796465  W2        4229            0.0000000000
     12686      4229  TIP3      H1             -4.9678866405       16.9737277139      -23.3103596465  W2        4229            0.0000000000
     12687      4229  TIP3      H2             -4.9257266405       15.4769377139      -23.5333196465  W2        4229            0.0000000000
     12688      4230  TIP3      OH2           -10.1566966405       15.2074977139      -19.9751396465  W2        4230            0.0000000000
     12689      4230  TIP3      H1            -10.4679466405       15.9898177139      -19.5198196465  W2        4230            0.0000000000
     12690      4230  TIP3      H2            -10.8066766405       15.0544077139      -20.6609396465  W2        4230            0.0000000000
     12691      4231  TIP3      OH2            -4.1777366405       10.5713377139      -32.5232096465  W2        4231            0.0000000000
     12692      4231  TIP3      H1             -3.5981866405       10.7213677139      -31.7763196465  W2        4231            0.0000000000
     12693      4231  TIP3      H2             -3.7637366405       11.0420777139      -33.2465696465  W2        4231            0.0000000000
     12694      4232  TIP3      OH2           -13.2367066405       11.4056077139      -20.7465696465  W2        4232            0.0000000000
     12695      4232  TIP3      H1            -13.1663866405       12.0562877139      -20.0480696465  W2        4232            0.0000000000
     12696      4232  TIP3      H2            -14.1274866405       11.5083577139      -21.0814796465  W2        4232            0.0000000000
     12697      4233  TIP3      OH2            -6.4512466405       17.3081877139      -29.0878996465  W2        4233            0.0000000000
     12698      4233  TIP3      H1             -5.9774866405       17.6038177139      -28.3104796465  W2        4233            0.0000000000
     12699      4233  TIP3      H2             -7.0143166405       18.0463477139      -29.3209396465  W2        4233            0.0000000000
     12700      4234  TIP3      OH2           -11.9171066405       17.2789977139      -19.2117596465  W2        4234            0.0000000000
     12701      4234  TIP3      H1            -11.9095766405       17.1429677139      -20.1592096465  W2        4234            0.0000000000
     12702      4234  TIP3      H2            -12.8330666405       17.1618077139      -18.9597596465  W2        4234            0.0000000000
     12703      4235  TIP3      OH2            -0.4788966405        2.3213777139      -32.7102396465  W2        4235            0.0000000000
     12704      4235  TIP3      H1             -1.3788266405        2.4602777139      -32.4151796465  W2        4235            0.0000000000
     12705      4235  TIP3      H2             -0.2270566405        3.1528377139      -33.1120696465  W2        4235            0.0000000000
     12706      4236  TIP3      OH2           -12.4130466405       11.1090977139      -30.7365496465  W2        4236            0.0000000000
     12707      4236  TIP3      H1            -12.7049166405       11.8772677139      -31.2274196465  W2        4236            0.0000000000
     12708      4236  TIP3      H2            -13.0875266405       10.4497177139      -30.8994096465  W2        4236            0.0000000000
     12709      4237  TIP3      OH2             0.7102433595       16.6876177139      -34.3338496465  W2        4237            0.0000000000
     12710      4237  TIP3      H1              0.7835933595       17.6266377139      -34.1633196465  W2        4237            0.0000000000
     12711      4237  TIP3      H2              1.6157533595       16.3824777139      -34.3901196465  W2        4237            0.0000000000
     12712      4238  TIP3      OH2           -16.3200366405       13.4720177139      -21.9215696465  W2        4238            0.0000000000
     12713      4238  TIP3      H1            -16.8211966405       13.4439577139      -22.7365996465  W2        4238            0.0000000000
     12714      4238  TIP3      H2            -16.3146666405       12.5663377139      -21.6118396465  W2        4238            0.0000000000
     12715      4239  TIP3      OH2           -16.5697666405       16.2523977139      -25.0375496465  W2        4239            0.0000000000
     12716      4239  TIP3      H1            -15.6237066405       16.1080977139      -25.0565996465  W2        4239            0.0000000000
     12717      4239  TIP3      H2            -16.6821366405       17.0366777139      -24.5004296465  W2        4239            0.0000000000
     12718      4240  TIP3      OH2             1.6280833595       16.9183677139      -19.3551796465  W2        4240            0.0000000000
     12719      4240  TIP3      H1              1.5787633595       15.9631777139      -19.3924196465  W2        4240            0.0000000000
     12720      4240  TIP3      H2              0.8013133595       17.1858977139      -18.9537996465  W2        4240            0.0000000000
     12721      4241  TIP3      OH2            -7.3935166405       16.4922877139      -20.4790396465  W2        4241            0.0000000000
     12722      4241  TIP3      H1             -7.3060566405       17.3187477139      -20.0041296465  W2        4241            0.0000000000
     12723      4241  TIP3      H2             -8.2570066405       16.1626677139      -20.2301096465  W2        4241            0.0000000000
     12724      4242  TIP3      OH2            -6.9789366405       20.2646577139      -30.6729796465  W2        4242            0.0000000000
     12725      4242  TIP3      H1             -7.0543366405       20.1433777139      -31.6194596465  W2        4242            0.0000000000
     12726      4242  TIP3      H2             -6.9460666405       21.2139277139      -30.5545196465  W2        4242            0.0000000000
     12727      4243  TIP3      OH2           -13.3255566405       19.0533577139      -28.8920796465  W2        4243            0.0000000000
     12728      4243  TIP3      H1            -13.1735166405       18.7053977139      -28.0134296465  W2        4243            0.0000000000
     12729      4243  TIP3      H2            -14.1765166405       18.6970877139      -29.1473596465  W2        4243            0.0000000000
     12730      4244  TIP3      OH2            -3.8773366405       19.4186777139      -33.6707396465  W2        4244            0.0000000000
     12731      4244  TIP3      H1             -3.5024966405       18.6742877139      -34.1414796465  W2        4244            0.0000000000
     12732      4244  TIP3      H2             -3.8729666405       19.1487377139      -32.7524096465  W2        4244            0.0000000000
     12733      4245  TIP3      OH2            -4.2085266405       19.3443877139      -30.9215196465  W2        4245            0.0000000000
     12734      4245  TIP3      H1             -5.1435466405       19.4445777139      -30.7428196465  W2        4245            0.0000000000
     12735      4245  TIP3      H2             -3.9283366405       18.6349877139      -30.3431996465  W2        4245            0.0000000000
     12736      4246  TIP3      OH2            -1.2199366405        8.4116177139      -18.8749596465  W2        4246            0.0000000000
     12737      4246  TIP3      H1             -1.6272566405        8.8921777139      -19.5956296465  W2        4246            0.0000000000
     12738      4246  TIP3      H2             -1.1793666405        7.5062177139      -19.1828796465  W2        4246            0.0000000000
     12739      4247  TIP3      OH2           -14.0709866405       14.7955577139      -20.8782896465  W2        4247            0.0000000000
     12740      4247  TIP3      H1            -13.8548566405       14.4341177139      -20.0187096465  W2        4247            0.0000000000
     12741      4247  TIP3      H2            -14.9265166405       14.4209377139      -21.0879396465  W2        4247            0.0000000000
     12742      4248  TIP3      OH2           -11.4521866405        3.2656077139      -24.8828696465  W2        4248            0.0000000000
     12743      4248  TIP3      H1            -12.3138166405        3.1784277139      -25.2905796465  W2        4248            0.0000000000
     12744      4248  TIP3      H2            -11.4746166405        4.1216177139      -24.4551096465  W2        4248            0.0000000000
     12745      4249  TIP3      OH2            -6.7894066405        2.9876477139      -21.5081696465  W2        4249            0.0000000000
     12746      4249  TIP3      H1             -6.3690966405        2.5723577139      -20.7551096465  W2        4249            0.0000000000
     12747      4249  TIP3      H2             -7.7224466405        2.8089777139      -21.3909696465  W2        4249            0.0000000000
     12748      4250  TIP3      OH2            -3.4629166405        6.7431677139      -20.6547196465  W2        4250            0.0000000000
     12749      4250  TIP3      H1             -3.9769666405        6.6173877139      -19.8571196465  W2        4250            0.0000000000
     12750      4250  TIP3      H2             -3.6184466405        7.6554777139      -20.8990996465  W2        4250            0.0000000000
     12751      4251  TIP3      OH2            -2.7004266405       11.6041677139      -34.8934196465  W2        4251            0.0000000000
     12752      4251  TIP3      H1             -2.6583466405       11.3815577139      -35.8234196465  W2        4251            0.0000000000
     12753      4251  TIP3      H2             -1.8512166405       12.0028777139      -34.7034296465  W2        4251            0.0000000000
     12754      4252  TIP3      OH2            -7.1276766405        5.4799877139      -34.2230896465  W2        4252            0.0000000000
     12755      4252  TIP3      H1             -7.3811966405        5.4991477139      -33.3002796465  W2        4252            0.0000000000
     12756      4252  TIP3      H2             -7.3844666405        4.6085277139      -34.5244696465  W2        4252            0.0000000000
     12757      4253  TIP3      OH2           -11.3611766405        8.2310577139      -23.7878496465  W2        4253            0.0000000000
     12758      4253  TIP3      H1            -12.0029666405        8.1907877139      -23.0788396465  W2        4253            0.0000000000
     12759      4253  TIP3      H2            -11.3239766405        9.1575277139      -24.0255496465  W2        4253            0.0000000000
     12760      4254  TIP3      OH2           -11.3642666405        8.4520677139      -28.8758496465  W2        4254            0.0000000000
     12761      4254  TIP3      H1            -12.2569766405        8.1116777139      -28.9344696465  W2        4254            0.0000000000
     12762      4254  TIP3      H2            -10.9136066405        8.0751577139      -29.6315296465  W2        4254            0.0000000000
     12763      4255  TIP3      OH2            -5.8287166405        8.8680977139      -30.0587696465  W2        4255            0.0000000000
     12764      4255  TIP3      H1             -6.2376866405        9.6829577139      -30.3502896465  W2        4255            0.0000000000
     12765      4255  TIP3      H2             -5.1080966405        8.7281077139      -30.6730596465  W2        4255            0.0000000000
     12766      4256  TIP3      OH2            -6.7265566405        9.0437377139      -18.5706996465  W2        4256            0.0000000000
     12767      4256  TIP3      H1             -7.2891766405        8.3388977139      -18.2499196465  W2        4256            0.0000000000
     12768      4256  TIP3      H2             -5.9002166405        8.9229277139      -18.1029396465  W2        4256            0.0000000000
     12769      4257  TIP3      OH2            -4.8239466405        8.3141377139      -27.2447996465  W2        4257            0.0000000000
     12770      4257  TIP3      H1             -5.0194966405        8.9198177139      -27.9597396465  W2        4257            0.0000000000
     12771      4257  TIP3      H2             -4.6426866405        7.4806577139      -27.6791696465  W2        4257            0.0000000000
     12772      4258  TIP3      OH2           -13.6111266405        8.5514077139      -21.9206496465  W2        4258            0.0000000000
     12773      4258  TIP3      H1            -13.6491866405        8.9515677139      -21.0519396465  W2        4258            0.0000000000
     12774      4258  TIP3      H2            -14.1020166405        7.7346477139      -21.8303596465  W2        4258            0.0000000000
     12775      4259  TIP3      OH2           -10.2453866405        5.9256377139      -35.1220496465  W2        4259            0.0000000000
     12776      4259  TIP3      H1            -10.6763166405        5.4806477139      -34.3923096465  W2        4259            0.0000000000
     12777      4259  TIP3      H2            -10.9635166405        6.2972677139      -35.6342996465  W2        4259            0.0000000000
     12778      4260  TIP3      OH2           -17.0030466405        5.6675877139      -28.0701796465  W2        4260            0.0000000000
     12779      4260  TIP3      H1            -16.3722766405        5.6387977139      -27.3507896465  W2        4260            0.0000000000
     12780      4260  TIP3      H2            -16.5536166405        5.2424577139      -28.8005896465  W2        4260            0.0000000000
     12781      4261  TIP3      OH2           -15.7288366405        6.4137877139      -32.6461396465  W2        4261            0.0000000000
     12782      4261  TIP3      H1            -15.2546666405        7.0047777139      -33.2310496465  W2        4261            0.0000000000
     12783      4261  TIP3      H2            -16.4461966405        6.9440777139      -32.2991296465  W2        4261            0.0000000000
     12784      4262  TIP3      OH2            -5.5600266405        9.9522677139      -22.5735596465  W2        4262            0.0000000000
     12785      4262  TIP3      H1             -5.2365466405        9.3212377139      -23.2165096465  W2        4262            0.0000000000
     12786      4262  TIP3      H2             -6.0000966405        9.4174877139      -21.9128196465  W2        4262            0.0000000000
     12787      4263  TIP3      OH2            -8.7827366405        5.8798177139      -27.7894396465  W2        4263            0.0000000000
     12788      4263  TIP3      H1             -9.6936266405        5.9364977139      -27.5008396465  W2        4263            0.0000000000
     12789      4263  TIP3      H2             -8.2774466405        5.8193677139      -26.9787196465  W2        4263            0.0000000000
     12790      4264  TIP3      OH2           -13.9543966405        7.5084477139      -28.9626796465  W2        4264            0.0000000000
     12791      4264  TIP3      H1            -14.8435966405        7.6079977139      -29.3027196465  W2        4264            0.0000000000
     12792      4264  TIP3      H2            -13.6579066405        6.6667477139      -29.3088896465  W2        4264            0.0000000000
     12793      4265  TIP3      OH2           -10.3012166405        7.5087077139      -31.3062196465  W2        4265            0.0000000000
     12794      4265  TIP3      H1             -9.3696666405        7.6377077139      -31.1279096465  W2        4265            0.0000000000
     12795      4265  TIP3      H2            -10.5161866405        8.1781377139      -31.9557496465  W2        4265            0.0000000000
     12796      4266  TIP3      OH2            -4.3775466405        5.1144477139      -24.5252596465  W2        4266            0.0000000000
     12797      4266  TIP3      H1             -5.0543866405        5.2457577139      -23.8612896465  W2        4266            0.0000000000
     12798      4266  TIP3      H2             -4.8630566405        4.9593977139      -25.3354896465  W2        4266            0.0000000000
     12799      4267  TIP3      OH2           -11.6271966405        8.7029277139      -33.7396096465  W2        4267            0.0000000000
     12800      4267  TIP3      H1            -12.1696866405        8.3233077139      -34.4308496465  W2        4267            0.0000000000
     12801      4267  TIP3      H2            -10.7937066405        8.8973977139      -34.1681996465  W2        4267            0.0000000000
     12802      4268  TIP3      OH2            -1.0900366405       20.7859877139      -18.2484996465  W2        4268            0.0000000000
     12803      4268  TIP3      H1             -0.8901666405       21.2101777139      -19.0829696465  W2        4268            0.0000000000
     12804      4268  TIP3      H2             -0.4346666405       21.1298077139      -17.6414596465  W2        4268            0.0000000000
     12805      4269  TIP3      OH2           -13.4920566405       13.2601177139      -18.6404496465  W2        4269            0.0000000000
     12806      4269  TIP3      H1            -12.7598166405       13.5147077139      -18.0789996465  W2        4269            0.0000000000
     12807      4269  TIP3      H2            -14.2721866405       13.4646577139      -18.1249096465  W2        4269            0.0000000000
     12808      4270  TIP3      OH2            -7.4627666405        8.6671177139      -25.9024796465  W2        4270            0.0000000000
     12809      4270  TIP3      H1             -6.8984266405        8.1207777139      -26.4495196465  W2        4270            0.0000000000
     12810      4270  TIP3      H2             -7.6104266405        8.1453077139      -25.1137196465  W2        4270            0.0000000000
     12811      4271  TIP3      OH2           -12.4607966405        4.8037277139      -29.4839996465  W2        4271            0.0000000000
     12812      4271  TIP3      H1            -12.7778466405        3.9012577139      -29.5194596465  W2        4271            0.0000000000
     12813      4271  TIP3      H2            -11.6793866405        4.8054677139      -30.0368396465  W2        4271            0.0000000000
     12814      4272  TIP3      OH2            -8.8361766405        7.0557277139      -23.4884396465  W2        4272            0.0000000000
     12815      4272  TIP3      H1             -9.6716466405        7.5096777139      -23.3781996465  W2        4272            0.0000000000
     12816      4272  TIP3      H2             -8.3121166405        7.3315777139      -22.7364496465  W2        4272            0.0000000000
     12817      4273  TIP3      OH2            -8.2919166405       13.2684977139      -31.8037996465  W2        4273            0.0000000000
     12818      4273  TIP3      H1             -9.0368166405       12.7610277139      -32.1260096465  W2        4273            0.0000000000
     12819      4273  TIP3      H2             -8.4261966405       13.3172977139      -30.8573196465  W2        4273            0.0000000000
     12820      4274  TIP3      OH2            -1.1420266405       12.4013177139      -23.0170396465  W2        4274            0.0000000000
     12821      4274  TIP3      H1             -0.5001466405       12.8579477139      -23.5608196465  W2        4274            0.0000000000
     12822      4274  TIP3      H2             -1.9723366405       12.5145577139      -23.4796296465  W2        4274            0.0000000000
     12823      4275  TIP3      OH2            -4.3942366405        6.0824877139      -33.6045396465  W2        4275            0.0000000000
     12824      4275  TIP3      H1             -5.3328166405        6.1940477139      -33.7556596465  W2        4275            0.0000000000
     12825      4275  TIP3      H2             -4.0970266405        6.9391777139      -33.2979696465  W2        4275            0.0000000000
     12826      4276  TIP3      OH2            -6.7727066405       13.4528277139      -20.5668896465  W2        4276            0.0000000000
     12827      4276  TIP3      H1             -7.1180966405       13.0710677139      -19.7599296465  W2        4276            0.0000000000
     12828      4276  TIP3      H2             -6.9726966405       14.3861877139      -20.4955996465  W2        4276            0.0000000000
     12829      4277  TIP3      OH2            -3.6758866405        7.9497577139      -31.9437996465  W2        4277            0.0000000000
     12830      4277  TIP3      H1             -2.7839866405        7.8122577139      -31.6246796465  W2        4277            0.0000000000
     12831      4277  TIP3      H2             -3.6195266405        8.7403677139      -32.4804496465  W2        4277            0.0000000000
     12832      4278  TIP3      OH2           -13.1670866405       12.5634977139      -26.0340096465  W2        4278            0.0000000000
     12833      4278  TIP3      H1            -12.4223666405       12.5610677139      -26.6353596465  W2        4278            0.0000000000
     12834      4278  TIP3      H2            -13.0894266405       11.7398777139      -25.5524996465  W2        4278            0.0000000000
     12835      4279  TIP3      OH2            -6.1665066405       14.7269277139      -32.7783396465  W2        4279            0.0000000000
     12836      4279  TIP3      H1             -6.4616666405       15.5537177139      -32.3968596465  W2        4279            0.0000000000
     12837      4279  TIP3      H2             -6.8695066405       14.1076177139      -32.5821996465  W2        4279            0.0000000000
     12838      4280  TIP3      OH2           -16.1591166405       11.0241877139      -20.7191596465  W2        4280            0.0000000000
     12839      4280  TIP3      H1            -15.9362566405       10.6061477139      -19.8874096465  W2        4280            0.0000000000
     12840      4280  TIP3      H2            -16.7611066405       10.4116877139      -21.1418796465  W2        4280            0.0000000000
     12841      4281  TIP3      OH2            -9.1426266405       10.5411777139      -18.5061896465  W2        4281            0.0000000000
     12842      4281  TIP3      H1             -9.4385466405       10.3754777139      -19.4012796465  W2        4281            0.0000000000
     12843      4281  TIP3      H2             -8.2111066405       10.3212077139      -18.5167996465  W2        4281            0.0000000000
     12844      4282  TIP3      OH2            -4.5223466405       15.9143777139      -20.6163896465  W2        4282            0.0000000000
     12845      4282  TIP3      H1             -5.4229166405       16.0976377139      -20.8839996465  W2        4282            0.0000000000
     12846      4282  TIP3      H2             -4.4882366405       16.1733077139      -19.6955096465  W2        4282            0.0000000000
     12847      4283  TIP3      OH2             1.2089833595        8.1591677139      -32.2491296465  W2        4283            0.0000000000
     12848      4283  TIP3      H1              0.6546133595        7.7629677139      -32.9213796465  W2        4283            0.0000000000
     12849      4283  TIP3      H2              1.3093433595        9.0696877139      -32.5267996465  W2        4283            0.0000000000
     12850      4284  TIP3      OH2             1.1721833595       13.9593377139      -19.4119796465  W2        4284            0.0000000000
     12851      4284  TIP3      H1              0.3210333595       14.1977177139      -19.7793396465  W2        4284            0.0000000000
     12852      4284  TIP3      H2              1.7625233595       13.9426577139      -20.1652696465  W2        4284            0.0000000000
     12853      4285  TIP3      OH2            -0.4958466405       16.9452077139      -31.7839196465  W2        4285            0.0000000000
     12854      4285  TIP3      H1             -0.8687366405       16.1195877139      -31.4748596465  W2        4285            0.0000000000
     12855      4285  TIP3      H2             -0.2184966405       16.7621477139      -32.6815796465  W2        4285            0.0000000000
     12856      4286  TIP3      OH2            -3.3354566405       11.7531577139      -24.7627296465  W2        4286            0.0000000000
     12857      4286  TIP3      H1             -4.2637666405       11.5213477139      -24.7897996465  W2        4286            0.0000000000
     12858      4286  TIP3      H2             -2.8843466405       10.9761377139      -25.0928496465  W2        4286            0.0000000000
     12859      4287  TIP3      OH2           -10.7921466405       16.0813177139      -28.6298596465  W2        4287            0.0000000000
     12860      4287  TIP3      H1            -10.2649266405       16.8547577139      -28.8299796465  W2        4287            0.0000000000
     12861      4287  TIP3      H2            -11.6722966405       16.3062377139      -28.9314596465  W2        4287            0.0000000000
     12862      4288  TIP3      OH2           -15.0373766405       10.9437277139      -34.0426196465  W2        4288            0.0000000000
     12863      4288  TIP3      H1            -14.4213866405       11.5704477139      -33.6631396465  W2        4288            0.0000000000
     12864      4288  TIP3      H2            -15.8991166405       11.2597077139      -33.7709696465  W2        4288            0.0000000000
     12865      4289  TIP3      OH2            -9.3649166405       13.7443077139      -29.0534296465  W2        4289            0.0000000000
     12866      4289  TIP3      H1             -9.6059166405       14.6697477139      -29.0118996465  W2        4289            0.0000000000
     12867      4289  TIP3      H2            -10.1055566405       13.2854377139      -28.6570396465  W2        4289            0.0000000000
     12868      4290  TIP3      OH2            -8.8502566405       17.8936677139      -22.7383196465  W2        4290            0.0000000000
     12869      4290  TIP3      H1             -8.4877866405       18.7482277139      -22.9718796465  W2        4290            0.0000000000
     12870      4290  TIP3      H2             -8.3187366405       17.6018277139      -21.9976896465  W2        4290            0.0000000000
     12871      4291  TIP3      OH2           -10.6818366405       18.7660677139      -29.5082096465  W2        4291            0.0000000000
     12872      4291  TIP3      H1            -11.6317866405       18.8718077139      -29.4568796465  W2        4291            0.0000000000
     12873      4291  TIP3      H2            -10.3300266405       19.5868077139      -29.1634596465  W2        4291            0.0000000000
     12874      4292  TIP3      OH2            -5.3061766405       13.9927377139      -23.0377596465  W2        4292            0.0000000000
     12875      4292  TIP3      H1             -5.7320466405       13.7649077139      -22.2113596465  W2        4292            0.0000000000
     12876      4292  TIP3      H2             -4.7255966405       13.2539177139      -23.2202296465  W2        4292            0.0000000000
     12877      4293  TIP3      OH2            -3.1032866405       14.9217877139      -33.9638596465  W2        4293            0.0000000000
     12878      4293  TIP3      H1             -2.7499766405       14.5417677139      -33.1595096465  W2        4293            0.0000000000
     12879      4293  TIP3      H2             -4.0519366405       14.8282677139      -33.8769296465  W2        4293            0.0000000000
     12880      4294  TIP3      OH2            -2.6477566405       18.5446877139      -20.5682796465  W2        4294            0.0000000000
     12881      4294  TIP3      H1             -3.2494366405       17.9889777139      -21.0636496465  W2        4294            0.0000000000
     12882      4294  TIP3      H2             -2.3663866405       19.2116677139      -21.1945396465  W2        4294            0.0000000000
     12883      4295  TIP3      OH2             1.4001533595       19.4010377139      -33.7628396465  W2        4295            0.0000000000
     12884      4295  TIP3      H1              2.1439433595       19.9870877139      -33.9026796465  W2        4295            0.0000000000
     12885      4295  TIP3      H2              0.7059633595       19.9696177139      -33.4295996465  W2        4295            0.0000000000
     12886      4296  TIP3      OH2           -14.5251666405        5.7774577139      -21.1610196465  W2        4296            0.0000000000
     12887      4296  TIP3      H1            -15.4179366405        6.1159977139      -21.2286196465  W2        4296            0.0000000000
     12888      4296  TIP3      H2            -14.6238866405        4.9220677139      -20.7429396465  W2        4296            0.0000000000
     12889      4297  TIP3      OH2            -2.2373566405       13.5939877139      -31.7370696465  W2        4297            0.0000000000
     12890      4297  TIP3      H1             -2.5145966405       12.8659177139      -31.1809596465  W2        4297            0.0000000000
     12891      4297  TIP3      H2             -1.3100566405       13.7131877139      -31.5318096465  W2        4297            0.0000000000
     12892      4298  TIP3      OH2           -14.8739666405       17.5818977139      -22.7260796465  W2        4298            0.0000000000
     12893      4298  TIP3      H1            -14.6569366405       16.6501377139      -22.7571096465  W2        4298            0.0000000000
     12894      4298  TIP3      H2            -14.6276166405       17.8563977139      -21.8427996465  W2        4298            0.0000000000
     12895      4299  TIP3      OH2            -9.0125066405       16.0333977139      -35.5168596465  W2        4299            0.0000000000
     12896      4299  TIP3      H1             -8.7735266405       15.2852077139      -36.0639696465  W2        4299            0.0000000000
     12897      4299  TIP3      H2             -9.2813766405       15.6455677139      -34.6840796465  W2        4299            0.0000000000
     12898      4300  TIP3      OH2           -10.0754466405       15.6037777139      -33.0605996465  W2        4300            0.0000000000
     12899      4300  TIP3      H1             -9.9286466405       15.0837577139      -32.2705096465  W2        4300            0.0000000000
     12900      4300  TIP3      H2            -10.0782766405       16.5105377139      -32.7540096465  W2        4300            0.0000000000
     12901      4301  TIP3      OH2           -13.6223366405       12.8561077139      -32.5500596465  W2        4301            0.0000000000
     12902      4301  TIP3      H1            -14.3084066405       13.2083577139      -31.9830896465  W2        4301            0.0000000000
     12903      4301  TIP3      H2            -13.0995466405       13.6190677139      -32.7966296465  W2        4301            0.0000000000
     12904      4302  TIP3      OH2            -5.7908266405        5.5184877139      -22.2711596465  W2        4302            0.0000000000
     12905      4302  TIP3      H1             -5.0920366405        5.5923577139      -21.6211896465  W2        4302            0.0000000000
     12906      4302  TIP3      H2             -6.1716866405        4.6539877139      -22.1168696465  W2        4302            0.0000000000
     12907      4303  TIP3      OH2            -5.0063366405        5.1706577139      -31.1739296465  W2        4303            0.0000000000
     12908      4303  TIP3      H1             -4.7865066405        5.6421977139      -31.9773896465  W2        4303            0.0000000000
     12909      4303  TIP3      H2             -4.4479366405        5.5649177139      -30.5038696465  W2        4303            0.0000000000
     12910      4304  TIP3      OH2            -7.3377266405       17.3011377139      -32.3111796465  W2        4304            0.0000000000
     12911      4304  TIP3      H1             -8.1541166405       17.7981077139      -32.2587496465  W2        4304            0.0000000000
     12912      4304  TIP3      H2             -6.8080966405       17.7764877139      -32.9512996465  W2        4304            0.0000000000
     12913      4305  TIP3      OH2            -7.8063466405        6.8985377139      -30.3390896465  W2        4305            0.0000000000
     12914      4305  TIP3      H1             -6.9940866405        7.4028577139      -30.2929196465  W2        4305            0.0000000000
     12915      4305  TIP3      H2             -8.0510466405        6.7535077139      -29.4251296465  W2        4305            0.0000000000
     12916      4306  TIP3      OH2            -7.2707066405        7.8848077139      -21.1544296465  W2        4306            0.0000000000
     12917      4306  TIP3      H1             -7.1516766405        8.4583477139      -20.3973896465  W2        4306            0.0000000000
     12918      4306  TIP3      H2             -6.6152466405        7.1967477139      -21.0396496465  W2        4306            0.0000000000
     12919      4307  TIP3      OH2            -6.9226766405        3.9798377139      -29.4009796465  W2        4307            0.0000000000
     12920      4307  TIP3      H1             -7.2693266405        4.5968977139      -28.7565496465  W2        4307            0.0000000000
     12921      4307  TIP3      H2             -6.2639866405        4.4804077139      -29.8824296465  W2        4307            0.0000000000
     12922      4308  TIP3      OH2            -9.9994166405       18.3448577139      -32.3294896465  W2        4308            0.0000000000
     12923      4308  TIP3      H1             -9.8385466405       19.1446077139      -32.8302296465  W2        4308            0.0000000000
     12924      4308  TIP3      H2            -10.1966366405       18.6514577139      -31.4444296465  W2        4308            0.0000000000
     12925      4309  TIP3      OH2           -11.2649766405        5.0427777139      -32.7137296465  W2        4309            0.0000000000
     12926      4309  TIP3      H1            -11.3484966405        5.9310877139      -32.3670896465  W2        4309            0.0000000000
     12927      4309  TIP3      H2            -10.3749466405        4.7774477139      -32.4820496465  W2        4309            0.0000000000
     12928      4310  TIP3      OH2            -1.0661266405        5.7918377139      -20.3194596465  W2        4310            0.0000000000
     12929      4310  TIP3      H1             -1.9825466405        6.0540077139      -20.4070896465  W2        4310            0.0000000000
     12930      4310  TIP3      H2             -0.7306266405        5.7887377139      -21.2159296465  W2        4310            0.0000000000
     12931      4311  TIP3      OH2            -2.4640266405        9.5419377139      -26.2237296465  W2        4311            0.0000000000
     12932      4311  TIP3      H1             -3.2615866405        9.1269577139      -26.5522296465  W2        4311            0.0000000000
     12933      4311  TIP3      H2             -2.0189166405        8.8513077139      -25.7326796465  W2        4311            0.0000000000
     12934      4312  TIP3      OH2           -13.0064466405       15.4699977139      -33.6532796465  W2        4312            0.0000000000
     12935      4312  TIP3      H1            -12.4142966405       16.1694777139      -33.3770396465  W2        4312            0.0000000000
     12936      4312  TIP3      H2            -12.5471466405       15.0369477139      -34.3728196465  W2        4312            0.0000000000
     12937      4313  TIP3      OH2           -14.6905266405        8.1342977139      -34.5373396465  W2        4313            0.0000000000
     12938      4313  TIP3      H1            -14.7352666405        9.0736077139      -34.3586396465  W2        4313            0.0000000000
     12939      4313  TIP3      H2            -15.5782066405        7.8987877139      -34.8071296465  W2        4313            0.0000000000
     12940      4314  TIP3      OH2            -1.3775666405       18.7981877139      -24.6013796465  W2        4314            0.0000000000
     12941      4314  TIP3      H1             -1.5331366405       19.4766277139      -25.2584496465  W2        4314            0.0000000000
     12942      4314  TIP3      H2             -0.4449266405       18.8701177139      -24.3983196465  W2        4314            0.0000000000
     12943      4315  TIP3      OH2           -13.8823266405        2.9159577139      -25.8642396465  W2        4315            0.0000000000
     12944      4315  TIP3      H1            -14.1113466405        2.9752077139      -26.7917396465  W2        4315            0.0000000000
     12945      4315  TIP3      H2            -14.3249866405        2.1245077139      -25.5578296465  W2        4315            0.0000000000
     12946      4316  TIP3      OH2           -14.9519966405       16.8566677139      -29.7036596465  W2        4316            0.0000000000
     12947      4316  TIP3      H1            -15.7841366405       17.3289377139      -29.6765196465  W2        4316            0.0000000000
     12948      4316  TIP3      H2            -14.4061666405       17.3664277139      -30.3023496465  W2        4316            0.0000000000
     12949      4317  TIP3      OH2           -15.6636266405       19.4690377139      -18.3738596465  W2        4317            0.0000000000
     12950      4317  TIP3      H1            -15.1234066405       19.2524377139      -17.6139396465  W2        4317            0.0000000000
     12951      4317  TIP3      H2            -16.1448266405       18.6636377139      -18.5636096465  W2        4317            0.0000000000
     12952      4318  TIP3      OH2           -11.0662866405       18.3884777139      -16.7534396465  W2        4318            0.0000000000
     12953      4318  TIP3      H1            -10.2985666405       17.9295577139      -16.4125196465  W2        4318            0.0000000000
     12954      4318  TIP3      H2            -11.0876666405       18.1624577139      -17.6833196465  W2        4318            0.0000000000
     12955      4319  TIP3      OH2            -6.9743266405       17.8965377139      -35.3782596465  W2        4319            0.0000000000
     12956      4319  TIP3      H1             -7.6182266405       17.2653977139      -35.0568896465  W2        4319            0.0000000000
     12957      4319  TIP3      H2             -6.2124966405       17.3653377139      -35.6099096465  W2        4319            0.0000000000
     12958      4320  TIP3      OH2            -4.4894166405       16.7685877139      -18.0242896465  W2        4320            0.0000000000
     12959      4320  TIP3      H1             -4.8404666405       15.9118877139      -17.7812496465  W2        4320            0.0000000000
     12960      4320  TIP3      H2             -3.7630966405       16.9112577139      -17.4173896465  W2        4320            0.0000000000
     12961      4321  TIP3      OH2            -2.3700366405       17.7135277139      -35.1444596465  W2        4321            0.0000000000
     12962      4321  TIP3      H1             -2.0869966405       16.9190477139      -34.6917696465  W2        4321            0.0000000000
     12963      4321  TIP3      H2             -1.6302466405       17.9466277139      -35.7053496465  W2        4321            0.0000000000
     12964      4322  TIP3      OH2           -15.7566766405       13.2794477139      -17.4194296465  W2        4322            0.0000000000
     12965      4322  TIP3      H1            -15.6126266405       12.3775177139      -17.7057596465  W2        4322            0.0000000000
     12966      4322  TIP3      H2            -16.5289366405       13.5656577139      -17.9071996465  W2        4322            0.0000000000
     12967      4323  TIP3      OH2           -11.4153066405       13.6230177139      -35.2869696465  W2        4323            0.0000000000
     12968      4323  TIP3      H1            -11.3508966405       12.8289777139      -34.7563296465  W2        4323            0.0000000000
     12969      4323  TIP3      H2            -10.7623866405       13.5042977139      -35.9767696465  W2        4323            0.0000000000
     12970      4324  TIP3      OH2            -9.1010666405       13.2492577139      -17.9867896465  W2        4324            0.0000000000
     12971      4324  TIP3      H1             -9.4296866405       13.5200677139      -18.8440496465  W2        4324            0.0000000000
     12972      4324  TIP3      H2             -8.9492466405       12.3082377139      -18.0742896465  W2        4324            0.0000000000
     12973      4325  TIP3      OH2            -6.0629666405       14.6701877139      -35.5511696465  W2        4325            0.0000000000
     12974      4325  TIP3      H1             -6.3315566405       14.8503977139      -34.6502796465  W2        4325            0.0000000000
     12975      4325  TIP3      H2             -6.2694066405       13.7448077139      -35.6825896465  W2        4325            0.0000000000
     12976      4326  TIP3      OH2            -3.3665466405       13.1649877139      -20.6035596465  W2        4326            0.0000000000
     12977      4326  TIP3      H1             -2.6210666405       13.7533577139      -20.7231596465  W2        4326            0.0000000000
     12978      4326  TIP3      H2             -4.1238666405       13.7469577139      -20.5402496465  W2        4326            0.0000000000
     12979      4327  TIP3      OH2           -14.9240266405       10.4797777139      -17.9994996465  W2        4327            0.0000000000
     12980      4327  TIP3      H1            -14.5159066405        9.6224377139      -18.1204396465  W2        4327            0.0000000000
     12981      4327  TIP3      H2            -15.1842666405       10.4939077139      -17.0784696465  W2        4327            0.0000000000
     12982      4328  TIP3      OH2           -10.2659266405       11.5956377139      -32.9811696465  W2        4328            0.0000000000
     12983      4328  TIP3      H1            -10.7257266405       11.1114677139      -32.2953196465  W2        4328            0.0000000000
     12984      4328  TIP3      H2            -10.0110566405       10.9271777139      -33.6171196465  W2        4328            0.0000000000
     12985      4329  TIP3      OH2           -10.9769966405        9.4883477139      -20.6252096465  W2        4329            0.0000000000
     12986      4329  TIP3      H1            -11.5953866405       10.1630077139      -20.3447396465  W2        4329            0.0000000000
     12987      4329  TIP3      H2            -10.6328766405        9.8097377139      -21.4585896465  W2        4329            0.0000000000
     12988      4330  TIP3      OH2            -9.1948866405        9.8388177139      -34.7188496465  W2        4330            0.0000000000
     12989      4330  TIP3      H1             -9.3753866405        9.6839377139      -35.6460196465  W2        4330            0.0000000000
     12990      4330  TIP3      H2             -8.2448366405        9.9466877139      -34.6740596465  W2        4330            0.0000000000
     12991      4331  TIP3      OH2            -5.9571766405       11.9598777139      -17.3477296465  W2        4331            0.0000000000
     12992      4331  TIP3      H1             -5.0040566405       12.0437877139      -17.3751296465  W2        4331            0.0000000000
     12993      4331  TIP3      H2             -6.1177166405       11.2480577139      -16.7282396465  W2        4331            0.0000000000
     12994      4332  TIP3      OH2             0.1949433595       12.1932377139      -35.2730396465  W2        4332            0.0000000000
     12995      4332  TIP3      H1             -0.0785766405       11.7687877139      -36.0862096465  W2        4332            0.0000000000
     12996      4332  TIP3      H2              0.2343533595       13.1246877139      -35.4899996465  W2        4332            0.0000000000
     12997      4333  TIP3      OH2           -10.6376266405        6.8434277139      -19.5428996465  W2        4333            0.0000000000
     12998      4333  TIP3      H1            -10.4875366405        6.1145577139      -20.1449296465  W2        4333            0.0000000000
     12999      4333  TIP3      H2            -10.6353866405        7.6205977139      -20.1016796465  W2        4333            0.0000000000
     13000      4334  TIP3      OH2           -10.2250566405        5.2130077139      -22.0501596465  W2        4334            0.0000000000
     13001      4334  TIP3      H1             -9.6893066405        5.6646777139      -22.7022296465  W2        4334            0.0000000000
     13002      4334  TIP3      H2            -11.0770966405        5.1049877139      -22.4727496465  W2        4334            0.0000000000
     13003      4335  TIP3      OH2            -8.6432166405       10.6526277139      -21.8106396465  W2        4335            0.0000000000
     13004      4335  TIP3      H1             -7.8927366405       10.4963777139      -22.3838596465  W2        4335            0.0000000000
     13005      4335  TIP3      H2             -8.9823866405       11.5042877139      -22.0860896465  W2        4335            0.0000000000
     13006      4336  TIP3      OH2            -4.2275966405        8.4678077139      -16.7821096465  W2        4336            0.0000000000
     13007      4336  TIP3      H1             -4.0354666405        7.5367477139      -16.8936596465  W2        4336            0.0000000000
     13008      4336  TIP3      H2             -3.3699666405        8.8927577139      -16.7925696465  W2        4336            0.0000000000
     13009      4337  TIP3      OH2            -2.9108766405       11.2563277139      -18.7048396465  W2        4337            0.0000000000
     13010      4337  TIP3      H1             -3.1923766405       11.9657877139      -19.2824596465  W2        4337            0.0000000000
     13011      4337  TIP3      H2             -1.9684466405       11.1836277139      -18.8557196465  W2        4337            0.0000000000
     13012      4338  TIP3      OH2           -12.1589966405        8.0417777139      -17.6313396465  W2        4338            0.0000000000
     13013      4338  TIP3      H1            -12.9260966405        7.5092577139      -17.8415796465  W2        4338            0.0000000000
     13014      4338  TIP3      H2            -11.4800966405        7.7318177139      -18.2307096465  W2        4338            0.0000000000
     13015      4339  TIP3      OH2            -9.4195066405        2.6695777139      -21.6187996465  W2        4339            0.0000000000
     13016      4339  TIP3      H1             -9.5175466405        3.6158977139      -21.7241796465  W2        4339            0.0000000000
     13017      4339  TIP3      H2            -10.1618866405        2.2969577139      -22.0944496465  W2        4339            0.0000000000
     13018      4340  TIP3      OH2            -8.1554566405        6.9911177139      -18.0549596465  W2        4340            0.0000000000
     13019      4340  TIP3      H1             -8.3909166405        6.7717877139      -17.1534696465  W2        4340            0.0000000000
     13020      4340  TIP3      H2             -8.9387666405        6.7842377139      -18.5647096465  W2        4340            0.0000000000
     13021      4341  TIP3      OH2            -5.4397966405        6.1184677139      -18.9796096465  W2        4341            0.0000000000
     13022      4341  TIP3      H1             -6.3872566405        6.1504377139      -18.8472796465  W2        4341            0.0000000000
     13023      4341  TIP3      H2             -5.1271266405        5.4931777139      -18.3257896465  W2        4341            0.0000000000
     13024      4342  TIP3      OH2            -3.8056466405        4.7525777139      -16.9744196465  W2        4342            0.0000000000
     13025      4342  TIP3      H1             -3.9024666405        3.8003077139      -16.9802296465  W2        4342            0.0000000000
     13026      4342  TIP3      H2             -4.1273366405        5.0212577139      -16.1138696465  W2        4342            0.0000000000
     13027      4343  TIP3      OH2           -13.9787166405        5.9621577139      -17.9268696465  W2        4343            0.0000000000
     13028      4343  TIP3      H1            -13.7669766405        5.2557677139      -18.5371196465  W2        4343            0.0000000000
     13029      4343  TIP3      H2            -14.0899666405        5.5247577139      -17.0827496465  W2        4343            0.0000000000
     13030      4344  TIP3      OH2            -9.1976966405        1.9633177139      -18.9475196465  W2        4344            0.0000000000
     13031      4344  TIP3      H1             -8.4858566405        1.3235377139      -18.9616096465  W2        4344            0.0000000000
     13032      4344  TIP3      H2             -9.2986566405        2.2301477139      -19.8612096465  W2        4344            0.0000000000
     13033      4345  TIP3      OH2            -8.8439466405        3.6461577139      -16.8938896465  W2        4345            0.0000000000
     13034      4345  TIP3      H1             -8.9757266405        3.1705377139      -17.7140396465  W2        4345            0.0000000000
     13035      4345  TIP3      H2             -9.4432066405        4.3905177139      -16.9491796465  W2        4345            0.0000000000
     13036      4346  TIP3      OH2            -9.2977166405       20.5291877139      -33.7174896465  W2        4346            0.0000000000
     13037      4346  TIP3      H1             -8.3646466405       20.6870577139      -33.5736496465  W2        4346            0.0000000000
     13038      4346  TIP3      H2             -9.5618366405       21.2044877139      -34.3423396465  W2        4346            0.0000000000
     13039      4347  TIP3      OH2           -15.7292266405       15.1655677139      -34.2346796465  W2        4347            0.0000000000
     13040      4347  TIP3      H1            -14.8153066405       15.2444577139      -33.9612896465  W2        4347            0.0000000000
     13041      4347  TIP3      H2            -15.7219166405       14.4785277139      -34.9011196465  W2        4347            0.0000000000
     13042      4348  TIP3      OH2           -17.0801666405       20.5584177139      -29.1572896465  W2        4348            0.0000000000
     13043      4348  TIP3      H1            -17.7274566405       20.0965877139      -29.6901696465  W2        4348            0.0000000000
     13044      4348  TIP3      H2            -16.7257066405       19.8867477139      -28.5746696465  W2        4348            0.0000000000
     13045      4349  TIP3      OH2           -16.2102466405       18.6391177139      -27.3526696465  W2        4349            0.0000000000
     13046      4349  TIP3      H1            -16.5445666405       17.7588477139      -27.1806496465  W2        4349            0.0000000000
     13047      4349  TIP3      H2            -15.9880066405       18.9846177139      -26.4881096465  W2        4349            0.0000000000
     13048      4350  TIP3      OH2             1.3382333595       19.4487577139      -24.3721896465  W2        4350            0.0000000000
     13049      4350  TIP3      H1              1.3169033595       19.6335977139      -23.4332496465  W2        4350            0.0000000000
     13050      4350  TIP3      H2              2.0288533595       20.0171577139      -24.7130496465  W2        4350            0.0000000000
     13051      4351  TIP3      OH2             0.9015233595       19.0158677139      -21.4502796465  W2        4351            0.0000000000
     13052      4351  TIP3      H1              0.4143933595       18.2802777139      -21.8215396465  W2        4351            0.0000000000
     13053      4351  TIP3      H2              1.4507933595       18.6222577139      -20.7723396465  W2        4351            0.0000000000
     13054      4352  TIP3      OH2            -0.6477466405       14.8056777139      -16.8122496465  W2        4352            0.0000000000
     13055      4352  TIP3      H1             -1.5136366405       14.7006477139      -16.4180196465  W2        4352            0.0000000000
     13056      4352  TIP3      H2             -0.2711566405       15.5640077139      -16.3657796465  W2        4352            0.0000000000
     13057      4353  TIP3      OH2             0.6532233595       13.0620477139      -31.2979996465  W2        4353            0.0000000000
     13058      4353  TIP3      H1              1.5033633595       13.4831377139      -31.1708396465  W2        4353            0.0000000000
     13059      4353  TIP3      H2              0.6587333595       12.3220577139      -30.6908596465  W2        4353            0.0000000000
     13060      4354  TIP3      OH2             1.0477833595       11.1157877139      -29.4744296465  W2        4354            0.0000000000
     13061      4354  TIP3      H1              0.3212433595       10.6360477139      -29.0766696465  W2        4354            0.0000000000
     13062      4354  TIP3      H2              1.6291133595       11.3212577139      -28.7422696465  W2        4354            0.0000000000
     13063      4355  TIP3      OH2             0.8069033595       13.9005377139      -24.5266696465  W2        4355            0.0000000000
     13064      4355  TIP3      H1              1.6403233595       13.5225377139      -24.8073096465  W2        4355            0.0000000000
     13065      4355  TIP3      H2              0.9189333595       14.8436577139      -24.6457596465  W2        4355            0.0000000000
     13066      4356  TIP3      OH2            -0.7068666405       16.7782877139      -22.2198296465  W2        4356            0.0000000000
     13067      4356  TIP3      H1             -1.3543366405       17.1034377139      -21.5943096465  W2        4356            0.0000000000
     13068      4356  TIP3      H2             -1.2244666405       16.3380577139      -22.8939996465  W2        4356            0.0000000000
     13069      4357  TIP3      OH2             1.3160933595       11.0166377139      -33.0832996465  W2        4357            0.0000000000
     13070      4357  TIP3      H1              0.7942033595       11.3730477139      -33.8022096465  W2        4357            0.0000000000
     13071      4357  TIP3      H2              1.2830133595       11.6914177139      -32.4052096465  W2        4357            0.0000000000
     13072      4358  TIP3      OH2            -0.3350066405        8.2561977139      -34.5325896465  W2        4358            0.0000000000
     13073      4358  TIP3      H1             -0.2385666405        8.9228977139      -35.2126196465  W2        4358            0.0000000000
     13074      4358  TIP3      H2             -0.4750466405        7.4408277139      -35.0140396465  W2        4358            0.0000000000
     13075      4359  TIP3      OH2            -1.1655366405        9.6364377139      -28.9115596465  W2        4359            0.0000000000
     13076      4359  TIP3      H1             -1.3156566405        8.6912977139      -28.9317796465  W2        4359            0.0000000000
     13077      4359  TIP3      H2             -1.5190866405        9.9175777139      -28.0676496465  W2        4359            0.0000000000
     13078      4360  TIP3      OH2           -16.1302966405       11.7146577139      -24.9011796465  W2        4360            0.0000000000
     13079      4360  TIP3      H1            -15.9460066405       11.6328277139      -25.8368896465  W2        4360            0.0000000000
     13080      4360  TIP3      H2            -15.2810066405       11.5903577139      -24.4775396465  W2        4360            0.0000000000
     13081      4361  TIP3      OH2            -0.3092466405       11.6067677139      -19.2727296465  W2        4361            0.0000000000
     13082      4361  TIP3      H1              0.2734833595       10.8719977139      -19.0810096465  W2        4361            0.0000000000
     13083      4361  TIP3      H2              0.2546833595       12.3787977139      -19.2261496465  W2        4361            0.0000000000
     13084      4362  TIP3      OH2             1.1874633595        9.5093477139      -18.5881896465  W2        4362            0.0000000000
     13085      4362  TIP3      H1              0.3241333595        9.1305577139      -18.7537196465  W2        4362            0.0000000000
     13086      4362  TIP3      H2              1.7918333595        8.7708277139      -18.6626096465  W2        4362            0.0000000000
     13087      4363  TIP3      OH2            -1.0876266405        5.6641777139      -35.4150396465  W2        4363            0.0000000000
     13088      4363  TIP3      H1             -0.4770466405        5.2928577139      -34.7782196465  W2        4363            0.0000000000
     13089      4363  TIP3      H2             -1.9244766405        5.2428677139      -35.2190396465  W2        4363            0.0000000000
     13090      4364  TIP3      OH2            -1.4550566405        7.2190177139      -30.4490496465  W2        4364            0.0000000000
     13091      4364  TIP3      H1             -1.1753466405        6.3120577139      -30.3248796465  W2        4364            0.0000000000
     13092      4364  TIP3      H2             -0.6958866405        7.6531677139      -30.8381296465  W2        4364            0.0000000000
     13093      4365  TIP3      OH2            -0.8432266405        7.8007577139      -25.0131596465  W2        4365            0.0000000000
     13094      4365  TIP3      H1              0.0895733595        8.0127477139      -25.0475596465  W2        4365            0.0000000000
     13095      4365  TIP3      H2             -1.0784766405        7.9019677139      -24.0908596465  W2        4365            0.0000000000
     13096      4366  TIP3      OH2            -0.8140366405        8.5372877139      -22.2372196465  W2        4366            0.0000000000
     13097      4366  TIP3      H1             -1.6569066405        8.8053277139      -21.8712396465  W2        4366            0.0000000000
     13098      4366  TIP3      H2             -0.3716066405        9.3594777139      -22.4481096465  W2        4366            0.0000000000
     13099      4367  TIP3      OH2           -16.5328166405        6.9851577139      -18.7602996465  W2        4367            0.0000000000
     13100      4367  TIP3      H1            -15.6133266405        6.8629877139      -18.5239896465  W2        4367            0.0000000000
     13101      4367  TIP3      H2            -16.9823666405        6.2351277139      -18.3709496465  W2        4367            0.0000000000
     13102      4368  TIP3      OH2             1.4691233595        2.5173077139      -16.8837196465  W2        4368            0.0000000000
     13103      4368  TIP3      H1              1.8188233595        1.8636577139      -17.4892496465  W2        4368            0.0000000000
     13104      4368  TIP3      H2              1.6160733595        3.3547177139      -17.3234596465  W2        4368            0.0000000000
     13105      4369  TIP3      OH2            -0.8415766405        4.4819477139      -30.4008496465  W2        4369            0.0000000000
     13106      4369  TIP3      H1             -0.6590766405        4.0330977139      -29.5753496465  W2        4369            0.0000000000
     13107      4369  TIP3      H2             -1.4412866405        3.8973877139      -30.8643896465  W2        4369            0.0000000000
     13108      4370  TIP3      OH2           -15.3115666405        5.2973177139      -25.8690096465  W2        4370            0.0000000000
     13109      4370  TIP3      H1            -14.8664066405        4.5055677139      -25.5670396465  W2        4370            0.0000000000
     13110      4370  TIP3      H2            -14.8452666405        6.0138377139      -25.4384496465  W2        4370            0.0000000000
     13111      4371  TIP3      OH2           -17.0075366405        8.2966177139      -24.7999896465  W2        4371            0.0000000000
     13112      4371  TIP3      H1            -16.5155566405        8.0756677139      -25.5907896465  W2        4371            0.0000000000
     13113      4371  TIP3      H2            -16.6454466405        9.1369577139      -24.5190396465  W2        4371            0.0000000000
     13114      4372  TIP3      OH2             0.9888433595        4.6267677139      -18.5345896465  W2        4372            0.0000000000
     13115      4372  TIP3      H1              0.0714133595        4.8974777139      -18.5702396465  W2        4372            0.0000000000
     13116      4372  TIP3      H2              1.1117833595        4.0916077139      -19.3186196465  W2        4372            0.0000000000
     13117      4373  TIP3      OH2             1.0250433595        4.5497577139      -33.8728196465  W2        4373            0.0000000000
     13118      4373  TIP3      H1              1.4373033595        3.8283277139      -34.3480196465  W2        4373            0.0000000000
     13119      4373  TIP3      H2              1.7066933595        5.2192177139      -33.8143896465  W2        4373            0.0000000000
     13120      4374  TIP3      OH2           -16.6938866405        4.5545277139      -30.7457496465  W2        4374            0.0000000000
     13121      4374  TIP3      H1            -17.6190466405        4.7631877139      -30.8751996465  W2        4374            0.0000000000
     13122      4374  TIP3      H2            -16.2398966405        5.0386077139      -31.4355196465  W2        4374            0.0000000000
     13123      4375  TIP3      OH2            -1.9231666405       19.5386977139      -28.8000096465  W2        4375            0.0000000000
     13124      4375  TIP3      H1             -1.2708766405       19.1909077139      -29.4080996465  W2        4375            0.0000000000
     13125      4375  TIP3      H2             -1.4127866405       20.0270177139      -28.1540396465  W2        4375            0.0000000000
     13126      4376  TIP3      OH2           -16.7303466405        3.2924277139      -22.4014996465  W2        4376            0.0000000000
     13127      4376  TIP3      H1            -17.3952966405        3.0464577139      -21.7584096465  W2        4376            0.0000000000
     13128      4376  TIP3      H2            -17.1732166405        3.9144677139      -22.9786996465  W2        4376            0.0000000000
     13129      4377  TIP3      OH2           -14.5384166405       16.4678377139      -18.2569196465  W2        4377            0.0000000000
     13130      4377  TIP3      H1            -15.3591666405       16.6424877139      -18.7174496465  W2        4377            0.0000000000
     13131      4377  TIP3      H2            -14.7906366405       16.3943077139      -17.3364796465  W2        4377            0.0000000000
     13132      4378  TIP3      OH2           -11.5841266405       17.4419577139      -21.9985196465  W2        4378            0.0000000000
     13133      4378  TIP3      H1            -12.0090166405       18.2518077139      -22.2810596465  W2        4378            0.0000000000
     13134      4378  TIP3      H2            -10.6798466405       17.5273677139      -22.3005396465  W2        4378            0.0000000000
     13135      4379  TIP3      OH2            -7.2729866405       18.8409577139      -19.0391496465  W2        4379            0.0000000000
     13136      4379  TIP3      H1             -7.0882366405       18.5075677139      -18.1611196465  W2        4379            0.0000000000
     13137      4379  TIP3      H2             -6.4265366405       19.1508177139      -19.3612296465  W2        4379            0.0000000000
     13138      4380  TIP3      OH2            -4.9279466405       20.1268477139      -19.7950096465  W2        4380            0.0000000000
     13139      4380  TIP3      H1             -4.2510566405       19.4940777139      -20.0350896465  W2        4380            0.0000000000
     13140      4380  TIP3      H2             -4.6060666405       20.5278977139      -18.9876796465  W2        4380            0.0000000000
     13141      4381  TIP3      OH2            -0.0105666405        2.7163977139      -20.7155096465  W2        4381            0.0000000000
     13142      4381  TIP3      H1             -0.8232166405        3.0414277139      -21.1030396465  W2        4381            0.0000000000
     13143      4381  TIP3      H2              0.2222833595        1.9562477139      -21.2485996465  W2        4381            0.0000000000
     13144      4382  TIP3      OH2           -14.1824566405       20.6983477139      -21.9509896465  W2        4382            0.0000000000
     13145      4382  TIP3      H1            -14.9028166405       21.1384477139      -22.4022196465  W2        4382            0.0000000000
     13146      4382  TIP3      H2            -14.5480566405       20.4478177139      -21.1025896465  W2        4382            0.0000000000
     13147      4383  TIP3      OH2           -11.7151966405       20.2987377139      -22.9212696465  W2        4383            0.0000000000
     13148      4383  TIP3      H1            -12.5799766405       20.3705877139      -22.5172596465  W2        4383            0.0000000000
     13149      4383  TIP3      H2            -11.7702966405       20.8454677139      -23.7050196465  W2        4383            0.0000000000
     13150      4384  TIP3      OH2            -7.0046366405       20.1866277139      -23.7456696465  W2        4384            0.0000000000
     13151      4384  TIP3      H1             -7.4612366405       20.7155977139      -24.3998296465  W2        4384            0.0000000000
     13152      4384  TIP3      H2             -6.8418366405       20.7897677139      -23.0204396465  W2        4384            0.0000000000
     13153      4385  TIP3      OH2            -4.6770066405       19.0645877139      -22.8006396465  W2        4385            0.0000000000
     13154      4385  TIP3      H1             -5.5816366405       19.2296077139      -23.0664296465  W2        4385            0.0000000000
     13155      4385  TIP3      H2             -4.2481466405       19.9178077139      -22.8662996465  W2        4385            0.0000000000
     13156      4386  TIP3      OH2            -2.0728166405       20.6344977139      -22.5058596465  W2        4386            0.0000000000
     13157      4386  TIP3      H1             -2.2546166405       21.5503877139      -22.7163696465  W2        4386            0.0000000000
     13158      4386  TIP3      H2             -1.8960366405       20.2242077139      -23.3523996465  W2        4386            0.0000000000
     13159      4387  TIP3      OH2           -14.7676466405       19.3215977139      -25.0408096465  W2        4387            0.0000000000
     13160      4387  TIP3      H1            -14.7860466405       18.8961077139      -24.1835796465  W2        4387            0.0000000000
     13161      4387  TIP3      H2            -13.9628566405       19.0030977139      -25.4495896465  W2        4387            0.0000000000
     13162      4388  TIP3      OH2           -12.6263366405       18.0314677139      -26.3858196465  W2        4388            0.0000000000
     13163      4388  TIP3      H1            -12.8452666405       17.1152077139      -26.2162196465  W2        4388            0.0000000000
     13164      4388  TIP3      H2            -11.8021166405       18.1715077139      -25.9196796465  W2        4388            0.0000000000
     13165      4389  TIP3      OH2           -10.0890866405       18.5013977139      -25.5370196465  W2        4389            0.0000000000
     13166      4389  TIP3      H1             -9.8765166405       17.6132977139      -25.8239296465  W2        4389            0.0000000000
     13167      4389  TIP3      H2            -10.0245766405       18.4671677139      -24.5826196465  W2        4389            0.0000000000
     13168      4390  TIP3      OH2            -6.5807166405        4.1654577139      -26.3926896465  W2        4390            0.0000000000
     13169      4390  TIP3      H1             -7.2550366405        3.5360177139      -26.1371096465  W2        4390            0.0000000000
     13170      4390  TIP3      H2             -6.0167966405        3.6813477139      -26.9958996465  W2        4390            0.0000000000
     13171      4391  TIP3      OH2            -1.4379966405        2.2728577139      -26.2799796465  W2        4391            0.0000000000
     13172      4391  TIP3      H1             -0.8342366405        2.8203977139      -26.7818796465  W2        4391            0.0000000000
     13173      4391  TIP3      H2             -2.3077966405        2.5918977139      -26.5205696465  W2        4391            0.0000000000
     13174      4392  TIP3      OH2             0.2890433595        3.4117277139      -27.9468896465  W2        4392            0.0000000000
     13175      4392  TIP3      H1              0.9007933595        2.8972977139      -28.4735296465  W2        4392            0.0000000000
     13176      4392  TIP3      H2              0.6713833595        4.2889377139      -27.9234496465  W2        4392            0.0000000000
     13177      4393  TIP3      OH2           -14.2539666405        2.7994877139      -28.5706996465  W2        4393            0.0000000000
     13178      4393  TIP3      H1            -15.0309866405        2.5649777139      -29.0781096465  W2        4393            0.0000000000
     13179      4393  TIP3      H2            -13.7236066405        2.0026977139      -28.5618996465  W2        4393            0.0000000000
     13180      4394  TIP3      OH2           -15.4176266405        2.5972977139      -32.7670896465  W2        4394            0.0000000000
     13181      4394  TIP3      H1            -14.9785566405        3.2083477139      -33.3587396465  W2        4394            0.0000000000
     13182      4394  TIP3      H2            -16.0513866405        3.1357077139      -32.2930896465  W2        4394            0.0000000000
     13183      4395  TIP3      OH2            -9.6747066405        2.7261977139      -28.7573896465  W2        4395            0.0000000000
     13184      4395  TIP3      H1             -8.8003666405        3.1146277139      -28.7869596465  W2        4395            0.0000000000
     13185      4395  TIP3      H2             -9.8106266405        2.5109777139      -27.8346696465  W2        4395            0.0000000000
     13186      4396  TIP3      OH2            -4.1178666405        2.7561777139      -27.1082196465  W2        4396            0.0000000000
     13187      4396  TIP3      H1             -4.0417066405        2.8513377139      -28.0576196465  W2        4396            0.0000000000
     13188      4396  TIP3      H2             -4.3929466405        1.8484677139      -26.9793096465  W2        4396            0.0000000000
     13189      4397  TIP3      OH2            -2.7646066405        2.7819577139      -31.4157196465  W2        4397            0.0000000000
     13190      4397  TIP3      H1             -3.4674966405        3.3968777139      -31.6255796465  W2        4397            0.0000000000
     13191      4397  TIP3      H2             -3.2094666405        1.9446277139      -31.2846296465  W2        4397            0.0000000000
     13192      4398  TIP3      OH2           -15.5166766405       18.5455177139      -31.8695796465  W2        4398            0.0000000000
     13193      4398  TIP3      H1            -16.2016866405       18.5074077139      -32.5370696465  W2        4398            0.0000000000
     13194      4398  TIP3      H2            -15.5129566405       19.4582777139      -31.5813696465  W2        4398            0.0000000000
     13195      4399  TIP3      OH2           -13.5567166405        4.5134477139      -34.3246796465  W2        4399            0.0000000000
     13196      4399  TIP3      H1            -13.0653766405        3.8836877139      -34.8521296465  W2        4399            0.0000000000
     13197      4399  TIP3      H2            -12.9330866405        4.8093877139      -33.6615596465  W2        4399            0.0000000000
     13198      4400  TIP3      OH2            -8.5307066405        4.8065977139      -31.8676296465  W2        4400            0.0000000000
     13199      4400  TIP3      H1             -8.3525766405        4.1599177139      -31.1847696465  W2        4400            0.0000000000
     13200      4400  TIP3      H2             -8.5840866405        5.6403677139      -31.4005196465  W2        4400            0.0000000000
     13201      4401  TIP3      OH2            -6.6523266405       19.7550077139      -33.4719596465  W2        4401            0.0000000000
     13202      4401  TIP3      H1             -5.7863066405       20.1217477139      -33.6501396465  W2        4401            0.0000000000
     13203      4401  TIP3      H2             -6.8990466405       19.3158077139      -34.2858796465  W2        4401            0.0000000000
     13204      4402  TIP3      OH2             0.0566333595       19.3180377139      -30.7928496465  W2        4402            0.0000000000
     13205      4402  TIP3      H1             -0.1376566405       18.5702477139      -31.3578896465  W2        4402            0.0000000000
     13206      4402  TIP3      H2              0.0176433595       20.0760477139      -31.3760596465  W2        4402            0.0000000000
     13207      4403  TIP3      OH2           -14.2961666405        3.3136777139      -19.0530796465  W2        4403            0.0000000000
     13208      4403  TIP3      H1            -14.6623466405        2.5479377139      -18.6106096465  W2        4403            0.0000000000
     13209      4403  TIP3      H2            -13.3833166405        3.3426977139      -18.7665696465  W2        4403            0.0000000000
     13210      4404  TIP3      OH2           -12.3230866405        2.6641177139      -17.5173696465  W2        4404            0.0000000000
     13211      4404  TIP3      H1            -11.4247266405        2.3901377139      -17.7020296465  W2        4404            0.0000000000
     13212      4404  TIP3      H2            -12.7097766405        1.9217177139      -17.0531096465  W2        4404            0.0000000000
     13213      4405  TIP3      OH2           -13.6985566405       19.4655977139      -34.8443696465  W2        4405            0.0000000000
     13214      4405  TIP3      H1            -13.9660966405       19.7518877139      -33.9710596465  W2        4405            0.0000000000
     13215      4405  TIP3      H2            -12.9272966405       18.9195177139      -34.6921196465  W2        4405            0.0000000000
     13216      4406  TIP3      OH2            -3.9018566405        1.9966477139      -17.3350896465  W2        4406            0.0000000000
     13217      4406  TIP3      H1             -3.8251366405        1.5707177139      -16.4813196465  W2        4406            0.0000000000
     13218      4406  TIP3      H2             -3.0081966405        2.0101177139      -17.6777396465  W2        4406            0.0000000000
     13219      4407  TIP3      OH2            -0.7257466405       18.0692777139      -18.6426696465  W2        4407            0.0000000000
     13220      4407  TIP3      H1             -1.5075566405       17.8830777139      -19.1626096465  W2        4407            0.0000000000
     13221      4407  TIP3      H2             -0.7977566405       18.9987077139      -18.4254196465  W2        4407            0.0000000000
     13222      4408  TIP3      OH2            13.6802933595       11.9557177139      -28.6119496465  W2        4408            0.0000000000
     13223      4408  TIP3      H1             13.7694033595       12.8995377139      -28.7442396465  W2        4408            0.0000000000
     13224      4408  TIP3      H2             13.0420533595       11.6803577139      -29.2700096465  W2        4408            0.0000000000
     13225      4409  TIP3      OH2            12.6134233595       11.2107877139      -25.1931296465  W2        4409            0.0000000000
     13226      4409  TIP3      H1             12.5751733595       10.5644177139      -24.4881696465  W2        4409            0.0000000000
     13227      4409  TIP3      H2             12.2910733595       10.7442277139      -25.9642596465  W2        4409            0.0000000000
     13228      4410  TIP3      OH2             4.9819233595       10.8249977139      -23.6001396465  W2        4410            0.0000000000
     13229      4410  TIP3      H1              5.0231333595       10.1993277139      -22.8768996465  W2        4410            0.0000000000
     13230      4410  TIP3      H2              5.6846933595       11.4488577139      -23.4180996465  W2        4410            0.0000000000
     13231      4411  TIP3      OH2            16.3194433595       14.1498277139      -26.8916196465  W2        4411            0.0000000000
     13232      4411  TIP3      H1             15.8787133595       13.4294277139      -26.4410596465  W2        4411            0.0000000000
     13233      4411  TIP3      H2             16.3064133595       14.8705477139      -26.2618496465  W2        4411            0.0000000000
     13234      4412  TIP3      OH2             5.9052333595       15.2748877139      -25.0652296465  W2        4412            0.0000000000
     13235      4412  TIP3      H1              5.5357533595       14.4729377139      -25.4347996465  W2        4412            0.0000000000
     13236      4412  TIP3      H2              6.8463433595       15.1063777139      -25.0188896465  W2        4412            0.0000000000
     13237      4413  TIP3      OH2             2.5152833595        8.9351477139      -29.6723496465  W2        4413            0.0000000000
     13238      4413  TIP3      H1              2.0676233595        9.7810177139      -29.6906996465  W2        4413            0.0000000000
     13239      4413  TIP3      H2              1.9544033595        8.3555677139      -30.1878396465  W2        4413            0.0000000000
     13240      4414  TIP3      OH2             3.2258933595       11.0971077139      -27.5465496465  W2        4414            0.0000000000
     13241      4414  TIP3      H1              3.4392433595       10.3272677139      -27.0192496465  W2        4414            0.0000000000
     13242      4414  TIP3      H2              3.9636533595       11.1867777139      -28.1497896465  W2        4414            0.0000000000
     13243      4415  TIP3      OH2            13.4309933595       19.2539977139      -26.6795796465  W2        4415            0.0000000000
     13244      4415  TIP3      H1             14.0506333595       18.5774677139      -26.9526596465  W2        4415            0.0000000000
     13245      4415  TIP3      H2             13.2227333595       19.0360777139      -25.7710896465  W2        4415            0.0000000000
     13246      4416  TIP3      OH2            11.0028633595       13.6429277139      -24.7870296465  W2        4416            0.0000000000
     13247      4416  TIP3      H1             11.3066533595       12.9570677139      -25.3816196465  W2        4416            0.0000000000
     13248      4416  TIP3      H2             11.7242633595       13.7617977139      -24.1692296465  W2        4416            0.0000000000
     13249      4417  TIP3      OH2            19.6658433595        5.2444577139      -23.9264096465  W2        4417            0.0000000000
     13250      4417  TIP3      H1             19.7150633595        5.8545777139      -23.1904996465  W2        4417            0.0000000000
     13251      4417  TIP3      H2             20.0913533595        5.7055477139      -24.6492996465  W2        4417            0.0000000000
     13252      4418  TIP3      OH2            14.1435633595        8.0371677139      -24.4595496465  W2        4418            0.0000000000
     13253      4418  TIP3      H1             14.2861533595        7.0908677139      -24.4393896465  W2        4418            0.0000000000
     13254      4418  TIP3      H2             14.0374633595        8.2441477139      -25.3880596465  W2        4418            0.0000000000
     13255      4419  TIP3      OH2             7.2983933595        6.1388077139      -27.1870696465  W2        4419            0.0000000000
     13256      4419  TIP3      H1              7.3415033595        6.9986577139      -27.6054396465  W2        4419            0.0000000000
     13257      4419  TIP3      H2              6.8408033595        5.5862777139      -27.8207496465  W2        4419            0.0000000000
     13258      4420  TIP3      OH2            15.0206633595        6.2693677139      -28.7862396465  W2        4420            0.0000000000
     13259      4420  TIP3      H1             15.6670933595        5.9406877139      -28.1614796465  W2        4420            0.0000000000
     13260      4420  TIP3      H2             15.5306033595        6.7872677139      -29.4090996465  W2        4420            0.0000000000
     13261      4421  TIP3      OH2             3.9185433595        8.5353877139      -26.4249296465  W2        4421            0.0000000000
     13262      4421  TIP3      H1              4.5722033595        7.9855577139      -25.9929196465  W2        4421            0.0000000000
     13263      4421  TIP3      H2              3.9424733595        8.2612877139      -27.3417296465  W2        4421            0.0000000000
     13264      4422  TIP3      OH2             9.0749933595       10.0855177139      -27.2097796465  W2        4422            0.0000000000
     13265      4422  TIP3      H1              9.6910933595        9.5590577139      -26.7003796465  W2        4422            0.0000000000
     13266      4422  TIP3      H2              8.4888733595        9.4453877139      -27.6134196465  W2        4422            0.0000000000
     13267      4423  TIP3      OH2            20.0573033595        6.7223777139      -21.6904296465  W2        4423            0.0000000000
     13268      4423  TIP3      H1             19.3687633595        7.3804477139      -21.7857696465  W2        4423            0.0000000000
     13269      4423  TIP3      H2             20.0727633595        6.5251677139      -20.7538896465  W2        4423            0.0000000000
     13270      4424  TIP3      OH2             6.1085833595        5.0566477139      -23.1129896465  W2        4424            0.0000000000
     13271      4424  TIP3      H1              5.8897533595        5.5867077139      -23.8793896465  W2        4424            0.0000000000
     13272      4424  TIP3      H2              5.4406733595        5.2831977139      -22.4658496465  W2        4424            0.0000000000
     13273      4425  TIP3      OH2            13.4775633595       14.5567577139      -29.5690796465  W2        4425            0.0000000000
     13274      4425  TIP3      H1             13.1820733595       14.2339877139      -30.4203896465  W2        4425            0.0000000000
     13275      4425  TIP3      H2             13.1533433595       15.4564277139      -29.5278196465  W2        4425            0.0000000000
     13276      4426  TIP3      OH2             8.6777233595       12.7322177139      -22.8256196465  W2        4426            0.0000000000
     13277      4426  TIP3      H1              7.9376333595       13.3303677139      -22.7220996465  W2        4426            0.0000000000
     13278      4426  TIP3      H2              9.3916733595       13.2861777139      -23.1412596465  W2        4426            0.0000000000
     13279      4427  TIP3      OH2            16.7845033595        5.5602977139      -26.8056496465  W2        4427            0.0000000000
     13280      4427  TIP3      H1             16.5693033595        4.7946377139      -26.2730496465  W2        4427            0.0000000000
     13281      4427  TIP3      H2             17.4402433595        6.0327577139      -26.2927996465  W2        4427            0.0000000000
     13282      4428  TIP3      OH2             5.7023133595        6.9488277139      -25.1607696465  W2        4428            0.0000000000
     13283      4428  TIP3      H1              6.3159433595        7.5815877139      -24.7875296465  W2        4428            0.0000000000
     13284      4428  TIP3      H2              6.2143833595        6.4763277139      -25.8170796465  W2        4428            0.0000000000
     13285      4429  TIP3      OH2             7.0851533595       14.6965177139      -22.0384696465  W2        4429            0.0000000000
     13286      4429  TIP3      H1              7.0799133595       15.5758677139      -22.4165396465  W2        4429            0.0000000000
     13287      4429  TIP3      H2              6.2315633595       14.6129277139      -21.6134796465  W2        4429            0.0000000000
     13288      4430  TIP3      OH2             3.2062433595       14.3673077139      -31.2565396465  W2        4430            0.0000000000
     13289      4430  TIP3      H1              2.9343333595       14.5964077139      -32.1452496465  W2        4430            0.0000000000
     13290      4430  TIP3      H2              3.2518133595       15.2051877139      -30.7960096465  W2        4430            0.0000000000
     13291      4431  TIP3      OH2            16.8312133595       15.9888977139      -24.5436896465  W2        4431            0.0000000000
     13292      4431  TIP3      H1             15.8895833595       16.0472877139      -24.3819996465  W2        4431            0.0000000000
     13293      4431  TIP3      H2             17.1078233595       16.8949477139      -24.6807196465  W2        4431            0.0000000000
     13294      4432  TIP3      OH2            17.1319133595        4.2754277139      -23.1262996465  W2        4432            0.0000000000
     13295      4432  TIP3      H1             16.3958333595        4.8861377139      -23.1641696465  W2        4432            0.0000000000
     13296      4432  TIP3      H2             17.8153133595        4.6903277139      -23.6526596465  W2        4432            0.0000000000
     13297      4433  TIP3      OH2            10.1350533595        2.3621577139      -25.6604996465  W2        4433            0.0000000000
     13298      4433  TIP3      H1             10.0174733595        1.4137577139      -25.7146696465  W2        4433            0.0000000000
     13299      4433  TIP3      H2              9.2800633595        2.6947677139      -25.3873896465  W2        4433            0.0000000000
     13300      4434  TIP3      OH2            15.0833333595       17.7702477139      -27.9185296465  W2        4434            0.0000000000
     13301      4434  TIP3      H1             15.5085633595       17.0630377139      -28.4035696465  W2        4434            0.0000000000
     13302      4434  TIP3      H2             15.4003333595       18.5715177139      -28.3353096465  W2        4434            0.0000000000
     13303      4435  TIP3      OH2            16.2429833595       15.6710977139      -29.4098696465  W2        4435            0.0000000000
     13304      4435  TIP3      H1             15.9854633595       14.9811077139      -30.0212796465  W2        4435            0.0000000000
     13305      4435  TIP3      H2             16.3140633595       15.2282177139      -28.5642796465  W2        4435            0.0000000000
     13306      4436  TIP3      OH2            17.9290033595       14.2377677139      -20.9325196465  W2        4436            0.0000000000
     13307      4436  TIP3      H1             18.0686333595       13.6460177139      -21.6718196465  W2        4436            0.0000000000
     13308      4436  TIP3      H2             18.0962833595       15.1103577139      -21.2886396465  W2        4436            0.0000000000
     13309      4437  TIP3      OH2            12.4015433595       11.1997177139      -31.1599196465  W2        4437            0.0000000000
     13310      4437  TIP3      H1             11.6900933595       11.7346877139      -31.5118696465  W2        4437            0.0000000000
     13311      4437  TIP3      H2             13.0925033595       11.2549277139      -31.8200296465  W2        4437            0.0000000000
     13312      4438  TIP3      OH2            12.4554633595        9.6571477139      -34.1214196465  W2        4438            0.0000000000
     13313      4438  TIP3      H1             13.1564533595        9.6798377139      -33.4700196465  W2        4438            0.0000000000
     13314      4438  TIP3      H2             12.7577533595        9.0291177139      -34.7774896465  W2        4438            0.0000000000
     13315      4439  TIP3      OH2            19.7709333595       10.5775677139      -22.8664796465  W2        4439            0.0000000000
     13316      4439  TIP3      H1             19.1183433595       11.2721277139      -22.7773896465  W2        4439            0.0000000000
     13317      4439  TIP3      H2             20.2359633595       10.7876577139      -23.6763196465  W2        4439            0.0000000000
     13318      4440  TIP3      OH2            15.8073133595       11.4090477139      -30.2083296465  W2        4440            0.0000000000
     13319      4440  TIP3      H1             15.0754133595       11.6374177139      -29.6352696465  W2        4440            0.0000000000
     13320      4440  TIP3      H2             16.2545333595       10.6953177139      -29.7535796465  W2        4440            0.0000000000
     13321      4441  TIP3      OH2            15.7046633595        9.5833077139      -21.1406296465  W2        4441            0.0000000000
     13322      4441  TIP3      H1             15.7845733595       10.3467477139      -20.5687796465  W2        4441            0.0000000000
     13323      4441  TIP3      H2             15.1034333595        9.8625477139      -21.8311196465  W2        4441            0.0000000000
     13324      4442  TIP3      OH2             7.4526833595       12.0396677139      -28.3258296465  W2        4442            0.0000000000
     13325      4442  TIP3      H1              7.1222033595       11.6690077139      -29.1441296465  W2        4442            0.0000000000
     13326      4442  TIP3      H2              8.0410933595       11.3690677139      -27.9789996465  W2        4442            0.0000000000
     13327      4443  TIP3      OH2             8.8194333595       15.4677277139      -25.6446096465  W2        4443            0.0000000000
     13328      4443  TIP3      H1              8.7245633595       14.8890377139      -26.4011496465  W2        4443            0.0000000000
     13329      4443  TIP3      H2              9.5487933595       15.0962977139      -25.1483296465  W2        4443            0.0000000000
     13330      4444  TIP3      OH2             7.8192333595       10.8082277139      -24.6923296465  W2        4444            0.0000000000
     13331      4444  TIP3      H1              8.3844833595       10.9296477139      -25.4552096465  W2        4444            0.0000000000
     13332      4444  TIP3      H2              8.1381233595       11.4457277139      -24.0534796465  W2        4444            0.0000000000
     13333      4445  TIP3      OH2            14.1284533595       16.3114177139      -23.9582796465  W2        4445            0.0000000000
     13334      4445  TIP3      H1             13.8881133595       16.9737277139      -23.3103596465  W2        4445            0.0000000000
     13335      4445  TIP3      H2             13.9302733595       15.4769377139      -23.5333196465  W2        4445            0.0000000000
     13336      4446  TIP3      OH2             8.6993033595       15.2074977139      -19.9751396465  W2        4446            0.0000000000
     13337      4446  TIP3      H1              8.3880533595       15.9898177139      -19.5198196465  W2        4446            0.0000000000
     13338      4446  TIP3      H2              8.0493233595       15.0544077139      -20.6609396465  W2        4446            0.0000000000
     13339      4447  TIP3      OH2            14.6782633595       10.5713377139      -32.5232096465  W2        4447            0.0000000000
     13340      4447  TIP3      H1             15.2578133595       10.7213677139      -31.7763196465  W2        4447            0.0000000000
     13341      4447  TIP3      H2             15.0922633595       11.0420777139      -33.2465696465  W2        4447            0.0000000000
     13342      4448  TIP3      OH2             5.6192933595       11.4056077139      -20.7465696465  W2        4448            0.0000000000
     13343      4448  TIP3      H1              5.6896133595       12.0562877139      -20.0480696465  W2        4448            0.0000000000
     13344      4448  TIP3      H2              4.7285133595       11.5083577139      -21.0814796465  W2        4448            0.0000000000
     13345      4449  TIP3      OH2            12.4047533595       17.3081877139      -29.0878996465  W2        4449            0.0000000000
     13346      4449  TIP3      H1             12.8785133595       17.6038177139      -28.3104796465  W2        4449            0.0000000000
     13347      4449  TIP3      H2             11.8416833595       18.0463477139      -29.3209396465  W2        4449            0.0000000000
     13348      4450  TIP3      OH2             6.9388933595       17.2789977139      -19.2117596465  W2        4450            0.0000000000
     13349      4450  TIP3      H1              6.9464233595       17.1429677139      -20.1592096465  W2        4450            0.0000000000
     13350      4450  TIP3      H2              6.0229333595       17.1618077139      -18.9597596465  W2        4450            0.0000000000
     13351      4451  TIP3      OH2            18.3771033595        2.3213777139      -32.7102396465  W2        4451            0.0000000000
     13352      4451  TIP3      H1             17.4771733595        2.4602777139      -32.4151796465  W2        4451            0.0000000000
     13353      4451  TIP3      H2             18.6289433595        3.1528377139      -33.1120696465  W2        4451            0.0000000000
     13354      4452  TIP3      OH2             6.4429533595       11.1090977139      -30.7365496465  W2        4452            0.0000000000
     13355      4452  TIP3      H1              6.1510833595       11.8772677139      -31.2274196465  W2        4452            0.0000000000
     13356      4452  TIP3      H2              5.7684733595       10.4497177139      -30.8994096465  W2        4452            0.0000000000
     13357      4453  TIP3      OH2            19.5662433595       16.6876177139      -34.3338496465  W2        4453            0.0000000000
     13358      4453  TIP3      H1             19.6395933595       17.6266377139      -34.1633196465  W2        4453            0.0000000000
     13359      4453  TIP3      H2             20.4717533595       16.3824777139      -34.3901196465  W2        4453            0.0000000000
     13360      4454  TIP3      OH2             2.5359633595       13.4720177139      -21.9215696465  W2        4454            0.0000000000
     13361      4454  TIP3      H1              2.0348033595       13.4439577139      -22.7365996465  W2        4454            0.0000000000
     13362      4454  TIP3      H2              2.5413333595       12.5663377139      -21.6118396465  W2        4454            0.0000000000
     13363      4455  TIP3      OH2             2.2862333595       16.2523977139      -25.0375496465  W2        4455            0.0000000000
     13364      4455  TIP3      H1              3.2322933595       16.1080977139      -25.0565996465  W2        4455            0.0000000000
     13365      4455  TIP3      H2              2.1738633595       17.0366777139      -24.5004296465  W2        4455            0.0000000000
     13366      4456  TIP3      OH2            20.4840833595       16.9183677139      -19.3551796465  W2        4456            0.0000000000
     13367      4456  TIP3      H1             20.4347633595       15.9631777139      -19.3924196465  W2        4456            0.0000000000
     13368      4456  TIP3      H2             19.6573133595       17.1858977139      -18.9537996465  W2        4456            0.0000000000
     13369      4457  TIP3      OH2            11.4624833595       16.4922877139      -20.4790396465  W2        4457            0.0000000000
     13370      4457  TIP3      H1             11.5499433595       17.3187477139      -20.0041296465  W2        4457            0.0000000000
     13371      4457  TIP3      H2             10.5989933595       16.1626677139      -20.2301096465  W2        4457            0.0000000000
     13372      4458  TIP3      OH2            11.8770633595       20.2646577139      -30.6729796465  W2        4458            0.0000000000
     13373      4458  TIP3      H1             11.8016633595       20.1433777139      -31.6194596465  W2        4458            0.0000000000
     13374      4458  TIP3      H2             11.9099333595       21.2139277139      -30.5545196465  W2        4458            0.0000000000
     13375      4459  TIP3      OH2             5.5304433595       19.0533577139      -28.8920796465  W2        4459            0.0000000000
     13376      4459  TIP3      H1              5.6824833595       18.7053977139      -28.0134296465  W2        4459            0.0000000000
     13377      4459  TIP3      H2              4.6794833595       18.6970877139      -29.1473596465  W2        4459            0.0000000000
     13378      4460  TIP3      OH2            14.9786633595       19.4186777139      -33.6707396465  W2        4460            0.0000000000
     13379      4460  TIP3      H1             15.3535033595       18.6742877139      -34.1414796465  W2        4460            0.0000000000
     13380      4460  TIP3      H2             14.9830333595       19.1487377139      -32.7524096465  W2        4460            0.0000000000
     13381      4461  TIP3      OH2            14.6474733595       19.3443877139      -30.9215196465  W2        4461            0.0000000000
     13382      4461  TIP3      H1             13.7124533595       19.4445777139      -30.7428196465  W2        4461            0.0000000000
     13383      4461  TIP3      H2             14.9276633595       18.6349877139      -30.3431996465  W2        4461            0.0000000000
     13384      4462  TIP3      OH2            17.6360633595        8.4116177139      -18.8749596465  W2        4462            0.0000000000
     13385      4462  TIP3      H1             17.2287433595        8.8921777139      -19.5956296465  W2        4462            0.0000000000
     13386      4462  TIP3      H2             17.6766333595        7.5062177139      -19.1828796465  W2        4462            0.0000000000
     13387      4463  TIP3      OH2             4.7850133595       14.7955577139      -20.8782896465  W2        4463            0.0000000000
     13388      4463  TIP3      H1              5.0011433595       14.4341177139      -20.0187096465  W2        4463            0.0000000000
     13389      4463  TIP3      H2              3.9294833595       14.4209377139      -21.0879396465  W2        4463            0.0000000000
     13390      4464  TIP3      OH2             7.4038133595        3.2656077139      -24.8828696465  W2        4464            0.0000000000
     13391      4464  TIP3      H1              6.5421833595        3.1784277139      -25.2905796465  W2        4464            0.0000000000
     13392      4464  TIP3      H2              7.3813833595        4.1216177139      -24.4551096465  W2        4464            0.0000000000
     13393      4465  TIP3      OH2            12.0665933595        2.9876477139      -21.5081696465  W2        4465            0.0000000000
     13394      4465  TIP3      H1             12.4869033595        2.5723577139      -20.7551096465  W2        4465            0.0000000000
     13395      4465  TIP3      H2             11.1335533595        2.8089777139      -21.3909696465  W2        4465            0.0000000000
     13396      4466  TIP3      OH2            15.3930833595        6.7431677139      -20.6547196465  W2        4466            0.0000000000
     13397      4466  TIP3      H1             14.8790333595        6.6173877139      -19.8571196465  W2        4466            0.0000000000
     13398      4466  TIP3      H2             15.2375533595        7.6554777139      -20.8990996465  W2        4466            0.0000000000
     13399      4467  TIP3      OH2            16.1555733595       11.6041677139      -34.8934196465  W2        4467            0.0000000000
     13400      4467  TIP3      H1             16.1976533595       11.3815577139      -35.8234196465  W2        4467            0.0000000000
     13401      4467  TIP3      H2             17.0047833595       12.0028777139      -34.7034296465  W2        4467            0.0000000000
     13402      4468  TIP3      OH2            11.7283233595        5.4799877139      -34.2230896465  W2        4468            0.0000000000
     13403      4468  TIP3      H1             11.4748033595        5.4991477139      -33.3002796465  W2        4468            0.0000000000
     13404      4468  TIP3      H2             11.4715333595        4.6085277139      -34.5244696465  W2        4468            0.0000000000
     13405      4469  TIP3      OH2             7.4948233595        8.2310577139      -23.7878496465  W2        4469            0.0000000000
     13406      4469  TIP3      H1              6.8530333595        8.1907877139      -23.0788396465  W2        4469            0.0000000000
     13407      4469  TIP3      H2              7.5320233595        9.1575277139      -24.0255496465  W2        4469            0.0000000000
     13408      4470  TIP3      OH2             7.4917333595        8.4520677139      -28.8758496465  W2        4470            0.0000000000
     13409      4470  TIP3      H1              6.5990233595        8.1116777139      -28.9344696465  W2        4470            0.0000000000
     13410      4470  TIP3      H2              7.9423933595        8.0751577139      -29.6315296465  W2        4470            0.0000000000
     13411      4471  TIP3      OH2            13.0272833595        8.8680977139      -30.0587696465  W2        4471            0.0000000000
     13412      4471  TIP3      H1             12.6183133595        9.6829577139      -30.3502896465  W2        4471            0.0000000000
     13413      4471  TIP3      H2             13.7479033595        8.7281077139      -30.6730596465  W2        4471            0.0000000000
     13414      4472  TIP3      OH2            12.1294433595        9.0437377139      -18.5706996465  W2        4472            0.0000000000
     13415      4472  TIP3      H1             11.5668233595        8.3388977139      -18.2499196465  W2        4472            0.0000000000
     13416      4472  TIP3      H2             12.9557833595        8.9229277139      -18.1029396465  W2        4472            0.0000000000
     13417      4473  TIP3      OH2            14.0320533595        8.3141377139      -27.2447996465  W2        4473            0.0000000000
     13418      4473  TIP3      H1             13.8365033595        8.9198177139      -27.9597396465  W2        4473            0.0000000000
     13419      4473  TIP3      H2             14.2133133595        7.4806577139      -27.6791696465  W2        4473            0.0000000000
     13420      4474  TIP3      OH2             5.2448733595        8.5514077139      -21.9206496465  W2        4474            0.0000000000
     13421      4474  TIP3      H1              5.2068133595        8.9515677139      -21.0519396465  W2        4474            0.0000000000
     13422      4474  TIP3      H2              4.7539833595        7.7346477139      -21.8303596465  W2        4474            0.0000000000
     13423      4475  TIP3      OH2             8.6106133595        5.9256377139      -35.1220496465  W2        4475            0.0000000000
     13424      4475  TIP3      H1              8.1796833595        5.4806477139      -34.3923096465  W2        4475            0.0000000000
     13425      4475  TIP3      H2              7.8924833595        6.2972677139      -35.6342996465  W2        4475            0.0000000000
     13426      4476  TIP3      OH2             1.8529533595        5.6675877139      -28.0701796465  W2        4476            0.0000000000
     13427      4476  TIP3      H1              2.4837233595        5.6387977139      -27.3507896465  W2        4476            0.0000000000
     13428      4476  TIP3      H2              2.3023833595        5.2424577139      -28.8005896465  W2        4476            0.0000000000
     13429      4477  TIP3      OH2             3.1271633595        6.4137877139      -32.6461396465  W2        4477            0.0000000000
     13430      4477  TIP3      H1              3.6013333595        7.0047777139      -33.2310496465  W2        4477            0.0000000000
     13431      4477  TIP3      H2              2.4098033595        6.9440777139      -32.2991296465  W2        4477            0.0000000000
     13432      4478  TIP3      OH2            13.2959733595        9.9522677139      -22.5735596465  W2        4478            0.0000000000
     13433      4478  TIP3      H1             13.6194533595        9.3212377139      -23.2165096465  W2        4478            0.0000000000
     13434      4478  TIP3      H2             12.8559033595        9.4174877139      -21.9128196465  W2        4478            0.0000000000
     13435      4479  TIP3      OH2            10.0732633595        5.8798177139      -27.7894396465  W2        4479            0.0000000000
     13436      4479  TIP3      H1              9.1623733595        5.9364977139      -27.5008396465  W2        4479            0.0000000000
     13437      4479  TIP3      H2             10.5785533595        5.8193677139      -26.9787196465  W2        4479            0.0000000000
     13438      4480  TIP3      OH2             4.9016033595        7.5084477139      -28.9626796465  W2        4480            0.0000000000
     13439      4480  TIP3      H1              4.0124033595        7.6079977139      -29.3027196465  W2        4480            0.0000000000
     13440      4480  TIP3      H2              5.1980933595        6.6667477139      -29.3088896465  W2        4480            0.0000000000
     13441      4481  TIP3      OH2             8.5547833595        7.5087077139      -31.3062196465  W2        4481            0.0000000000
     13442      4481  TIP3      H1              9.4863333595        7.6377077139      -31.1279096465  W2        4481            0.0000000000
     13443      4481  TIP3      H2              8.3398133595        8.1781377139      -31.9557496465  W2        4481            0.0000000000
     13444      4482  TIP3      OH2            14.4784533595        5.1144477139      -24.5252596465  W2        4482            0.0000000000
     13445      4482  TIP3      H1             13.8016133595        5.2457577139      -23.8612896465  W2        4482            0.0000000000
     13446      4482  TIP3      H2             13.9929433595        4.9593977139      -25.3354896465  W2        4482            0.0000000000
     13447      4483  TIP3      OH2             7.2288033595        8.7029277139      -33.7396096465  W2        4483            0.0000000000
     13448      4483  TIP3      H1              6.6863133595        8.3233077139      -34.4308496465  W2        4483            0.0000000000
     13449      4483  TIP3      H2              8.0622933595        8.8973977139      -34.1681996465  W2        4483            0.0000000000
     13450      4484  TIP3      OH2            17.7659633595       20.7859877139      -18.2484996465  W2        4484            0.0000000000
     13451      4484  TIP3      H1             17.9658333595       21.2101777139      -19.0829696465  W2        4484            0.0000000000
     13452      4484  TIP3      H2             18.4213333595       21.1298077139      -17.6414596465  W2        4484            0.0000000000
     13453      4485  TIP3      OH2             5.3639433595       13.2601177139      -18.6404496465  W2        4485            0.0000000000
     13454      4485  TIP3      H1              6.0961833595       13.5147077139      -18.0789996465  W2        4485            0.0000000000
     13455      4485  TIP3      H2              4.5838133595       13.4646577139      -18.1249096465  W2        4485            0.0000000000
     13456      4486  TIP3      OH2            11.3932333595        8.6671177139      -25.9024796465  W2        4486            0.0000000000
     13457      4486  TIP3      H1             11.9575733595        8.1207777139      -26.4495196465  W2        4486            0.0000000000
     13458      4486  TIP3      H2             11.2455733595        8.1453077139      -25.1137196465  W2        4486            0.0000000000
     13459      4487  TIP3      OH2             6.3952033595        4.8037277139      -29.4839996465  W2        4487            0.0000000000
     13460      4487  TIP3      H1              6.0781533595        3.9012577139      -29.5194596465  W2        4487            0.0000000000
     13461      4487  TIP3      H2              7.1766133595        4.8054677139      -30.0368396465  W2        4487            0.0000000000
     13462      4488  TIP3      OH2            10.0198233595        7.0557277139      -23.4884396465  W2        4488            0.0000000000
     13463      4488  TIP3      H1              9.1843533595        7.5096777139      -23.3781996465  W2        4488            0.0000000000
     13464      4488  TIP3      H2             10.5438833595        7.3315777139      -22.7364496465  W2        4488            0.0000000000
     13465      4489  TIP3      OH2            10.5640833595       13.2684977139      -31.8037996465  W2        4489            0.0000000000
     13466      4489  TIP3      H1              9.8191833595       12.7610277139      -32.1260096465  W2        4489            0.0000000000
     13467      4489  TIP3      H2             10.4298033595       13.3172977139      -30.8573196465  W2        4489            0.0000000000
     13468      4490  TIP3      OH2            17.7139733595       12.4013177139      -23.0170396465  W2        4490            0.0000000000
     13469      4490  TIP3      H1             18.3558533595       12.8579477139      -23.5608196465  W2        4490            0.0000000000
     13470      4490  TIP3      H2             16.8836633595       12.5145577139      -23.4796296465  W2        4490            0.0000000000
     13471      4491  TIP3      OH2            14.4617633595        6.0824877139      -33.6045396465  W2        4491            0.0000000000
     13472      4491  TIP3      H1             13.5231833595        6.1940477139      -33.7556596465  W2        4491            0.0000000000
     13473      4491  TIP3      H2             14.7589733595        6.9391777139      -33.2979696465  W2        4491            0.0000000000
     13474      4492  TIP3      OH2            12.0832933595       13.4528277139      -20.5668896465  W2        4492            0.0000000000
     13475      4492  TIP3      H1             11.7379033595       13.0710677139      -19.7599296465  W2        4492            0.0000000000
     13476      4492  TIP3      H2             11.8833033595       14.3861877139      -20.4955996465  W2        4492            0.0000000000
     13477      4493  TIP3      OH2            15.1801133595        7.9497577139      -31.9437996465  W2        4493            0.0000000000
     13478      4493  TIP3      H1             16.0720133595        7.8122577139      -31.6246796465  W2        4493            0.0000000000
     13479      4493  TIP3      H2             15.2364733595        8.7403677139      -32.4804496465  W2        4493            0.0000000000
     13480      4494  TIP3      OH2             5.6889133595       12.5634977139      -26.0340096465  W2        4494            0.0000000000
     13481      4494  TIP3      H1              6.4336333595       12.5610677139      -26.6353596465  W2        4494            0.0000000000
     13482      4494  TIP3      H2              5.7665733595       11.7398777139      -25.5524996465  W2        4494            0.0000000000
     13483      4495  TIP3      OH2            12.6894933595       14.7269277139      -32.7783396465  W2        4495            0.0000000000
     13484      4495  TIP3      H1             12.3943333595       15.5537177139      -32.3968596465  W2        4495            0.0000000000
     13485      4495  TIP3      H2             11.9864933595       14.1076177139      -32.5821996465  W2        4495            0.0000000000
     13486      4496  TIP3      OH2             2.6968833595       11.0241877139      -20.7191596465  W2        4496            0.0000000000
     13487      4496  TIP3      H1              2.9197433595       10.6061477139      -19.8874096465  W2        4496            0.0000000000
     13488      4496  TIP3      H2              2.0948933595       10.4116877139      -21.1418796465  W2        4496            0.0000000000
     13489      4497  TIP3      OH2             9.7133733595       10.5411777139      -18.5061896465  W2        4497            0.0000000000
     13490      4497  TIP3      H1              9.4174533595       10.3754777139      -19.4012796465  W2        4497            0.0000000000
     13491      4497  TIP3      H2             10.6448933595       10.3212077139      -18.5167996465  W2        4497            0.0000000000
     13492      4498  TIP3      OH2            14.3336533595       15.9143777139      -20.6163896465  W2        4498            0.0000000000
     13493      4498  TIP3      H1             13.4330833595       16.0976377139      -20.8839996465  W2        4498            0.0000000000
     13494      4498  TIP3      H2             14.3677633595       16.1733077139      -19.6955096465  W2        4498            0.0000000000
     13495      4499  TIP3      OH2            20.0649833595        8.1591677139      -32.2491296465  W2        4499            0.0000000000
     13496      4499  TIP3      H1             19.5106133595        7.7629677139      -32.9213796465  W2        4499            0.0000000000
     13497      4499  TIP3      H2             20.1653433595        9.0696877139      -32.5267996465  W2        4499            0.0000000000
     13498      4500  TIP3      OH2            20.0281833595       13.9593377139      -19.4119796465  W2        4500            0.0000000000
     13499      4500  TIP3      H1             19.1770333595       14.1977177139      -19.7793396465  W2        4500            0.0000000000
     13500      4500  TIP3      H2             20.6185233595       13.9426577139      -20.1652696465  W2        4500            0.0000000000
     13501      4501  TIP3      OH2            18.3601533595       16.9452077139      -31.7839196465  W2        4501            0.0000000000
     13502      4501  TIP3      H1             17.9872633595       16.1195877139      -31.4748596465  W2        4501            0.0000000000
     13503      4501  TIP3      H2             18.6375033595       16.7621477139      -32.6815796465  W2        4501            0.0000000000
     13504      4502  TIP3      OH2            15.5205433595       11.7531577139      -24.7627296465  W2        4502            0.0000000000
     13505      4502  TIP3      H1             14.5922333595       11.5213477139      -24.7897996465  W2        4502            0.0000000000
     13506      4502  TIP3      H2             15.9716533595       10.9761377139      -25.0928496465  W2        4502            0.0000000000
     13507      4503  TIP3      OH2             8.0638533595       16.0813177139      -28.6298596465  W2        4503            0.0000000000
     13508      4503  TIP3      H1              8.5910733595       16.8547577139      -28.8299796465  W2        4503            0.0000000000
     13509      4503  TIP3      H2              7.1837033595       16.3062377139      -28.9314596465  W2        4503            0.0000000000
     13510      4504  TIP3      OH2             3.8186233595       10.9437277139      -34.0426196465  W2        4504            0.0000000000
     13511      4504  TIP3      H1              4.4346133595       11.5704477139      -33.6631396465  W2        4504            0.0000000000
     13512      4504  TIP3      H2              2.9568833595       11.2597077139      -33.7709696465  W2        4504            0.0000000000
     13513      4505  TIP3      OH2             9.4910833595       13.7443077139      -29.0534296465  W2        4505            0.0000000000
     13514      4505  TIP3      H1              9.2500833595       14.6697477139      -29.0118996465  W2        4505            0.0000000000
     13515      4505  TIP3      H2              8.7504433595       13.2854377139      -28.6570396465  W2        4505            0.0000000000
     13516      4506  TIP3      OH2            10.0057433595       17.8936677139      -22.7383196465  W2        4506            0.0000000000
     13517      4506  TIP3      H1             10.3682133595       18.7482277139      -22.9718796465  W2        4506            0.0000000000
     13518      4506  TIP3      H2             10.5372633595       17.6018277139      -21.9976896465  W2        4506            0.0000000000
     13519      4507  TIP3      OH2             8.1741633595       18.7660677139      -29.5082096465  W2        4507            0.0000000000
     13520      4507  TIP3      H1              7.2242133595       18.8718077139      -29.4568796465  W2        4507            0.0000000000
     13521      4507  TIP3      H2              8.5259733595       19.5868077139      -29.1634596465  W2        4507            0.0000000000
     13522      4508  TIP3      OH2            13.5498233595       13.9927377139      -23.0377596465  W2        4508            0.0000000000
     13523      4508  TIP3      H1             13.1239533595       13.7649077139      -22.2113596465  W2        4508            0.0000000000
     13524      4508  TIP3      H2             14.1304033595       13.2539177139      -23.2202296465  W2        4508            0.0000000000
     13525      4509  TIP3      OH2            15.7527133595       14.9217877139      -33.9638596465  W2        4509            0.0000000000
     13526      4509  TIP3      H1             16.1060233595       14.5417677139      -33.1595096465  W2        4509            0.0000000000
     13527      4509  TIP3      H2             14.8040633595       14.8282677139      -33.8769296465  W2        4509            0.0000000000
     13528      4510  TIP3      OH2            16.2082433595       18.5446877139      -20.5682796465  W2        4510            0.0000000000
     13529      4510  TIP3      H1             15.6065633595       17.9889777139      -21.0636496465  W2        4510            0.0000000000
     13530      4510  TIP3      H2             16.4896133595       19.2116677139      -21.1945396465  W2        4510            0.0000000000
     13531      4511  TIP3      OH2            20.2561533595       19.4010377139      -33.7628396465  W2        4511            0.0000000000
     13532      4511  TIP3      H1             20.9999433595       19.9870877139      -33.9026796465  W2        4511            0.0000000000
     13533      4511  TIP3      H2             19.5619633595       19.9696177139      -33.4295996465  W2        4511            0.0000000000
     13534      4512  TIP3      OH2             4.3308333595        5.7774577139      -21.1610196465  W2        4512            0.0000000000
     13535      4512  TIP3      H1              3.4380633595        6.1159977139      -21.2286196465  W2        4512            0.0000000000
     13536      4512  TIP3      H2              4.2321133595        4.9220677139      -20.7429396465  W2        4512            0.0000000000
     13537      4513  TIP3      OH2            16.6186433595       13.5939877139      -31.7370696465  W2        4513            0.0000000000
     13538      4513  TIP3      H1             16.3414033595       12.8659177139      -31.1809596465  W2        4513            0.0000000000
     13539      4513  TIP3      H2             17.5459433595       13.7131877139      -31.5318096465  W2        4513            0.0000000000
     13540      4514  TIP3      OH2             3.9820333595       17.5818977139      -22.7260796465  W2        4514            0.0000000000
     13541      4514  TIP3      H1              4.1990633595       16.6501377139      -22.7571096465  W2        4514            0.0000000000
     13542      4514  TIP3      H2              4.2283833595       17.8563977139      -21.8427996465  W2        4514            0.0000000000
     13543      4515  TIP3      OH2             9.8434933595       16.0333977139      -35.5168596465  W2        4515            0.0000000000
     13544      4515  TIP3      H1             10.0824733595       15.2852077139      -36.0639696465  W2        4515            0.0000000000
     13545      4515  TIP3      H2              9.5746233595       15.6455677139      -34.6840796465  W2        4515            0.0000000000
     13546      4516  TIP3      OH2             8.7805533595       15.6037777139      -33.0605996465  W2        4516            0.0000000000
     13547      4516  TIP3      H1              8.9273533595       15.0837577139      -32.2705096465  W2        4516            0.0000000000
     13548      4516  TIP3      H2              8.7777233595       16.5105377139      -32.7540096465  W2        4516            0.0000000000
     13549      4517  TIP3      OH2             5.2336633595       12.8561077139      -32.5500596465  W2        4517            0.0000000000
     13550      4517  TIP3      H1              4.5475933595       13.2083577139      -31.9830896465  W2        4517            0.0000000000
     13551      4517  TIP3      H2              5.7564533595       13.6190677139      -32.7966296465  W2        4517            0.0000000000
     13552      4518  TIP3      OH2            13.0651733595        5.5184877139      -22.2711596465  W2        4518            0.0000000000
     13553      4518  TIP3      H1             13.7639633595        5.5923577139      -21.6211896465  W2        4518            0.0000000000
     13554      4518  TIP3      H2             12.6843133595        4.6539877139      -22.1168696465  W2        4518            0.0000000000
     13555      4519  TIP3      OH2            13.8496633595        5.1706577139      -31.1739296465  W2        4519            0.0000000000
     13556      4519  TIP3      H1             14.0694933595        5.6421977139      -31.9773896465  W2        4519            0.0000000000
     13557      4519  TIP3      H2             14.4080633595        5.5649177139      -30.5038696465  W2        4519            0.0000000000
     13558      4520  TIP3      OH2            11.5182733595       17.3011377139      -32.3111796465  W2        4520            0.0000000000
     13559      4520  TIP3      H1             10.7018833595       17.7981077139      -32.2587496465  W2        4520            0.0000000000
     13560      4520  TIP3      H2             12.0479033595       17.7764877139      -32.9512996465  W2        4520            0.0000000000
     13561      4521  TIP3      OH2            11.0496533595        6.8985377139      -30.3390896465  W2        4521            0.0000000000
     13562      4521  TIP3      H1             11.8619133595        7.4028577139      -30.2929196465  W2        4521            0.0000000000
     13563      4521  TIP3      H2             10.8049533595        6.7535077139      -29.4251296465  W2        4521            0.0000000000
     13564      4522  TIP3      OH2            11.5852933595        7.8848077139      -21.1544296465  W2        4522            0.0000000000
     13565      4522  TIP3      H1             11.7043233595        8.4583477139      -20.3973896465  W2        4522            0.0000000000
     13566      4522  TIP3      H2             12.2407533595        7.1967477139      -21.0396496465  W2        4522            0.0000000000
     13567      4523  TIP3      OH2            11.9333233595        3.9798377139      -29.4009796465  W2        4523            0.0000000000
     13568      4523  TIP3      H1             11.5866733595        4.5968977139      -28.7565496465  W2        4523            0.0000000000
     13569      4523  TIP3      H2             12.5920133595        4.4804077139      -29.8824296465  W2        4523            0.0000000000
     13570      4524  TIP3      OH2             8.8565833595       18.3448577139      -32.3294896465  W2        4524            0.0000000000
     13571      4524  TIP3      H1              9.0174533595       19.1446077139      -32.8302296465  W2        4524            0.0000000000
     13572      4524  TIP3      H2              8.6593633595       18.6514577139      -31.4444296465  W2        4524            0.0000000000
     13573      4525  TIP3      OH2             7.5910233595        5.0427777139      -32.7137296465  W2        4525            0.0000000000
     13574      4525  TIP3      H1              7.5075033595        5.9310877139      -32.3670896465  W2        4525            0.0000000000
     13575      4525  TIP3      H2              8.4810533595        4.7774477139      -32.4820496465  W2        4525            0.0000000000
     13576      4526  TIP3      OH2            17.7898733595        5.7918377139      -20.3194596465  W2        4526            0.0000000000
     13577      4526  TIP3      H1             16.8734533595        6.0540077139      -20.4070896465  W2        4526            0.0000000000
     13578      4526  TIP3      H2             18.1253733595        5.7887377139      -21.2159296465  W2        4526            0.0000000000
     13579      4527  TIP3      OH2            16.3919733595        9.5419377139      -26.2237296465  W2        4527            0.0000000000
     13580      4527  TIP3      H1             15.5944133595        9.1269577139      -26.5522296465  W2        4527            0.0000000000
     13581      4527  TIP3      H2             16.8370833595        8.8513077139      -25.7326796465  W2        4527            0.0000000000
     13582      4528  TIP3      OH2             5.8495533595       15.4699977139      -33.6532796465  W2        4528            0.0000000000
     13583      4528  TIP3      H1              6.4417033595       16.1694777139      -33.3770396465  W2        4528            0.0000000000
     13584      4528  TIP3      H2              6.3088533595       15.0369477139      -34.3728196465  W2        4528            0.0000000000
     13585      4529  TIP3      OH2             4.1654733595        8.1342977139      -34.5373396465  W2        4529            0.0000000000
     13586      4529  TIP3      H1              4.1207333595        9.0736077139      -34.3586396465  W2        4529            0.0000000000
     13587      4529  TIP3      H2              3.2777933595        7.8987877139      -34.8071296465  W2        4529            0.0000000000
     13588      4530  TIP3      OH2            17.4784333595       18.7981877139      -24.6013796465  W2        4530            0.0000000000
     13589      4530  TIP3      H1             17.3228633595       19.4766277139      -25.2584496465  W2        4530            0.0000000000
     13590      4530  TIP3      H2             18.4110733595       18.8701177139      -24.3983196465  W2        4530            0.0000000000
     13591      4531  TIP3      OH2             4.9736733595        2.9159577139      -25.8642396465  W2        4531            0.0000000000
     13592      4531  TIP3      H1              4.7446533595        2.9752077139      -26.7917396465  W2        4531            0.0000000000
     13593      4531  TIP3      H2              4.5310133595        2.1245077139      -25.5578296465  W2        4531            0.0000000000
     13594      4532  TIP3      OH2             3.9040033595       16.8566677139      -29.7036596465  W2        4532            0.0000000000
     13595      4532  TIP3      H1              3.0718633595       17.3289377139      -29.6765196465  W2        4532            0.0000000000
     13596      4532  TIP3      H2              4.4498333595       17.3664277139      -30.3023496465  W2        4532            0.0000000000
     13597      4533  TIP3      OH2             3.1923733595       19.4690377139      -18.3738596465  W2        4533            0.0000000000
     13598      4533  TIP3      H1              3.7325933595       19.2524377139      -17.6139396465  W2        4533            0.0000000000
     13599      4533  TIP3      H2              2.7111733595       18.6636377139      -18.5636096465  W2        4533            0.0000000000
     13600      4534  TIP3      OH2             7.7897133595       18.3884777139      -16.7534396465  W2        4534            0.0000000000
     13601      4534  TIP3      H1              8.5574333595       17.9295577139      -16.4125196465  W2        4534            0.0000000000
     13602      4534  TIP3      H2              7.7683333595       18.1624577139      -17.6833196465  W2        4534            0.0000000000
     13603      4535  TIP3      OH2            11.8816733595       17.8965377139      -35.3782596465  W2        4535            0.0000000000
     13604      4535  TIP3      H1             11.2377733595       17.2653977139      -35.0568896465  W2        4535            0.0000000000
     13605      4535  TIP3      H2             12.6435033595       17.3653377139      -35.6099096465  W2        4535            0.0000000000
     13606      4536  TIP3      OH2            14.3665833595       16.7685877139      -18.0242896465  W2        4536            0.0000000000
     13607      4536  TIP3      H1             14.0155333595       15.9118877139      -17.7812496465  W2        4536            0.0000000000
     13608      4536  TIP3      H2             15.0929033595       16.9112577139      -17.4173896465  W2        4536            0.0000000000
     13609      4537  TIP3      OH2            16.4859633595       17.7135277139      -35.1444596465  W2        4537            0.0000000000
     13610      4537  TIP3      H1             16.7690033595       16.9190477139      -34.6917696465  W2        4537            0.0000000000
     13611      4537  TIP3      H2             17.2257533595       17.9466277139      -35.7053496465  W2        4537            0.0000000000
     13612      4538  TIP3      OH2             3.0993233595       13.2794477139      -17.4194296465  W2        4538            0.0000000000
     13613      4538  TIP3      H1              3.2433733595       12.3775177139      -17.7057596465  W2        4538            0.0000000000
     13614      4538  TIP3      H2              2.3270633595       13.5656577139      -17.9071996465  W2        4538            0.0000000000
     13615      4539  TIP3      OH2             7.4406933595       13.6230177139      -35.2869696465  W2        4539            0.0000000000
     13616      4539  TIP3      H1              7.5051033595       12.8289777139      -34.7563296465  W2        4539            0.0000000000
     13617      4539  TIP3      H2              8.0936133595       13.5042977139      -35.9767696465  W2        4539            0.0000000000
     13618      4540  TIP3      OH2             9.7549333595       13.2492577139      -17.9867896465  W2        4540            0.0000000000
     13619      4540  TIP3      H1              9.4263133595       13.5200677139      -18.8440496465  W2        4540            0.0000000000
     13620      4540  TIP3      H2              9.9067533595       12.3082377139      -18.0742896465  W2        4540            0.0000000000
     13621      4541  TIP3      OH2            12.7930333595       14.6701877139      -35.5511696465  W2        4541            0.0000000000
     13622      4541  TIP3      H1             12.5244433595       14.8503977139      -34.6502796465  W2        4541            0.0000000000
     13623      4541  TIP3      H2             12.5865933595       13.7448077139      -35.6825896465  W2        4541            0.0000000000
     13624      4542  TIP3      OH2            15.4894533595       13.1649877139      -20.6035596465  W2        4542            0.0000000000
     13625      4542  TIP3      H1             16.2349333595       13.7533577139      -20.7231596465  W2        4542            0.0000000000
     13626      4542  TIP3      H2             14.7321333595       13.7469577139      -20.5402496465  W2        4542            0.0000000000
     13627      4543  TIP3      OH2             3.9319733595       10.4797777139      -17.9994996465  W2        4543            0.0000000000
     13628      4543  TIP3      H1              4.3400933595        9.6224377139      -18.1204396465  W2        4543            0.0000000000
     13629      4543  TIP3      H2              3.6717333595       10.4939077139      -17.0784696465  W2        4543            0.0000000000
     13630      4544  TIP3      OH2             8.5900733595       11.5956377139      -32.9811696465  W2        4544            0.0000000000
     13631      4544  TIP3      H1              8.1302733595       11.1114677139      -32.2953196465  W2        4544            0.0000000000
     13632      4544  TIP3      H2              8.8449433595       10.9271777139      -33.6171196465  W2        4544            0.0000000000
     13633      4545  TIP3      OH2             7.8790033595        9.4883477139      -20.6252096465  W2        4545            0.0000000000
     13634      4545  TIP3      H1              7.2606133595       10.1630077139      -20.3447396465  W2        4545            0.0000000000
     13635      4545  TIP3      H2              8.2231233595        9.8097377139      -21.4585896465  W2        4545            0.0000000000
     13636      4546  TIP3      OH2             9.6611133595        9.8388177139      -34.7188496465  W2        4546            0.0000000000
     13637      4546  TIP3      H1              9.4806133595        9.6839377139      -35.6460196465  W2        4546            0.0000000000
     13638      4546  TIP3      H2             10.6111633595        9.9466877139      -34.6740596465  W2        4546            0.0000000000
     13639      4547  TIP3      OH2            12.8988233595       11.9598777139      -17.3477296465  W2        4547            0.0000000000
     13640      4547  TIP3      H1             13.8519433595       12.0437877139      -17.3751296465  W2        4547            0.0000000000
     13641      4547  TIP3      H2             12.7382833595       11.2480577139      -16.7282396465  W2        4547            0.0000000000
     13642      4548  TIP3      OH2            19.0509433595       12.1932377139      -35.2730396465  W2        4548            0.0000000000
     13643      4548  TIP3      H1             18.7774233595       11.7687877139      -36.0862096465  W2        4548            0.0000000000
     13644      4548  TIP3      H2             19.0903533595       13.1246877139      -35.4899996465  W2        4548            0.0000000000
     13645      4549  TIP3      OH2             8.2183733595        6.8434277139      -19.5428996465  W2        4549            0.0000000000
     13646      4549  TIP3      H1              8.3684633595        6.1145577139      -20.1449296465  W2        4549            0.0000000000
     13647      4549  TIP3      H2              8.2206133595        7.6205977139      -20.1016796465  W2        4549            0.0000000000
     13648      4550  TIP3      OH2             8.6309433595        5.2130077139      -22.0501596465  W2        4550            0.0000000000
     13649      4550  TIP3      H1              9.1666933595        5.6646777139      -22.7022296465  W2        4550            0.0000000000
     13650      4550  TIP3      H2              7.7789033595        5.1049877139      -22.4727496465  W2        4550            0.0000000000
     13651      4551  TIP3      OH2            10.2127833595       10.6526277139      -21.8106396465  W2        4551            0.0000000000
     13652      4551  TIP3      H1             10.9632633595       10.4963777139      -22.3838596465  W2        4551            0.0000000000
     13653      4551  TIP3      H2              9.8736133595       11.5042877139      -22.0860896465  W2        4551            0.0000000000
     13654      4552  TIP3      OH2            14.6284033595        8.4678077139      -16.7821096465  W2        4552            0.0000000000
     13655      4552  TIP3      H1             14.8205333595        7.5367477139      -16.8936596465  W2        4552            0.0000000000
     13656      4552  TIP3      H2             15.4860333595        8.8927577139      -16.7925696465  W2        4552            0.0000000000
     13657      4553  TIP3      OH2            15.9451233595       11.2563277139      -18.7048396465  W2        4553            0.0000000000
     13658      4553  TIP3      H1             15.6636233595       11.9657877139      -19.2824596465  W2        4553            0.0000000000
     13659      4553  TIP3      H2             16.8875533595       11.1836277139      -18.8557196465  W2        4553            0.0000000000
     13660      4554  TIP3      OH2             6.6970033595        8.0417777139      -17.6313396465  W2        4554            0.0000000000
     13661      4554  TIP3      H1              5.9299033595        7.5092577139      -17.8415796465  W2        4554            0.0000000000
     13662      4554  TIP3      H2              7.3759033595        7.7318177139      -18.2307096465  W2        4554            0.0000000000
     13663      4555  TIP3      OH2             9.4364933595        2.6695777139      -21.6187996465  W2        4555            0.0000000000
     13664      4555  TIP3      H1              9.3384533595        3.6158977139      -21.7241796465  W2        4555            0.0000000000
     13665      4555  TIP3      H2              8.6941133595        2.2969577139      -22.0944496465  W2        4555            0.0000000000
     13666      4556  TIP3      OH2            10.7005433595        6.9911177139      -18.0549596465  W2        4556            0.0000000000
     13667      4556  TIP3      H1             10.4650833595        6.7717877139      -17.1534696465  W2        4556            0.0000000000
     13668      4556  TIP3      H2              9.9172333595        6.7842377139      -18.5647096465  W2        4556            0.0000000000
     13669      4557  TIP3      OH2            13.4162033595        6.1184677139      -18.9796096465  W2        4557            0.0000000000
     13670      4557  TIP3      H1             12.4687433595        6.1504377139      -18.8472796465  W2        4557            0.0000000000
     13671      4557  TIP3      H2             13.7288733595        5.4931777139      -18.3257896465  W2        4557            0.0000000000
     13672      4558  TIP3      OH2            15.0503533595        4.7525777139      -16.9744196465  W2        4558            0.0000000000
     13673      4558  TIP3      H1             14.9535333595        3.8003077139      -16.9802296465  W2        4558            0.0000000000
     13674      4558  TIP3      H2             14.7286633595        5.0212577139      -16.1138696465  W2        4558            0.0000000000
     13675      4559  TIP3      OH2             4.8772833595        5.9621577139      -17.9268696465  W2        4559            0.0000000000
     13676      4559  TIP3      H1              5.0890233595        5.2557677139      -18.5371196465  W2        4559            0.0000000000
     13677      4559  TIP3      H2              4.7660333595        5.5247577139      -17.0827496465  W2        4559            0.0000000000
     13678      4560  TIP3      OH2             9.6583033595        1.9633177139      -18.9475196465  W2        4560            0.0000000000
     13679      4560  TIP3      H1             10.3701433595        1.3235377139      -18.9616096465  W2        4560            0.0000000000
     13680      4560  TIP3      H2              9.5573433595        2.2301477139      -19.8612096465  W2        4560            0.0000000000
     13681      4561  TIP3      OH2            10.0120533595        3.6461577139      -16.8938896465  W2        4561            0.0000000000
     13682      4561  TIP3      H1              9.8802733595        3.1705377139      -17.7140396465  W2        4561            0.0000000000
     13683      4561  TIP3      H2              9.4127933595        4.3905177139      -16.9491796465  W2        4561            0.0000000000
     13684      4562  TIP3      OH2             9.5582833595       20.5291877139      -33.7174896465  W2        4562            0.0000000000
     13685      4562  TIP3      H1             10.4913533595       20.6870577139      -33.5736496465  W2        4562            0.0000000000
     13686      4562  TIP3      H2              9.2941633595       21.2044877139      -34.3423396465  W2        4562            0.0000000000
     13687      4563  TIP3      OH2             3.1267733595       15.1655677139      -34.2346796465  W2        4563            0.0000000000
     13688      4563  TIP3      H1              4.0406933595       15.2444577139      -33.9612896465  W2        4563            0.0000000000
     13689      4563  TIP3      H2              3.1340833595       14.4785277139      -34.9011196465  W2        4563            0.0000000000
     13690      4564  TIP3      OH2             1.7758333595       20.5584177139      -29.1572896465  W2        4564            0.0000000000
     13691      4564  TIP3      H1              1.1285433595       20.0965877139      -29.6901696465  W2        4564            0.0000000000
     13692      4564  TIP3      H2              2.1302933595       19.8867477139      -28.5746696465  W2        4564            0.0000000000
     13693      4565  TIP3      OH2             2.6457533595       18.6391177139      -27.3526696465  W2        4565            0.0000000000
     13694      4565  TIP3      H1              2.3114333595       17.7588477139      -27.1806496465  W2        4565            0.0000000000
     13695      4565  TIP3      H2              2.8679933595       18.9846177139      -26.4881096465  W2        4565            0.0000000000
     13696      4566  TIP3      OH2            20.1942333595       19.4487577139      -24.3721896465  W2        4566            0.0000000000
     13697      4566  TIP3      H1             20.1729033595       19.6335977139      -23.4332496465  W2        4566            0.0000000000
     13698      4566  TIP3      H2             20.8848533595       20.0171577139      -24.7130496465  W2        4566            0.0000000000
     13699      4567  TIP3      OH2            19.7575233595       19.0158677139      -21.4502796465  W2        4567            0.0000000000
     13700      4567  TIP3      H1             19.2703933595       18.2802777139      -21.8215396465  W2        4567            0.0000000000
     13701      4567  TIP3      H2             20.3067933595       18.6222577139      -20.7723396465  W2        4567            0.0000000000
     13702      4568  TIP3      OH2            18.2082533595       14.8056777139      -16.8122496465  W2        4568            0.0000000000
     13703      4568  TIP3      H1             17.3423633595       14.7006477139      -16.4180196465  W2        4568            0.0000000000
     13704      4568  TIP3      H2             18.5848433595       15.5640077139      -16.3657796465  W2        4568            0.0000000000
     13705      4569  TIP3      OH2            19.5092233595       13.0620477139      -31.2979996465  W2        4569            0.0000000000
     13706      4569  TIP3      H1             20.3593633595       13.4831377139      -31.1708396465  W2        4569            0.0000000000
     13707      4569  TIP3      H2             19.5147333595       12.3220577139      -30.6908596465  W2        4569            0.0000000000
     13708      4570  TIP3      OH2            19.9037833595       11.1157877139      -29.4744296465  W2        4570            0.0000000000
     13709      4570  TIP3      H1             19.1772433595       10.6360477139      -29.0766696465  W2        4570            0.0000000000
     13710      4570  TIP3      H2             20.4851133595       11.3212577139      -28.7422696465  W2        4570            0.0000000000
     13711      4571  TIP3      OH2            19.6629033595       13.9005377139      -24.5266696465  W2        4571            0.0000000000
     13712      4571  TIP3      H1             20.4963233595       13.5225377139      -24.8073096465  W2        4571            0.0000000000
     13713      4571  TIP3      H2             19.7749333595       14.8436577139      -24.6457596465  W2        4571            0.0000000000
     13714      4572  TIP3      OH2            18.1491333595       16.7782877139      -22.2198296465  W2        4572            0.0000000000
     13715      4572  TIP3      H1             17.5016633595       17.1034377139      -21.5943096465  W2        4572            0.0000000000
     13716      4572  TIP3      H2             17.6315333595       16.3380577139      -22.8939996465  W2        4572            0.0000000000
     13717      4573  TIP3      OH2            20.1720933595       11.0166377139      -33.0832996465  W2        4573            0.0000000000
     13718      4573  TIP3      H1             19.6502033595       11.3730477139      -33.8022096465  W2        4573            0.0000000000
     13719      4573  TIP3      H2             20.1390133595       11.6914177139      -32.4052096465  W2        4573            0.0000000000
     13720      4574  TIP3      OH2            18.5209933595        8.2561977139      -34.5325896465  W2        4574            0.0000000000
     13721      4574  TIP3      H1             18.6174333595        8.9228977139      -35.2126196465  W2        4574            0.0000000000
     13722      4574  TIP3      H2             18.3809533595        7.4408277139      -35.0140396465  W2        4574            0.0000000000
     13723      4575  TIP3      OH2            17.6904633595        9.6364377139      -28.9115596465  W2        4575            0.0000000000
     13724      4575  TIP3      H1             17.5403433595        8.6912977139      -28.9317796465  W2        4575            0.0000000000
     13725      4575  TIP3      H2             17.3369133595        9.9175777139      -28.0676496465  W2        4575            0.0000000000
     13726      4576  TIP3      OH2             2.7257033595       11.7146577139      -24.9011796465  W2        4576            0.0000000000
     13727      4576  TIP3      H1              2.9099933595       11.6328277139      -25.8368896465  W2        4576            0.0000000000
     13728      4576  TIP3      H2              3.5749933595       11.5903577139      -24.4775396465  W2        4576            0.0000000000
     13729      4577  TIP3      OH2            18.5467533595       11.6067677139      -19.2727296465  W2        4577            0.0000000000
     13730      4577  TIP3      H1             19.1294833595       10.8719977139      -19.0810096465  W2        4577            0.0000000000
     13731      4577  TIP3      H2             19.1106833595       12.3787977139      -19.2261496465  W2        4577            0.0000000000
     13732      4578  TIP3      OH2            20.0434633595        9.5093477139      -18.5881896465  W2        4578            0.0000000000
     13733      4578  TIP3      H1             19.1801333595        9.1305577139      -18.7537196465  W2        4578            0.0000000000
     13734      4578  TIP3      H2             20.6478333595        8.7708277139      -18.6626096465  W2        4578            0.0000000000
     13735      4579  TIP3      OH2            17.7683733595        5.6641777139      -35.4150396465  W2        4579            0.0000000000
     13736      4579  TIP3      H1             18.3789533595        5.2928577139      -34.7782196465  W2        4579            0.0000000000
     13737      4579  TIP3      H2             16.9315233595        5.2428677139      -35.2190396465  W2        4579            0.0000000000
     13738      4580  TIP3      OH2            17.4009433595        7.2190177139      -30.4490496465  W2        4580            0.0000000000
     13739      4580  TIP3      H1             17.6806533595        6.3120577139      -30.3248796465  W2        4580            0.0000000000
     13740      4580  TIP3      H2             18.1601133595        7.6531677139      -30.8381296465  W2        4580            0.0000000000
     13741      4581  TIP3      OH2            18.0127733595        7.8007577139      -25.0131596465  W2        4581            0.0000000000
     13742      4581  TIP3      H1             18.9455733595        8.0127477139      -25.0475596465  W2        4581            0.0000000000
     13743      4581  TIP3      H2             17.7775233595        7.9019677139      -24.0908596465  W2        4581            0.0000000000
     13744      4582  TIP3      OH2            18.0419633595        8.5372877139      -22.2372196465  W2        4582            0.0000000000
     13745      4582  TIP3      H1             17.1990933595        8.8053277139      -21.8712396465  W2        4582            0.0000000000
     13746      4582  TIP3      H2             18.4843933595        9.3594777139      -22.4481096465  W2        4582            0.0000000000
     13747      4583  TIP3      OH2             2.3231833595        6.9851577139      -18.7602996465  W2        4583            0.0000000000
     13748      4583  TIP3      H1              3.2426733595        6.8629877139      -18.5239896465  W2        4583            0.0000000000
     13749      4583  TIP3      H2              1.8736333595        6.2351277139      -18.3709496465  W2        4583            0.0000000000
     13750      4584  TIP3      OH2            20.3251233595        2.5173077139      -16.8837196465  W2        4584            0.0000000000
     13751      4584  TIP3      H1             20.6748233595        1.8636577139      -17.4892496465  W2        4584            0.0000000000
     13752      4584  TIP3      H2             20.4720733595        3.3547177139      -17.3234596465  W2        4584            0.0000000000
     13753      4585  TIP3      OH2            18.0144233595        4.4819477139      -30.4008496465  W2        4585            0.0000000000
     13754      4585  TIP3      H1             18.1969233595        4.0330977139      -29.5753496465  W2        4585            0.0000000000
     13755      4585  TIP3      H2             17.4147133595        3.8973877139      -30.8643896465  W2        4585            0.0000000000
     13756      4586  TIP3      OH2             3.5444333595        5.2973177139      -25.8690096465  W2        4586            0.0000000000
     13757      4586  TIP3      H1              3.9895933595        4.5055677139      -25.5670396465  W2        4586            0.0000000000
     13758      4586  TIP3      H2              4.0107333595        6.0138377139      -25.4384496465  W2        4586            0.0000000000
     13759      4587  TIP3      OH2             1.8484633595        8.2966177139      -24.7999896465  W2        4587            0.0000000000
     13760      4587  TIP3      H1              2.3404433595        8.0756677139      -25.5907896465  W2        4587            0.0000000000
     13761      4587  TIP3      H2              2.2105533595        9.1369577139      -24.5190396465  W2        4587            0.0000000000
     13762      4588  TIP3      OH2            19.8448433595        4.6267677139      -18.5345896465  W2        4588            0.0000000000
     13763      4588  TIP3      H1             18.9274133595        4.8974777139      -18.5702396465  W2        4588            0.0000000000
     13764      4588  TIP3      H2             19.9677833595        4.0916077139      -19.3186196465  W2        4588            0.0000000000
     13765      4589  TIP3      OH2            19.8810433595        4.5497577139      -33.8728196465  W2        4589            0.0000000000
     13766      4589  TIP3      H1             20.2933033595        3.8283277139      -34.3480196465  W2        4589            0.0000000000
     13767      4589  TIP3      H2             20.5626933595        5.2192177139      -33.8143896465  W2        4589            0.0000000000
     13768      4590  TIP3      OH2             2.1621133595        4.5545277139      -30.7457496465  W2        4590            0.0000000000
     13769      4590  TIP3      H1              1.2369533595        4.7631877139      -30.8751996465  W2        4590            0.0000000000
     13770      4590  TIP3      H2              2.6161033595        5.0386077139      -31.4355196465  W2        4590            0.0000000000
     13771      4591  TIP3      OH2            16.9328333595       19.5386977139      -28.8000096465  W2        4591            0.0000000000
     13772      4591  TIP3      H1             17.5851233595       19.1909077139      -29.4080996465  W2        4591            0.0000000000
     13773      4591  TIP3      H2             17.4432133595       20.0270177139      -28.1540396465  W2        4591            0.0000000000
     13774      4592  TIP3      OH2             2.1256533595        3.2924277139      -22.4014996465  W2        4592            0.0000000000
     13775      4592  TIP3      H1              1.4607033595        3.0464577139      -21.7584096465  W2        4592            0.0000000000
     13776      4592  TIP3      H2              1.6827833595        3.9144677139      -22.9786996465  W2        4592            0.0000000000
     13777      4593  TIP3      OH2             4.3175833595       16.4678377139      -18.2569196465  W2        4593            0.0000000000
     13778      4593  TIP3      H1              3.4968333595       16.6424877139      -18.7174496465  W2        4593            0.0000000000
     13779      4593  TIP3      H2              4.0653633595       16.3943077139      -17.3364796465  W2        4593            0.0000000000
     13780      4594  TIP3      OH2             7.2718733595       17.4419577139      -21.9985196465  W2        4594            0.0000000000
     13781      4594  TIP3      H1              6.8469833595       18.2518077139      -22.2810596465  W2        4594            0.0000000000
     13782      4594  TIP3      H2              8.1761533595       17.5273677139      -22.3005396465  W2        4594            0.0000000000
     13783      4595  TIP3      OH2            11.5830133595       18.8409577139      -19.0391496465  W2        4595            0.0000000000
     13784      4595  TIP3      H1             11.7677633595       18.5075677139      -18.1611196465  W2        4595            0.0000000000
     13785      4595  TIP3      H2             12.4294633595       19.1508177139      -19.3612296465  W2        4595            0.0000000000
     13786      4596  TIP3      OH2            13.9280533595       20.1268477139      -19.7950096465  W2        4596            0.0000000000
     13787      4596  TIP3      H1             14.6049433595       19.4940777139      -20.0350896465  W2        4596            0.0000000000
     13788      4596  TIP3      H2             14.2499333595       20.5278977139      -18.9876796465  W2        4596            0.0000000000
     13789      4597  TIP3      OH2            18.8454333595        2.7163977139      -20.7155096465  W2        4597            0.0000000000
     13790      4597  TIP3      H1             18.0327833595        3.0414277139      -21.1030396465  W2        4597            0.0000000000
     13791      4597  TIP3      H2             19.0782833595        1.9562477139      -21.2485996465  W2        4597            0.0000000000
     13792      4598  TIP3      OH2             4.6735433595       20.6983477139      -21.9509896465  W2        4598            0.0000000000
     13793      4598  TIP3      H1              3.9531833595       21.1384477139      -22.4022196465  W2        4598            0.0000000000
     13794      4598  TIP3      H2              4.3079433595       20.4478177139      -21.1025896465  W2        4598            0.0000000000
     13795      4599  TIP3      OH2             7.1408033595       20.2987377139      -22.9212696465  W2        4599            0.0000000000
     13796      4599  TIP3      H1              6.2760233595       20.3705877139      -22.5172596465  W2        4599            0.0000000000
     13797      4599  TIP3      H2              7.0857033595       20.8454677139      -23.7050196465  W2        4599            0.0000000000
     13798      4600  TIP3      OH2            11.8513633595       20.1866277139      -23.7456696465  W2        4600            0.0000000000
     13799      4600  TIP3      H1             11.3947633595       20.7155977139      -24.3998296465  W2        4600            0.0000000000
     13800      4600  TIP3      H2             12.0141633595       20.7897677139      -23.0204396465  W2        4600            0.0000000000
     13801      4601  TIP3      OH2            14.1789933595       19.0645877139      -22.8006396465  W2        4601            0.0000000000
     13802      4601  TIP3      H1             13.2743633595       19.2296077139      -23.0664296465  W2        4601            0.0000000000
     13803      4601  TIP3      H2             14.6078533595       19.9178077139      -22.8662996465  W2        4601            0.0000000000
     13804      4602  TIP3      OH2            16.7831833595       20.6344977139      -22.5058596465  W2        4602            0.0000000000
     13805      4602  TIP3      H1             16.6013833595       21.5503877139      -22.7163696465  W2        4602            0.0000000000
     13806      4602  TIP3      H2             16.9599633595       20.2242077139      -23.3523996465  W2        4602            0.0000000000
     13807      4603  TIP3      OH2             4.0883533595       19.3215977139      -25.0408096465  W2        4603            0.0000000000
     13808      4603  TIP3      H1              4.0699533595       18.8961077139      -24.1835796465  W2        4603            0.0000000000
     13809      4603  TIP3      H2              4.8931433595       19.0030977139      -25.4495896465  W2        4603            0.0000000000
     13810      4604  TIP3      OH2             6.2296633595       18.0314677139      -26.3858196465  W2        4604            0.0000000000
     13811      4604  TIP3      H1              6.0107333595       17.1152077139      -26.2162196465  W2        4604            0.0000000000
     13812      4604  TIP3      H2              7.0538833595       18.1715077139      -25.9196796465  W2        4604            0.0000000000
     13813      4605  TIP3      OH2             8.7669133595       18.5013977139      -25.5370196465  W2        4605            0.0000000000
     13814      4605  TIP3      H1              8.9794833595       17.6132977139      -25.8239296465  W2        4605            0.0000000000
     13815      4605  TIP3      H2              8.8314233595       18.4671677139      -24.5826196465  W2        4605            0.0000000000
     13816      4606  TIP3      OH2            12.2752833595        4.1654577139      -26.3926896465  W2        4606            0.0000000000
     13817      4606  TIP3      H1             11.6009633595        3.5360177139      -26.1371096465  W2        4606            0.0000000000
     13818      4606  TIP3      H2             12.8392033595        3.6813477139      -26.9958996465  W2        4606            0.0000000000
     13819      4607  TIP3      OH2            17.4180033595        2.2728577139      -26.2799796465  W2        4607            0.0000000000
     13820      4607  TIP3      H1             18.0217633595        2.8203977139      -26.7818796465  W2        4607            0.0000000000
     13821      4607  TIP3      H2             16.5482033595        2.5918977139      -26.5205696465  W2        4607            0.0000000000
     13822      4608  TIP3      OH2            19.1450433595        3.4117277139      -27.9468896465  W2        4608            0.0000000000
     13823      4608  TIP3      H1             19.7567933595        2.8972977139      -28.4735296465  W2        4608            0.0000000000
     13824      4608  TIP3      H2             19.5273833595        4.2889377139      -27.9234496465  W2        4608            0.0000000000
     13825      4609  TIP3      OH2             4.6020333595        2.7994877139      -28.5706996465  W2        4609            0.0000000000
     13826      4609  TIP3      H1              3.8250133595        2.5649777139      -29.0781096465  W2        4609            0.0000000000
     13827      4609  TIP3      H2              5.1323933595        2.0026977139      -28.5618996465  W2        4609            0.0000000000
     13828      4610  TIP3      OH2             3.4383733595        2.5972977139      -32.7670896465  W2        4610            0.0000000000
     13829      4610  TIP3      H1              3.8774433595        3.2083477139      -33.3587396465  W2        4610            0.0000000000
     13830      4610  TIP3      H2              2.8046133595        3.1357077139      -32.2930896465  W2        4610            0.0000000000
     13831      4611  TIP3      OH2             9.1812933595        2.7261977139      -28.7573896465  W2        4611            0.0000000000
     13832      4611  TIP3      H1             10.0556333595        3.1146277139      -28.7869596465  W2        4611            0.0000000000
     13833      4611  TIP3      H2              9.0453733595        2.5109777139      -27.8346696465  W2        4611            0.0000000000
     13834      4612  TIP3      OH2            14.7381333595        2.7561777139      -27.1082196465  W2        4612            0.0000000000
     13835      4612  TIP3      H1             14.8142933595        2.8513377139      -28.0576196465  W2        4612            0.0000000000
     13836      4612  TIP3      H2             14.4630533595        1.8484677139      -26.9793096465  W2        4612            0.0000000000
     13837      4613  TIP3      OH2            16.0913933595        2.7819577139      -31.4157196465  W2        4613            0.0000000000
     13838      4613  TIP3      H1             15.3885033595        3.3968777139      -31.6255796465  W2        4613            0.0000000000
     13839      4613  TIP3      H2             15.6465333595        1.9446277139      -31.2846296465  W2        4613            0.0000000000
     13840      4614  TIP3      OH2             3.3393233595       18.5455177139      -31.8695796465  W2        4614            0.0000000000
     13841      4614  TIP3      H1              2.6543133595       18.5074077139      -32.5370696465  W2        4614            0.0000000000
     13842      4614  TIP3      H2              3.3430433595       19.4582777139      -31.5813696465  W2        4614            0.0000000000
     13843      4615  TIP3      OH2             5.2992833595        4.5134477139      -34.3246796465  W2        4615            0.0000000000
     13844      4615  TIP3      H1              5.7906233595        3.8836877139      -34.8521296465  W2        4615            0.0000000000
     13845      4615  TIP3      H2              5.9229133595        4.8093877139      -33.6615596465  W2        4615            0.0000000000
     13846      4616  TIP3      OH2            10.3252933595        4.8065977139      -31.8676296465  W2        4616            0.0000000000
     13847      4616  TIP3      H1             10.5034233595        4.1599177139      -31.1847696465  W2        4616            0.0000000000
     13848      4616  TIP3      H2             10.2719133595        5.6403677139      -31.4005196465  W2        4616            0.0000000000
     13849      4617  TIP3      OH2            12.2036733595       19.7550077139      -33.4719596465  W2        4617            0.0000000000
     13850      4617  TIP3      H1             13.0696933595       20.1217477139      -33.6501396465  W2        4617            0.0000000000
     13851      4617  TIP3      H2             11.9569533595       19.3158077139      -34.2858796465  W2        4617            0.0000000000
     13852      4618  TIP3      OH2            18.9126333595       19.3180377139      -30.7928496465  W2        4618            0.0000000000
     13853      4618  TIP3      H1             18.7183433595       18.5702477139      -31.3578896465  W2        4618            0.0000000000
     13854      4618  TIP3      H2             18.8736433595       20.0760477139      -31.3760596465  W2        4618            0.0000000000
     13855      4619  TIP3      OH2             4.5598333595        3.3136777139      -19.0530796465  W2        4619            0.0000000000
     13856      4619  TIP3      H1              4.1936533595        2.5479377139      -18.6106096465  W2        4619            0.0000000000
     13857      4619  TIP3      H2              5.4726833595        3.3426977139      -18.7665696465  W2        4619            0.0000000000
     13858      4620  TIP3      OH2             6.5329133595        2.6641177139      -17.5173696465  W2        4620            0.0000000000
     13859      4620  TIP3      H1              7.4312733595        2.3901377139      -17.7020296465  W2        4620            0.0000000000
     13860      4620  TIP3      H2              6.1462233595        1.9217177139      -17.0531096465  W2        4620            0.0000000000
     13861      4621  TIP3      OH2             5.1574433595       19.4655977139      -34.8443696465  W2        4621            0.0000000000
     13862      4621  TIP3      H1              4.8899033595       19.7518877139      -33.9710596465  W2        4621            0.0000000000
     13863      4621  TIP3      H2              5.9287033595       18.9195177139      -34.6921196465  W2        4621            0.0000000000
     13864      4622  TIP3      OH2            14.9541433595        1.9966477139      -17.3350896465  W2        4622            0.0000000000
     13865      4622  TIP3      H1             15.0308633595        1.5707177139      -16.4813196465  W2        4622            0.0000000000
     13866      4622  TIP3      H2             15.8478033595        2.0101177139      -17.6777396465  W2        4622            0.0000000000
     13867      4623  TIP3      OH2            18.1302533595       18.0692777139      -18.6426696465  W2        4623            0.0000000000
     13868      4623  TIP3      H1             17.3484433595       17.8830777139      -19.1626096465  W2        4623            0.0000000000
     13869      4623  TIP3      H2             18.0582433595       18.9987077139      -18.4254196465  W2        4623            0.0000000000
     13870      4624  TIP3      OH2            32.5362933595       11.9557177139      -28.6119496465  W2        4624            0.0000000000
     13871      4624  TIP3      H1             32.6254033595       12.8995377139      -28.7442396465  W2        4624            0.0000000000
     13872      4624  TIP3      H2             31.8980533595       11.6803577139      -29.2700096465  W2        4624            0.0000000000
     13873      4625  TIP3      OH2            31.4694233595       11.2107877139      -25.1931296465  W2        4625            0.0000000000
     13874      4625  TIP3      H1             31.4311733595       10.5644177139      -24.4881696465  W2        4625            0.0000000000
     13875      4625  TIP3      H2             31.1470733595       10.7442277139      -25.9642596465  W2        4625            0.0000000000
     13876      4626  TIP3      OH2            23.8379233595       10.8249977139      -23.6001396465  W2        4626            0.0000000000
     13877      4626  TIP3      H1             23.8791333595       10.1993277139      -22.8768996465  W2        4626            0.0000000000
     13878      4626  TIP3      H2             24.5406933595       11.4488577139      -23.4180996465  W2        4626            0.0000000000
     13879      4627  TIP3      OH2            35.1754433595       14.1498277139      -26.8916196465  W2        4627            0.0000000000
     13880      4627  TIP3      H1             34.7347133595       13.4294277139      -26.4410596465  W2        4627            0.0000000000
     13881      4627  TIP3      H2             35.1624133595       14.8705477139      -26.2618496465  W2        4627            0.0000000000
     13882      4628  TIP3      OH2            24.7612333595       15.2748877139      -25.0652296465  W2        4628            0.0000000000
     13883      4628  TIP3      H1             24.3917533595       14.4729377139      -25.4347996465  W2        4628            0.0000000000
     13884      4628  TIP3      H2             25.7023433595       15.1063777139      -25.0188896465  W2        4628            0.0000000000
     13885      4629  TIP3      OH2            21.3712833595        8.9351477139      -29.6723496465  W2        4629            0.0000000000
     13886      4629  TIP3      H1             20.9236233595        9.7810177139      -29.6906996465  W2        4629            0.0000000000
     13887      4629  TIP3      H2             20.8104033595        8.3555677139      -30.1878396465  W2        4629            0.0000000000
     13888      4630  TIP3      OH2            22.0818933595       11.0971077139      -27.5465496465  W2        4630            0.0000000000
     13889      4630  TIP3      H1             22.2952433595       10.3272677139      -27.0192496465  W2        4630            0.0000000000
     13890      4630  TIP3      H2             22.8196533595       11.1867777139      -28.1497896465  W2        4630            0.0000000000
     13891      4631  TIP3      OH2            32.2869933595       19.2539977139      -26.6795796465  W2        4631            0.0000000000
     13892      4631  TIP3      H1             32.9066333595       18.5774677139      -26.9526596465  W2        4631            0.0000000000
     13893      4631  TIP3      H2             32.0787333595       19.0360777139      -25.7710896465  W2        4631            0.0000000000
     13894      4632  TIP3      OH2            29.8588633595       13.6429277139      -24.7870296465  W2        4632            0.0000000000
     13895      4632  TIP3      H1             30.1626533595       12.9570677139      -25.3816196465  W2        4632            0.0000000000
     13896      4632  TIP3      H2             30.5802633595       13.7617977139      -24.1692296465  W2        4632            0.0000000000
     13897      4633  TIP3      OH2            38.5218433595        5.2444577139      -23.9264096465  W2        4633            0.0000000000
     13898      4633  TIP3      H1             38.5710633595        5.8545777139      -23.1904996465  W2        4633            0.0000000000
     13899      4633  TIP3      H2             38.9473533595        5.7055477139      -24.6492996465  W2        4633            0.0000000000
     13900      4634  TIP3      OH2            32.9995633595        8.0371677139      -24.4595496465  W2        4634            0.0000000000
     13901      4634  TIP3      H1             33.1421533595        7.0908677139      -24.4393896465  W2        4634            0.0000000000
     13902      4634  TIP3      H2             32.8934633595        8.2441477139      -25.3880596465  W2        4634            0.0000000000
     13903      4635  TIP3      OH2            26.1543933595        6.1388077139      -27.1870696465  W2        4635            0.0000000000
     13904      4635  TIP3      H1             26.1975033595        6.9986577139      -27.6054396465  W2        4635            0.0000000000
     13905      4635  TIP3      H2             25.6968033595        5.5862777139      -27.8207496465  W2        4635            0.0000000000
     13906      4636  TIP3      OH2            33.8766633595        6.2693677139      -28.7862396465  W2        4636            0.0000000000
     13907      4636  TIP3      H1             34.5230933595        5.9406877139      -28.1614796465  W2        4636            0.0000000000
     13908      4636  TIP3      H2             34.3866033595        6.7872677139      -29.4090996465  W2        4636            0.0000000000
     13909      4637  TIP3      OH2            22.7745433595        8.5353877139      -26.4249296465  W2        4637            0.0000000000
     13910      4637  TIP3      H1             23.4282033595        7.9855577139      -25.9929196465  W2        4637            0.0000000000
     13911      4637  TIP3      H2             22.7984733595        8.2612877139      -27.3417296465  W2        4637            0.0000000000
     13912      4638  TIP3      OH2            27.9309933595       10.0855177139      -27.2097796465  W2        4638            0.0000000000
     13913      4638  TIP3      H1             28.5470933595        9.5590577139      -26.7003796465  W2        4638            0.0000000000
     13914      4638  TIP3      H2             27.3448733595        9.4453877139      -27.6134196465  W2        4638            0.0000000000
     13915      4639  TIP3      OH2            38.9133033595        6.7223777139      -21.6904296465  W2        4639            0.0000000000
     13916      4639  TIP3      H1             38.2247633595        7.3804477139      -21.7857696465  W2        4639            0.0000000000
     13917      4639  TIP3      H2             38.9287633595        6.5251677139      -20.7538896465  W2        4639            0.0000000000
     13918      4640  TIP3      OH2            24.9645833595        5.0566477139      -23.1129896465  W2        4640            0.0000000000
     13919      4640  TIP3      H1             24.7457533595        5.5867077139      -23.8793896465  W2        4640            0.0000000000
     13920      4640  TIP3      H2             24.2966733595        5.2831977139      -22.4658496465  W2        4640            0.0000000000
     13921      4641  TIP3      OH2            32.3335633595       14.5567577139      -29.5690796465  W2        4641            0.0000000000
     13922      4641  TIP3      H1             32.0380733595       14.2339877139      -30.4203896465  W2        4641            0.0000000000
     13923      4641  TIP3      H2             32.0093433595       15.4564277139      -29.5278196465  W2        4641            0.0000000000
     13924      4642  TIP3      OH2            27.5337233595       12.7322177139      -22.8256196465  W2        4642            0.0000000000
     13925      4642  TIP3      H1             26.7936333595       13.3303677139      -22.7220996465  W2        4642            0.0000000000
     13926      4642  TIP3      H2             28.2476733595       13.2861777139      -23.1412596465  W2        4642            0.0000000000
     13927      4643  TIP3      OH2            35.6405033595        5.5602977139      -26.8056496465  W2        4643            0.0000000000
     13928      4643  TIP3      H1             35.4253033595        4.7946377139      -26.2730496465  W2        4643            0.0000000000
     13929      4643  TIP3      H2             36.2962433595        6.0327577139      -26.2927996465  W2        4643            0.0000000000
     13930      4644  TIP3      OH2            24.5583133595        6.9488277139      -25.1607696465  W2        4644            0.0000000000
     13931      4644  TIP3      H1             25.1719433595        7.5815877139      -24.7875296465  W2        4644            0.0000000000
     13932      4644  TIP3      H2             25.0703833595        6.4763277139      -25.8170796465  W2        4644            0.0000000000
     13933      4645  TIP3      OH2            25.9411533595       14.6965177139      -22.0384696465  W2        4645            0.0000000000
     13934      4645  TIP3      H1             25.9359133595       15.5758677139      -22.4165396465  W2        4645            0.0000000000
     13935      4645  TIP3      H2             25.0875633595       14.6129277139      -21.6134796465  W2        4645            0.0000000000
     13936      4646  TIP3      OH2            22.0622433595       14.3673077139      -31.2565396465  W2        4646            0.0000000000
     13937      4646  TIP3      H1             21.7903333595       14.5964077139      -32.1452496465  W2        4646            0.0000000000
     13938      4646  TIP3      H2             22.1078133595       15.2051877139      -30.7960096465  W2        4646            0.0000000000
     13939      4647  TIP3      OH2            35.6872133595       15.9888977139      -24.5436896465  W2        4647            0.0000000000
     13940      4647  TIP3      H1             34.7455833595       16.0472877139      -24.3819996465  W2        4647            0.0000000000
     13941      4647  TIP3      H2             35.9638233595       16.8949477139      -24.6807196465  W2        4647            0.0000000000
     13942      4648  TIP3      OH2            35.9879133595        4.2754277139      -23.1262996465  W2        4648            0.0000000000
     13943      4648  TIP3      H1             35.2518333595        4.8861377139      -23.1641696465  W2        4648            0.0000000000
     13944      4648  TIP3      H2             36.6713133595        4.6903277139      -23.6526596465  W2        4648            0.0000000000
     13945      4649  TIP3      OH2            28.9910533595        2.3621577139      -25.6604996465  W2        4649            0.0000000000
     13946      4649  TIP3      H1             28.8734733595        1.4137577139      -25.7146696465  W2        4649            0.0000000000
     13947      4649  TIP3      H2             28.1360633595        2.6947677139      -25.3873896465  W2        4649            0.0000000000
     13948      4650  TIP3      OH2            33.9393333595       17.7702477139      -27.9185296465  W2        4650            0.0000000000
     13949      4650  TIP3      H1             34.3645633595       17.0630377139      -28.4035696465  W2        4650            0.0000000000
     13950      4650  TIP3      H2             34.2563333595       18.5715177139      -28.3353096465  W2        4650            0.0000000000
     13951      4651  TIP3      OH2            35.0989833595       15.6710977139      -29.4098696465  W2        4651            0.0000000000
     13952      4651  TIP3      H1             34.8414633595       14.9811077139      -30.0212796465  W2        4651            0.0000000000
     13953      4651  TIP3      H2             35.1700633595       15.2282177139      -28.5642796465  W2        4651            0.0000000000
     13954      4652  TIP3      OH2            36.7850033595       14.2377677139      -20.9325196465  W2        4652            0.0000000000
     13955      4652  TIP3      H1             36.9246333595       13.6460177139      -21.6718196465  W2        4652            0.0000000000
     13956      4652  TIP3      H2             36.9522833595       15.1103577139      -21.2886396465  W2        4652            0.0000000000
     13957      4653  TIP3      OH2            31.2575433595       11.1997177139      -31.1599196465  W2        4653            0.0000000000
     13958      4653  TIP3      H1             30.5460933595       11.7346877139      -31.5118696465  W2        4653            0.0000000000
     13959      4653  TIP3      H2             31.9485033595       11.2549277139      -31.8200296465  W2        4653            0.0000000000
     13960      4654  TIP3      OH2            31.3114633595        9.6571477139      -34.1214196465  W2        4654            0.0000000000
     13961      4654  TIP3      H1             32.0124533595        9.6798377139      -33.4700196465  W2        4654            0.0000000000
     13962      4654  TIP3      H2             31.6137533595        9.0291177139      -34.7774896465  W2        4654            0.0000000000
     13963      4655  TIP3      OH2            38.6269333595       10.5775677139      -22.8664796465  W2        4655            0.0000000000
     13964      4655  TIP3      H1             37.9743433595       11.2721277139      -22.7773896465  W2        4655            0.0000000000
     13965      4655  TIP3      H2             39.0919633595       10.7876577139      -23.6763196465  W2        4655            0.0000000000
     13966      4656  TIP3      OH2            34.6633133595       11.4090477139      -30.2083296465  W2        4656            0.0000000000
     13967      4656  TIP3      H1             33.9314133595       11.6374177139      -29.6352696465  W2        4656            0.0000000000
     13968      4656  TIP3      H2             35.1105333595       10.6953177139      -29.7535796465  W2        4656            0.0000000000
     13969      4657  TIP3      OH2            34.5606633595        9.5833077139      -21.1406296465  W2        4657            0.0000000000
     13970      4657  TIP3      H1             34.6405733595       10.3467477139      -20.5687796465  W2        4657            0.0000000000
     13971      4657  TIP3      H2             33.9594333595        9.8625477139      -21.8311196465  W2        4657            0.0000000000
     13972      4658  TIP3      OH2            26.3086833595       12.0396677139      -28.3258296465  W2        4658            0.0000000000
     13973      4658  TIP3      H1             25.9782033595       11.6690077139      -29.1441296465  W2        4658            0.0000000000
     13974      4658  TIP3      H2             26.8970933595       11.3690677139      -27.9789996465  W2        4658            0.0000000000
     13975      4659  TIP3      OH2            27.6754333595       15.4677277139      -25.6446096465  W2        4659            0.0000000000
     13976      4659  TIP3      H1             27.5805633595       14.8890377139      -26.4011496465  W2        4659            0.0000000000
     13977      4659  TIP3      H2             28.4047933595       15.0962977139      -25.1483296465  W2        4659            0.0000000000
     13978      4660  TIP3      OH2            26.6752333595       10.8082277139      -24.6923296465  W2        4660            0.0000000000
     13979      4660  TIP3      H1             27.2404833595       10.9296477139      -25.4552096465  W2        4660            0.0000000000
     13980      4660  TIP3      H2             26.9941233595       11.4457277139      -24.0534796465  W2        4660            0.0000000000
     13981      4661  TIP3      OH2            32.9844533595       16.3114177139      -23.9582796465  W2        4661            0.0000000000
     13982      4661  TIP3      H1             32.7441133595       16.9737277139      -23.3103596465  W2        4661            0.0000000000
     13983      4661  TIP3      H2             32.7862733595       15.4769377139      -23.5333196465  W2        4661            0.0000000000
     13984      4662  TIP3      OH2            27.5553033595       15.2074977139      -19.9751396465  W2        4662            0.0000000000
     13985      4662  TIP3      H1             27.2440533595       15.9898177139      -19.5198196465  W2        4662            0.0000000000
     13986      4662  TIP3      H2             26.9053233595       15.0544077139      -20.6609396465  W2        4662            0.0000000000
     13987      4663  TIP3      OH2            33.5342633595       10.5713377139      -32.5232096465  W2        4663            0.0000000000
     13988      4663  TIP3      H1             34.1138133595       10.7213677139      -31.7763196465  W2        4663            0.0000000000
     13989      4663  TIP3      H2             33.9482633595       11.0420777139      -33.2465696465  W2        4663            0.0000000000
     13990      4664  TIP3      OH2            24.4752933595       11.4056077139      -20.7465696465  W2        4664            0.0000000000
     13991      4664  TIP3      H1             24.5456133595       12.0562877139      -20.0480696465  W2        4664            0.0000000000
     13992      4664  TIP3      H2             23.5845133595       11.5083577139      -21.0814796465  W2        4664            0.0000000000
     13993      4665  TIP3      OH2            31.2607533595       17.3081877139      -29.0878996465  W2        4665            0.0000000000
     13994      4665  TIP3      H1             31.7345133595       17.6038177139      -28.3104796465  W2        4665            0.0000000000
     13995      4665  TIP3      H2             30.6976833595       18.0463477139      -29.3209396465  W2        4665            0.0000000000
     13996      4666  TIP3      OH2            25.7948933595       17.2789977139      -19.2117596465  W2        4666            0.0000000000
     13997      4666  TIP3      H1             25.8024233595       17.1429677139      -20.1592096465  W2        4666            0.0000000000
     13998      4666  TIP3      H2             24.8789333595       17.1618077139      -18.9597596465  W2        4666            0.0000000000
     13999      4667  TIP3      OH2            37.2331033595        2.3213777139      -32.7102396465  W2        4667            0.0000000000
     14000      4667  TIP3      H1             36.3331733595        2.4602777139      -32.4151796465  W2        4667            0.0000000000
     14001      4667  TIP3      H2             37.4849433595        3.1528377139      -33.1120696465  W2        4667            0.0000000000
     14002      4668  TIP3      OH2            25.2989533595       11.1090977139      -30.7365496465  W2        4668            0.0000000000
     14003      4668  TIP3      H1             25.0070833595       11.8772677139      -31.2274196465  W2        4668            0.0000000000
     14004      4668  TIP3      H2             24.6244733595       10.4497177139      -30.8994096465  W2        4668            0.0000000000
     14005      4669  TIP3      OH2            38.4222433595       16.6876177139      -34.3338496465  W2        4669            0.0000000000
     14006      4669  TIP3      H1             38.4955933595       17.6266377139      -34.1633196465  W2        4669            0.0000000000
     14007      4669  TIP3      H2             39.3277533595       16.3824777139      -34.3901196465  W2        4669            0.0000000000
     14008      4670  TIP3      OH2            21.3919633595       13.4720177139      -21.9215696465  W2        4670            0.0000000000
     14009      4670  TIP3      H1             20.8908033595       13.4439577139      -22.7365996465  W2        4670            0.0000000000
     14010      4670  TIP3      H2             21.3973333595       12.5663377139      -21.6118396465  W2        4670            0.0000000000
     14011      4671  TIP3      OH2            21.1422333595       16.2523977139      -25.0375496465  W2        4671            0.0000000000
     14012      4671  TIP3      H1             22.0882933595       16.1080977139      -25.0565996465  W2        4671            0.0000000000
     14013      4671  TIP3      H2             21.0298633595       17.0366777139      -24.5004296465  W2        4671            0.0000000000
     14014      4672  TIP3      OH2            39.3400833595       16.9183677139      -19.3551796465  W2        4672            0.0000000000
     14015      4672  TIP3      H1             39.2907633595       15.9631777139      -19.3924196465  W2        4672            0.0000000000
     14016      4672  TIP3      H2             38.5133133595       17.1858977139      -18.9537996465  W2        4672            0.0000000000
     14017      4673  TIP3      OH2            30.3184833595       16.4922877139      -20.4790396465  W2        4673            0.0000000000
     14018      4673  TIP3      H1             30.4059433595       17.3187477139      -20.0041296465  W2        4673            0.0000000000
     14019      4673  TIP3      H2             29.4549933595       16.1626677139      -20.2301096465  W2        4673            0.0000000000
     14020      4674  TIP3      OH2            30.7330633595       20.2646577139      -30.6729796465  W2        4674            0.0000000000
     14021      4674  TIP3      H1             30.6576633595       20.1433777139      -31.6194596465  W2        4674            0.0000000000
     14022      4674  TIP3      H2             30.7659333595       21.2139277139      -30.5545196465  W2        4674            0.0000000000
     14023      4675  TIP3      OH2            24.3864433595       19.0533577139      -28.8920796465  W2        4675            0.0000000000
     14024      4675  TIP3      H1             24.5384833595       18.7053977139      -28.0134296465  W2        4675            0.0000000000
     14025      4675  TIP3      H2             23.5354833595       18.6970877139      -29.1473596465  W2        4675            0.0000000000
     14026      4676  TIP3      OH2            33.8346633595       19.4186777139      -33.6707396465  W2        4676            0.0000000000
     14027      4676  TIP3      H1             34.2095033595       18.6742877139      -34.1414796465  W2        4676            0.0000000000
     14028      4676  TIP3      H2             33.8390333595       19.1487377139      -32.7524096465  W2        4676            0.0000000000
     14029      4677  TIP3      OH2            33.5034733595       19.3443877139      -30.9215196465  W2        4677            0.0000000000
     14030      4677  TIP3      H1             32.5684533595       19.4445777139      -30.7428196465  W2        4677            0.0000000000
     14031      4677  TIP3      H2             33.7836633595       18.6349877139      -30.3431996465  W2        4677            0.0000000000
     14032      4678  TIP3      OH2            36.4920633595        8.4116177139      -18.8749596465  W2        4678            0.0000000000
     14033      4678  TIP3      H1             36.0847433595        8.8921777139      -19.5956296465  W2        4678            0.0000000000
     14034      4678  TIP3      H2             36.5326333595        7.5062177139      -19.1828796465  W2        4678            0.0000000000
     14035      4679  TIP3      OH2            23.6410133595       14.7955577139      -20.8782896465  W2        4679            0.0000000000
     14036      4679  TIP3      H1             23.8571433595       14.4341177139      -20.0187096465  W2        4679            0.0000000000
     14037      4679  TIP3      H2             22.7854833595       14.4209377139      -21.0879396465  W2        4679            0.0000000000
     14038      4680  TIP3      OH2            26.2598133595        3.2656077139      -24.8828696465  W2        4680            0.0000000000
     14039      4680  TIP3      H1             25.3981833595        3.1784277139      -25.2905796465  W2        4680            0.0000000000
     14040      4680  TIP3      H2             26.2373833595        4.1216177139      -24.4551096465  W2        4680            0.0000000000
     14041      4681  TIP3      OH2            30.9225933595        2.9876477139      -21.5081696465  W2        4681            0.0000000000
     14042      4681  TIP3      H1             31.3429033595        2.5723577139      -20.7551096465  W2        4681            0.0000000000
     14043      4681  TIP3      H2             29.9895533595        2.8089777139      -21.3909696465  W2        4681            0.0000000000
     14044      4682  TIP3      OH2            34.2490833595        6.7431677139      -20.6547196465  W2        4682            0.0000000000
     14045      4682  TIP3      H1             33.7350333595        6.6173877139      -19.8571196465  W2        4682            0.0000000000
     14046      4682  TIP3      H2             34.0935533595        7.6554777139      -20.8990996465  W2        4682            0.0000000000
     14047      4683  TIP3      OH2            35.0115733595       11.6041677139      -34.8934196465  W2        4683            0.0000000000
     14048      4683  TIP3      H1             35.0536533595       11.3815577139      -35.8234196465  W2        4683            0.0000000000
     14049      4683  TIP3      H2             35.8607833595       12.0028777139      -34.7034296465  W2        4683            0.0000000000
     14050      4684  TIP3      OH2            30.5843233595        5.4799877139      -34.2230896465  W2        4684            0.0000000000
     14051      4684  TIP3      H1             30.3308033595        5.4991477139      -33.3002796465  W2        4684            0.0000000000
     14052      4684  TIP3      H2             30.3275333595        4.6085277139      -34.5244696465  W2        4684            0.0000000000
     14053      4685  TIP3      OH2            26.3508233595        8.2310577139      -23.7878496465  W2        4685            0.0000000000
     14054      4685  TIP3      H1             25.7090333595        8.1907877139      -23.0788396465  W2        4685            0.0000000000
     14055      4685  TIP3      H2             26.3880233595        9.1575277139      -24.0255496465  W2        4685            0.0000000000
     14056      4686  TIP3      OH2            26.3477333595        8.4520677139      -28.8758496465  W2        4686            0.0000000000
     14057      4686  TIP3      H1             25.4550233595        8.1116777139      -28.9344696465  W2        4686            0.0000000000
     14058      4686  TIP3      H2             26.7983933595        8.0751577139      -29.6315296465  W2        4686            0.0000000000
     14059      4687  TIP3      OH2            31.8832833595        8.8680977139      -30.0587696465  W2        4687            0.0000000000
     14060      4687  TIP3      H1             31.4743133595        9.6829577139      -30.3502896465  W2        4687            0.0000000000
     14061      4687  TIP3      H2             32.6039033595        8.7281077139      -30.6730596465  W2        4687            0.0000000000
     14062      4688  TIP3      OH2            30.9854433595        9.0437377139      -18.5706996465  W2        4688            0.0000000000
     14063      4688  TIP3      H1             30.4228233595        8.3388977139      -18.2499196465  W2        4688            0.0000000000
     14064      4688  TIP3      H2             31.8117833595        8.9229277139      -18.1029396465  W2        4688            0.0000000000
     14065      4689  TIP3      OH2            32.8880533595        8.3141377139      -27.2447996465  W2        4689            0.0000000000
     14066      4689  TIP3      H1             32.6925033595        8.9198177139      -27.9597396465  W2        4689            0.0000000000
     14067      4689  TIP3      H2             33.0693133595        7.4806577139      -27.6791696465  W2        4689            0.0000000000
     14068      4690  TIP3      OH2            24.1008733595        8.5514077139      -21.9206496465  W2        4690            0.0000000000
     14069      4690  TIP3      H1             24.0628133595        8.9515677139      -21.0519396465  W2        4690            0.0000000000
     14070      4690  TIP3      H2             23.6099833595        7.7346477139      -21.8303596465  W2        4690            0.0000000000
     14071      4691  TIP3      OH2            27.4666133595        5.9256377139      -35.1220496465  W2        4691            0.0000000000
     14072      4691  TIP3      H1             27.0356833595        5.4806477139      -34.3923096465  W2        4691            0.0000000000
     14073      4691  TIP3      H2             26.7484833595        6.2972677139      -35.6342996465  W2        4691            0.0000000000
     14074      4692  TIP3      OH2            20.7089533595        5.6675877139      -28.0701796465  W2        4692            0.0000000000
     14075      4692  TIP3      H1             21.3397233595        5.6387977139      -27.3507896465  W2        4692            0.0000000000
     14076      4692  TIP3      H2             21.1583833595        5.2424577139      -28.8005896465  W2        4692            0.0000000000
     14077      4693  TIP3      OH2            21.9831633595        6.4137877139      -32.6461396465  W2        4693            0.0000000000
     14078      4693  TIP3      H1             22.4573333595        7.0047777139      -33.2310496465  W2        4693            0.0000000000
     14079      4693  TIP3      H2             21.2658033595        6.9440777139      -32.2991296465  W2        4693            0.0000000000
     14080      4694  TIP3      OH2            32.1519733595        9.9522677139      -22.5735596465  W2        4694            0.0000000000
     14081      4694  TIP3      H1             32.4754533595        9.3212377139      -23.2165096465  W2        4694            0.0000000000
     14082      4694  TIP3      H2             31.7119033595        9.4174877139      -21.9128196465  W2        4694            0.0000000000
     14083      4695  TIP3      OH2            28.9292633595        5.8798177139      -27.7894396465  W2        4695            0.0000000000
     14084      4695  TIP3      H1             28.0183733595        5.9364977139      -27.5008396465  W2        4695            0.0000000000
     14085      4695  TIP3      H2             29.4345533595        5.8193677139      -26.9787196465  W2        4695            0.0000000000
     14086      4696  TIP3      OH2            23.7576033595        7.5084477139      -28.9626796465  W2        4696            0.0000000000
     14087      4696  TIP3      H1             22.8684033595        7.6079977139      -29.3027196465  W2        4696            0.0000000000
     14088      4696  TIP3      H2             24.0540933595        6.6667477139      -29.3088896465  W2        4696            0.0000000000
     14089      4697  TIP3      OH2            27.4107833595        7.5087077139      -31.3062196465  W2        4697            0.0000000000
     14090      4697  TIP3      H1             28.3423333595        7.6377077139      -31.1279096465  W2        4697            0.0000000000
     14091      4697  TIP3      H2             27.1958133595        8.1781377139      -31.9557496465  W2        4697            0.0000000000
     14092      4698  TIP3      OH2            33.3344533595        5.1144477139      -24.5252596465  W2        4698            0.0000000000
     14093      4698  TIP3      H1             32.6576133595        5.2457577139      -23.8612896465  W2        4698            0.0000000000
     14094      4698  TIP3      H2             32.8489433595        4.9593977139      -25.3354896465  W2        4698            0.0000000000
     14095      4699  TIP3      OH2            26.0848033595        8.7029277139      -33.7396096465  W2        4699            0.0000000000
     14096      4699  TIP3      H1             25.5423133595        8.3233077139      -34.4308496465  W2        4699            0.0000000000
     14097      4699  TIP3      H2             26.9182933595        8.8973977139      -34.1681996465  W2        4699            0.0000000000
     14098      4700  TIP3      OH2            36.6219633595       20.7859877139      -18.2484996465  W2        4700            0.0000000000
     14099      4700  TIP3      H1             36.8218333595       21.2101777139      -19.0829696465  W2        4700            0.0000000000
     14100      4700  TIP3      H2             37.2773333595       21.1298077139      -17.6414596465  W2        4700            0.0000000000
     14101      4701  TIP3      OH2            24.2199433595       13.2601177139      -18.6404496465  W2        4701            0.0000000000
     14102      4701  TIP3      H1             24.9521833595       13.5147077139      -18.0789996465  W2        4701            0.0000000000
     14103      4701  TIP3      H2             23.4398133595       13.4646577139      -18.1249096465  W2        4701            0.0000000000
     14104      4702  TIP3      OH2            30.2492333595        8.6671177139      -25.9024796465  W2        4702            0.0000000000
     14105      4702  TIP3      H1             30.8135733595        8.1207777139      -26.4495196465  W2        4702            0.0000000000
     14106      4702  TIP3      H2             30.1015733595        8.1453077139      -25.1137196465  W2        4702            0.0000000000
     14107      4703  TIP3      OH2            25.2512033595        4.8037277139      -29.4839996465  W2        4703            0.0000000000
     14108      4703  TIP3      H1             24.9341533595        3.9012577139      -29.5194596465  W2        4703            0.0000000000
     14109      4703  TIP3      H2             26.0326133595        4.8054677139      -30.0368396465  W2        4703            0.0000000000
     14110      4704  TIP3      OH2            28.8758233595        7.0557277139      -23.4884396465  W2        4704            0.0000000000
     14111      4704  TIP3      H1             28.0403533595        7.5096777139      -23.3781996465  W2        4704            0.0000000000
     14112      4704  TIP3      H2             29.3998833595        7.3315777139      -22.7364496465  W2        4704            0.0000000000
     14113      4705  TIP3      OH2            29.4200833595       13.2684977139      -31.8037996465  W2        4705            0.0000000000
     14114      4705  TIP3      H1             28.6751833595       12.7610277139      -32.1260096465  W2        4705            0.0000000000
     14115      4705  TIP3      H2             29.2858033595       13.3172977139      -30.8573196465  W2        4705            0.0000000000
     14116      4706  TIP3      OH2            36.5699733595       12.4013177139      -23.0170396465  W2        4706            0.0000000000
     14117      4706  TIP3      H1             37.2118533595       12.8579477139      -23.5608196465  W2        4706            0.0000000000
     14118      4706  TIP3      H2             35.7396633595       12.5145577139      -23.4796296465  W2        4706            0.0000000000
     14119      4707  TIP3      OH2            33.3177633595        6.0824877139      -33.6045396465  W2        4707            0.0000000000
     14120      4707  TIP3      H1             32.3791833595        6.1940477139      -33.7556596465  W2        4707            0.0000000000
     14121      4707  TIP3      H2             33.6149733595        6.9391777139      -33.2979696465  W2        4707            0.0000000000
     14122      4708  TIP3      OH2            30.9392933595       13.4528277139      -20.5668896465  W2        4708            0.0000000000
     14123      4708  TIP3      H1             30.5939033595       13.0710677139      -19.7599296465  W2        4708            0.0000000000
     14124      4708  TIP3      H2             30.7393033595       14.3861877139      -20.4955996465  W2        4708            0.0000000000
     14125      4709  TIP3      OH2            34.0361133595        7.9497577139      -31.9437996465  W2        4709            0.0000000000
     14126      4709  TIP3      H1             34.9280133595        7.8122577139      -31.6246796465  W2        4709            0.0000000000
     14127      4709  TIP3      H2             34.0924733595        8.7403677139      -32.4804496465  W2        4709            0.0000000000
     14128      4710  TIP3      OH2            24.5449133595       12.5634977139      -26.0340096465  W2        4710            0.0000000000
     14129      4710  TIP3      H1             25.2896333595       12.5610677139      -26.6353596465  W2        4710            0.0000000000
     14130      4710  TIP3      H2             24.6225733595       11.7398777139      -25.5524996465  W2        4710            0.0000000000
     14131      4711  TIP3      OH2            31.5454933595       14.7269277139      -32.7783396465  W2        4711            0.0000000000
     14132      4711  TIP3      H1             31.2503333595       15.5537177139      -32.3968596465  W2        4711            0.0000000000
     14133      4711  TIP3      H2             30.8424933595       14.1076177139      -32.5821996465  W2        4711            0.0000000000
     14134      4712  TIP3      OH2            21.5528833595       11.0241877139      -20.7191596465  W2        4712            0.0000000000
     14135      4712  TIP3      H1             21.7757433595       10.6061477139      -19.8874096465  W2        4712            0.0000000000
     14136      4712  TIP3      H2             20.9508933595       10.4116877139      -21.1418796465  W2        4712            0.0000000000
     14137      4713  TIP3      OH2            28.5693733595       10.5411777139      -18.5061896465  W2        4713            0.0000000000
     14138      4713  TIP3      H1             28.2734533595       10.3754777139      -19.4012796465  W2        4713            0.0000000000
     14139      4713  TIP3      H2             29.5008933595       10.3212077139      -18.5167996465  W2        4713            0.0000000000
     14140      4714  TIP3      OH2            33.1896533595       15.9143777139      -20.6163896465  W2        4714            0.0000000000
     14141      4714  TIP3      H1             32.2890833595       16.0976377139      -20.8839996465  W2        4714            0.0000000000
     14142      4714  TIP3      H2             33.2237633595       16.1733077139      -19.6955096465  W2        4714            0.0000000000
     14143      4715  TIP3      OH2            38.9209833595        8.1591677139      -32.2491296465  W2        4715            0.0000000000
     14144      4715  TIP3      H1             38.3666133595        7.7629677139      -32.9213796465  W2        4715            0.0000000000
     14145      4715  TIP3      H2             39.0213433595        9.0696877139      -32.5267996465  W2        4715            0.0000000000
     14146      4716  TIP3      OH2            38.8841833595       13.9593377139      -19.4119796465  W2        4716            0.0000000000
     14147      4716  TIP3      H1             38.0330333595       14.1977177139      -19.7793396465  W2        4716            0.0000000000
     14148      4716  TIP3      H2             39.4745233595       13.9426577139      -20.1652696465  W2        4716            0.0000000000
     14149      4717  TIP3      OH2            37.2161533595       16.9452077139      -31.7839196465  W2        4717            0.0000000000
     14150      4717  TIP3      H1             36.8432633595       16.1195877139      -31.4748596465  W2        4717            0.0000000000
     14151      4717  TIP3      H2             37.4935033595       16.7621477139      -32.6815796465  W2        4717            0.0000000000
     14152      4718  TIP3      OH2            34.3765433595       11.7531577139      -24.7627296465  W2        4718            0.0000000000
     14153      4718  TIP3      H1             33.4482333595       11.5213477139      -24.7897996465  W2        4718            0.0000000000
     14154      4718  TIP3      H2             34.8276533595       10.9761377139      -25.0928496465  W2        4718            0.0000000000
     14155      4719  TIP3      OH2            26.9198533595       16.0813177139      -28.6298596465  W2        4719            0.0000000000
     14156      4719  TIP3      H1             27.4470733595       16.8547577139      -28.8299796465  W2        4719            0.0000000000
     14157      4719  TIP3      H2             26.0397033595       16.3062377139      -28.9314596465  W2        4719            0.0000000000
     14158      4720  TIP3      OH2            22.6746233595       10.9437277139      -34.0426196465  W2        4720            0.0000000000
     14159      4720  TIP3      H1             23.2906133595       11.5704477139      -33.6631396465  W2        4720            0.0000000000
     14160      4720  TIP3      H2             21.8128833595       11.2597077139      -33.7709696465  W2        4720            0.0000000000
     14161      4721  TIP3      OH2            28.3470833595       13.7443077139      -29.0534296465  W2        4721            0.0000000000
     14162      4721  TIP3      H1             28.1060833595       14.6697477139      -29.0118996465  W2        4721            0.0000000000
     14163      4721  TIP3      H2             27.6064433595       13.2854377139      -28.6570396465  W2        4721            0.0000000000
     14164      4722  TIP3      OH2            28.8617433595       17.8936677139      -22.7383196465  W2        4722            0.0000000000
     14165      4722  TIP3      H1             29.2242133595       18.7482277139      -22.9718796465  W2        4722            0.0000000000
     14166      4722  TIP3      H2             29.3932633595       17.6018277139      -21.9976896465  W2        4722            0.0000000000
     14167      4723  TIP3      OH2            27.0301633595       18.7660677139      -29.5082096465  W2        4723            0.0000000000
     14168      4723  TIP3      H1             26.0802133595       18.8718077139      -29.4568796465  W2        4723            0.0000000000
     14169      4723  TIP3      H2             27.3819733595       19.5868077139      -29.1634596465  W2        4723            0.0000000000
     14170      4724  TIP3      OH2            32.4058233595       13.9927377139      -23.0377596465  W2        4724            0.0000000000
     14171      4724  TIP3      H1             31.9799533595       13.7649077139      -22.2113596465  W2        4724            0.0000000000
     14172      4724  TIP3      H2             32.9864033595       13.2539177139      -23.2202296465  W2        4724            0.0000000000
     14173      4725  TIP3      OH2            34.6087133595       14.9217877139      -33.9638596465  W2        4725            0.0000000000
     14174      4725  TIP3      H1             34.9620233595       14.5417677139      -33.1595096465  W2        4725            0.0000000000
     14175      4725  TIP3      H2             33.6600633595       14.8282677139      -33.8769296465  W2        4725            0.0000000000
     14176      4726  TIP3      OH2            35.0642433595       18.5446877139      -20.5682796465  W2        4726            0.0000000000
     14177      4726  TIP3      H1             34.4625633595       17.9889777139      -21.0636496465  W2        4726            0.0000000000
     14178      4726  TIP3      H2             35.3456133595       19.2116677139      -21.1945396465  W2        4726            0.0000000000
     14179      4727  TIP3      OH2            39.1121533595       19.4010377139      -33.7628396465  W2        4727            0.0000000000
     14180      4727  TIP3      H1             39.8559433595       19.9870877139      -33.9026796465  W2        4727            0.0000000000
     14181      4727  TIP3      H2             38.4179633595       19.9696177139      -33.4295996465  W2        4727            0.0000000000
     14182      4728  TIP3      OH2            23.1868333595        5.7774577139      -21.1610196465  W2        4728            0.0000000000
     14183      4728  TIP3      H1             22.2940633595        6.1159977139      -21.2286196465  W2        4728            0.0000000000
     14184      4728  TIP3      H2             23.0881133595        4.9220677139      -20.7429396465  W2        4728            0.0000000000
     14185      4729  TIP3      OH2            35.4746433595       13.5939877139      -31.7370696465  W2        4729            0.0000000000
     14186      4729  TIP3      H1             35.1974033595       12.8659177139      -31.1809596465  W2        4729            0.0000000000
     14187      4729  TIP3      H2             36.4019433595       13.7131877139      -31.5318096465  W2        4729            0.0000000000
     14188      4730  TIP3      OH2            22.8380333595       17.5818977139      -22.7260796465  W2        4730            0.0000000000
     14189      4730  TIP3      H1             23.0550633595       16.6501377139      -22.7571096465  W2        4730            0.0000000000
     14190      4730  TIP3      H2             23.0843833595       17.8563977139      -21.8427996465  W2        4730            0.0000000000
     14191      4731  TIP3      OH2            28.6994933595       16.0333977139      -35.5168596465  W2        4731            0.0000000000
     14192      4731  TIP3      H1             28.9384733595       15.2852077139      -36.0639696465  W2        4731            0.0000000000
     14193      4731  TIP3      H2             28.4306233595       15.6455677139      -34.6840796465  W2        4731            0.0000000000
     14194      4732  TIP3      OH2            27.6365533595       15.6037777139      -33.0605996465  W2        4732            0.0000000000
     14195      4732  TIP3      H1             27.7833533595       15.0837577139      -32.2705096465  W2        4732            0.0000000000
     14196      4732  TIP3      H2             27.6337233595       16.5105377139      -32.7540096465  W2        4732            0.0000000000
     14197      4733  TIP3      OH2            24.0896633595       12.8561077139      -32.5500596465  W2        4733            0.0000000000
     14198      4733  TIP3      H1             23.4035933595       13.2083577139      -31.9830896465  W2        4733            0.0000000000
     14199      4733  TIP3      H2             24.6124533595       13.6190677139      -32.7966296465  W2        4733            0.0000000000
     14200      4734  TIP3      OH2            31.9211733595        5.5184877139      -22.2711596465  W2        4734            0.0000000000
     14201      4734  TIP3      H1             32.6199633595        5.5923577139      -21.6211896465  W2        4734            0.0000000000
     14202      4734  TIP3      H2             31.5403133595        4.6539877139      -22.1168696465  W2        4734            0.0000000000
     14203      4735  TIP3      OH2            32.7056633595        5.1706577139      -31.1739296465  W2        4735            0.0000000000
     14204      4735  TIP3      H1             32.9254933595        5.6421977139      -31.9773896465  W2        4735            0.0000000000
     14205      4735  TIP3      H2             33.2640633595        5.5649177139      -30.5038696465  W2        4735            0.0000000000
     14206      4736  TIP3      OH2            30.3742733595       17.3011377139      -32.3111796465  W2        4736            0.0000000000
     14207      4736  TIP3      H1             29.5578833595       17.7981077139      -32.2587496465  W2        4736            0.0000000000
     14208      4736  TIP3      H2             30.9039033595       17.7764877139      -32.9512996465  W2        4736            0.0000000000
     14209      4737  TIP3      OH2            29.9056533595        6.8985377139      -30.3390896465  W2        4737            0.0000000000
     14210      4737  TIP3      H1             30.7179133595        7.4028577139      -30.2929196465  W2        4737            0.0000000000
     14211      4737  TIP3      H2             29.6609533595        6.7535077139      -29.4251296465  W2        4737            0.0000000000
     14212      4738  TIP3      OH2            30.4412933595        7.8848077139      -21.1544296465  W2        4738            0.0000000000
     14213      4738  TIP3      H1             30.5603233595        8.4583477139      -20.3973896465  W2        4738            0.0000000000
     14214      4738  TIP3      H2             31.0967533595        7.1967477139      -21.0396496465  W2        4738            0.0000000000
     14215      4739  TIP3      OH2            30.7893233595        3.9798377139      -29.4009796465  W2        4739            0.0000000000
     14216      4739  TIP3      H1             30.4426733595        4.5968977139      -28.7565496465  W2        4739            0.0000000000
     14217      4739  TIP3      H2             31.4480133595        4.4804077139      -29.8824296465  W2        4739            0.0000000000
     14218      4740  TIP3      OH2            27.7125833595       18.3448577139      -32.3294896465  W2        4740            0.0000000000
     14219      4740  TIP3      H1             27.8734533595       19.1446077139      -32.8302296465  W2        4740            0.0000000000
     14220      4740  TIP3      H2             27.5153633595       18.6514577139      -31.4444296465  W2        4740            0.0000000000
     14221      4741  TIP3      OH2            26.4470233595        5.0427777139      -32.7137296465  W2        4741            0.0000000000
     14222      4741  TIP3      H1             26.3635033595        5.9310877139      -32.3670896465  W2        4741            0.0000000000
     14223      4741  TIP3      H2             27.3370533595        4.7774477139      -32.4820496465  W2        4741            0.0000000000
     14224      4742  TIP3      OH2            36.6458733595        5.7918377139      -20.3194596465  W2        4742            0.0000000000
     14225      4742  TIP3      H1             35.7294533595        6.0540077139      -20.4070896465  W2        4742            0.0000000000
     14226      4742  TIP3      H2             36.9813733595        5.7887377139      -21.2159296465  W2        4742            0.0000000000
     14227      4743  TIP3      OH2            35.2479733595        9.5419377139      -26.2237296465  W2        4743            0.0000000000
     14228      4743  TIP3      H1             34.4504133595        9.1269577139      -26.5522296465  W2        4743            0.0000000000
     14229      4743  TIP3      H2             35.6930833595        8.8513077139      -25.7326796465  W2        4743            0.0000000000
     14230      4744  TIP3      OH2            24.7055533595       15.4699977139      -33.6532796465  W2        4744            0.0000000000
     14231      4744  TIP3      H1             25.2977033595       16.1694777139      -33.3770396465  W2        4744            0.0000000000
     14232      4744  TIP3      H2             25.1648533595       15.0369477139      -34.3728196465  W2        4744            0.0000000000
     14233      4745  TIP3      OH2            23.0214733595        8.1342977139      -34.5373396465  W2        4745            0.0000000000
     14234      4745  TIP3      H1             22.9767333595        9.0736077139      -34.3586396465  W2        4745            0.0000000000
     14235      4745  TIP3      H2             22.1337933595        7.8987877139      -34.8071296465  W2        4745            0.0000000000
     14236      4746  TIP3      OH2            36.3344333595       18.7981877139      -24.6013796465  W2        4746            0.0000000000
     14237      4746  TIP3      H1             36.1788633595       19.4766277139      -25.2584496465  W2        4746            0.0000000000
     14238      4746  TIP3      H2             37.2670733595       18.8701177139      -24.3983196465  W2        4746            0.0000000000
     14239      4747  TIP3      OH2            23.8296733595        2.9159577139      -25.8642396465  W2        4747            0.0000000000
     14240      4747  TIP3      H1             23.6006533595        2.9752077139      -26.7917396465  W2        4747            0.0000000000
     14241      4747  TIP3      H2             23.3870133595        2.1245077139      -25.5578296465  W2        4747            0.0000000000
     14242      4748  TIP3      OH2            22.7600033595       16.8566677139      -29.7036596465  W2        4748            0.0000000000
     14243      4748  TIP3      H1             21.9278633595       17.3289377139      -29.6765196465  W2        4748            0.0000000000
     14244      4748  TIP3      H2             23.3058333595       17.3664277139      -30.3023496465  W2        4748            0.0000000000
     14245      4749  TIP3      OH2            22.0483733595       19.4690377139      -18.3738596465  W2        4749            0.0000000000
     14246      4749  TIP3      H1             22.5885933595       19.2524377139      -17.6139396465  W2        4749            0.0000000000
     14247      4749  TIP3      H2             21.5671733595       18.6636377139      -18.5636096465  W2        4749            0.0000000000
     14248      4750  TIP3      OH2            26.6457133595       18.3884777139      -16.7534396465  W2        4750            0.0000000000
     14249      4750  TIP3      H1             27.4134333595       17.9295577139      -16.4125196465  W2        4750            0.0000000000
     14250      4750  TIP3      H2             26.6243333595       18.1624577139      -17.6833196465  W2        4750            0.0000000000
     14251      4751  TIP3      OH2            30.7376733595       17.8965377139      -35.3782596465  W2        4751            0.0000000000
     14252      4751  TIP3      H1             30.0937733595       17.2653977139      -35.0568896465  W2        4751            0.0000000000
     14253      4751  TIP3      H2             31.4995033595       17.3653377139      -35.6099096465  W2        4751            0.0000000000
     14254      4752  TIP3      OH2            33.2225833595       16.7685877139      -18.0242896465  W2        4752            0.0000000000
     14255      4752  TIP3      H1             32.8715333595       15.9118877139      -17.7812496465  W2        4752            0.0000000000
     14256      4752  TIP3      H2             33.9489033595       16.9112577139      -17.4173896465  W2        4752            0.0000000000
     14257      4753  TIP3      OH2            35.3419633595       17.7135277139      -35.1444596465  W2        4753            0.0000000000
     14258      4753  TIP3      H1             35.6250033595       16.9190477139      -34.6917696465  W2        4753            0.0000000000
     14259      4753  TIP3      H2             36.0817533595       17.9466277139      -35.7053496465  W2        4753            0.0000000000
     14260      4754  TIP3      OH2            21.9553233595       13.2794477139      -17.4194296465  W2        4754            0.0000000000
     14261      4754  TIP3      H1             22.0993733595       12.3775177139      -17.7057596465  W2        4754            0.0000000000
     14262      4754  TIP3      H2             21.1830633595       13.5656577139      -17.9071996465  W2        4754            0.0000000000
     14263      4755  TIP3      OH2            26.2966933595       13.6230177139      -35.2869696465  W2        4755            0.0000000000
     14264      4755  TIP3      H1             26.3611033595       12.8289777139      -34.7563296465  W2        4755            0.0000000000
     14265      4755  TIP3      H2             26.9496133595       13.5042977139      -35.9767696465  W2        4755            0.0000000000
     14266      4756  TIP3      OH2            28.6109333595       13.2492577139      -17.9867896465  W2        4756            0.0000000000
     14267      4756  TIP3      H1             28.2823133595       13.5200677139      -18.8440496465  W2        4756            0.0000000000
     14268      4756  TIP3      H2             28.7627533595       12.3082377139      -18.0742896465  W2        4756            0.0000000000
     14269      4757  TIP3      OH2            31.6490333595       14.6701877139      -35.5511696465  W2        4757            0.0000000000
     14270      4757  TIP3      H1             31.3804433595       14.8503977139      -34.6502796465  W2        4757            0.0000000000
     14271      4757  TIP3      H2             31.4425933595       13.7448077139      -35.6825896465  W2        4757            0.0000000000
     14272      4758  TIP3      OH2            34.3454533595       13.1649877139      -20.6035596465  W2        4758            0.0000000000
     14273      4758  TIP3      H1             35.0909333595       13.7533577139      -20.7231596465  W2        4758            0.0000000000
     14274      4758  TIP3      H2             33.5881333595       13.7469577139      -20.5402496465  W2        4758            0.0000000000
     14275      4759  TIP3      OH2            22.7879733595       10.4797777139      -17.9994996465  W2        4759            0.0000000000
     14276      4759  TIP3      H1             23.1960933595        9.6224377139      -18.1204396465  W2        4759            0.0000000000
     14277      4759  TIP3      H2             22.5277333595       10.4939077139      -17.0784696465  W2        4759            0.0000000000
     14278      4760  TIP3      OH2            27.4460733595       11.5956377139      -32.9811696465  W2        4760            0.0000000000
     14279      4760  TIP3      H1             26.9862733595       11.1114677139      -32.2953196465  W2        4760            0.0000000000
     14280      4760  TIP3      H2             27.7009433595       10.9271777139      -33.6171196465  W2        4760            0.0000000000
     14281      4761  TIP3      OH2            26.7350033595        9.4883477139      -20.6252096465  W2        4761            0.0000000000
     14282      4761  TIP3      H1             26.1166133595       10.1630077139      -20.3447396465  W2        4761            0.0000000000
     14283      4761  TIP3      H2             27.0791233595        9.8097377139      -21.4585896465  W2        4761            0.0000000000
     14284      4762  TIP3      OH2            28.5171133595        9.8388177139      -34.7188496465  W2        4762            0.0000000000
     14285      4762  TIP3      H1             28.3366133595        9.6839377139      -35.6460196465  W2        4762            0.0000000000
     14286      4762  TIP3      H2             29.4671633595        9.9466877139      -34.6740596465  W2        4762            0.0000000000
     14287      4763  TIP3      OH2            31.7548233595       11.9598777139      -17.3477296465  W2        4763            0.0000000000
     14288      4763  TIP3      H1             32.7079433595       12.0437877139      -17.3751296465  W2        4763            0.0000000000
     14289      4763  TIP3      H2             31.5942833595       11.2480577139      -16.7282396465  W2        4763            0.0000000000
     14290      4764  TIP3      OH2            37.9069433595       12.1932377139      -35.2730396465  W2        4764            0.0000000000
     14291      4764  TIP3      H1             37.6334233595       11.7687877139      -36.0862096465  W2        4764            0.0000000000
     14292      4764  TIP3      H2             37.9463533595       13.1246877139      -35.4899996465  W2        4764            0.0000000000
     14293      4765  TIP3      OH2            27.0743733595        6.8434277139      -19.5428996465  W2        4765            0.0000000000
     14294      4765  TIP3      H1             27.2244633595        6.1145577139      -20.1449296465  W2        4765            0.0000000000
     14295      4765  TIP3      H2             27.0766133595        7.6205977139      -20.1016796465  W2        4765            0.0000000000
     14296      4766  TIP3      OH2            27.4869433595        5.2130077139      -22.0501596465  W2        4766            0.0000000000
     14297      4766  TIP3      H1             28.0226933595        5.6646777139      -22.7022296465  W2        4766            0.0000000000
     14298      4766  TIP3      H2             26.6349033595        5.1049877139      -22.4727496465  W2        4766            0.0000000000
     14299      4767  TIP3      OH2            29.0687833595       10.6526277139      -21.8106396465  W2        4767            0.0000000000
     14300      4767  TIP3      H1             29.8192633595       10.4963777139      -22.3838596465  W2        4767            0.0000000000
     14301      4767  TIP3      H2             28.7296133595       11.5042877139      -22.0860896465  W2        4767            0.0000000000
     14302      4768  TIP3      OH2            33.4844033595        8.4678077139      -16.7821096465  W2        4768            0.0000000000
     14303      4768  TIP3      H1             33.6765333595        7.5367477139      -16.8936596465  W2        4768            0.0000000000
     14304      4768  TIP3      H2             34.3420333595        8.8927577139      -16.7925696465  W2        4768            0.0000000000
     14305      4769  TIP3      OH2            34.8011233595       11.2563277139      -18.7048396465  W2        4769            0.0000000000
     14306      4769  TIP3      H1             34.5196233595       11.9657877139      -19.2824596465  W2        4769            0.0000000000
     14307      4769  TIP3      H2             35.7435533595       11.1836277139      -18.8557196465  W2        4769            0.0000000000
     14308      4770  TIP3      OH2            25.5530033595        8.0417777139      -17.6313396465  W2        4770            0.0000000000
     14309      4770  TIP3      H1             24.7859033595        7.5092577139      -17.8415796465  W2        4770            0.0000000000
     14310      4770  TIP3      H2             26.2319033595        7.7318177139      -18.2307096465  W2        4770            0.0000000000
     14311      4771  TIP3      OH2            28.2924933595        2.6695777139      -21.6187996465  W2        4771            0.0000000000
     14312      4771  TIP3      H1             28.1944533595        3.6158977139      -21.7241796465  W2        4771            0.0000000000
     14313      4771  TIP3      H2             27.5501133595        2.2969577139      -22.0944496465  W2        4771            0.0000000000
     14314      4772  TIP3      OH2            29.5565433595        6.9911177139      -18.0549596465  W2        4772            0.0000000000
     14315      4772  TIP3      H1             29.3210833595        6.7717877139      -17.1534696465  W2        4772            0.0000000000
     14316      4772  TIP3      H2             28.7732333595        6.7842377139      -18.5647096465  W2        4772            0.0000000000
     14317      4773  TIP3      OH2            32.2722033595        6.1184677139      -18.9796096465  W2        4773            0.0000000000
     14318      4773  TIP3      H1             31.3247433595        6.1504377139      -18.8472796465  W2        4773            0.0000000000
     14319      4773  TIP3      H2             32.5848733595        5.4931777139      -18.3257896465  W2        4773            0.0000000000
     14320      4774  TIP3      OH2            33.9063533595        4.7525777139      -16.9744196465  W2        4774            0.0000000000
     14321      4774  TIP3      H1             33.8095333595        3.8003077139      -16.9802296465  W2        4774            0.0000000000
     14322      4774  TIP3      H2             33.5846633595        5.0212577139      -16.1138696465  W2        4774            0.0000000000
     14323      4775  TIP3      OH2            23.7332833595        5.9621577139      -17.9268696465  W2        4775            0.0000000000
     14324      4775  TIP3      H1             23.9450233595        5.2557677139      -18.5371196465  W2        4775            0.0000000000
     14325      4775  TIP3      H2             23.6220333595        5.5247577139      -17.0827496465  W2        4775            0.0000000000
     14326      4776  TIP3      OH2            28.5143033595        1.9633177139      -18.9475196465  W2        4776            0.0000000000
     14327      4776  TIP3      H1             29.2261433595        1.3235377139      -18.9616096465  W2        4776            0.0000000000
     14328      4776  TIP3      H2             28.4133433595        2.2301477139      -19.8612096465  W2        4776            0.0000000000
     14329      4777  TIP3      OH2            28.8680533595        3.6461577139      -16.8938896465  W2        4777            0.0000000000
     14330      4777  TIP3      H1             28.7362733595        3.1705377139      -17.7140396465  W2        4777            0.0000000000
     14331      4777  TIP3      H2             28.2687933595        4.3905177139      -16.9491796465  W2        4777            0.0000000000
     14332      4778  TIP3      OH2            28.4142833595       20.5291877139      -33.7174896465  W2        4778            0.0000000000
     14333      4778  TIP3      H1             29.3473533595       20.6870577139      -33.5736496465  W2        4778            0.0000000000
     14334      4778  TIP3      H2             28.1501633595       21.2044877139      -34.3423396465  W2        4778            0.0000000000
     14335      4779  TIP3      OH2            21.9827733595       15.1655677139      -34.2346796465  W2        4779            0.0000000000
     14336      4779  TIP3      H1             22.8966933595       15.2444577139      -33.9612896465  W2        4779            0.0000000000
     14337      4779  TIP3      H2             21.9900833595       14.4785277139      -34.9011196465  W2        4779            0.0000000000
     14338      4780  TIP3      OH2            20.6318333595       20.5584177139      -29.1572896465  W2        4780            0.0000000000
     14339      4780  TIP3      H1             19.9845433595       20.0965877139      -29.6901696465  W2        4780            0.0000000000
     14340      4780  TIP3      H2             20.9862933595       19.8867477139      -28.5746696465  W2        4780            0.0000000000
     14341      4781  TIP3      OH2            21.5017533595       18.6391177139      -27.3526696465  W2        4781            0.0000000000
     14342      4781  TIP3      H1             21.1674333595       17.7588477139      -27.1806496465  W2        4781            0.0000000000
     14343      4781  TIP3      H2             21.7239933595       18.9846177139      -26.4881096465  W2        4781            0.0000000000
     14344      4782  TIP3      OH2            39.0502333595       19.4487577139      -24.3721896465  W2        4782            0.0000000000
     14345      4782  TIP3      H1             39.0289033595       19.6335977139      -23.4332496465  W2        4782            0.0000000000
     14346      4782  TIP3      H2             39.7408533595       20.0171577139      -24.7130496465  W2        4782            0.0000000000
     14347      4783  TIP3      OH2            38.6135233595       19.0158677139      -21.4502796465  W2        4783            0.0000000000
     14348      4783  TIP3      H1             38.1263933595       18.2802777139      -21.8215396465  W2        4783            0.0000000000
     14349      4783  TIP3      H2             39.1627933595       18.6222577139      -20.7723396465  W2        4783            0.0000000000
     14350      4784  TIP3      OH2            37.0642533595       14.8056777139      -16.8122496465  W2        4784            0.0000000000
     14351      4784  TIP3      H1             36.1983633595       14.7006477139      -16.4180196465  W2        4784            0.0000000000
     14352      4784  TIP3      H2             37.4408433595       15.5640077139      -16.3657796465  W2        4784            0.0000000000
     14353      4785  TIP3      OH2            38.3652233595       13.0620477139      -31.2979996465  W2        4785            0.0000000000
     14354      4785  TIP3      H1             39.2153633595       13.4831377139      -31.1708396465  W2        4785            0.0000000000
     14355      4785  TIP3      H2             38.3707333595       12.3220577139      -30.6908596465  W2        4785            0.0000000000
     14356      4786  TIP3      OH2            38.7597833595       11.1157877139      -29.4744296465  W2        4786            0.0000000000
     14357      4786  TIP3      H1             38.0332433595       10.6360477139      -29.0766696465  W2        4786            0.0000000000
     14358      4786  TIP3      H2             39.3411133595       11.3212577139      -28.7422696465  W2        4786            0.0000000000
     14359      4787  TIP3      OH2            38.5189033595       13.9005377139      -24.5266696465  W2        4787            0.0000000000
     14360      4787  TIP3      H1             39.3523233595       13.5225377139      -24.8073096465  W2        4787            0.0000000000
     14361      4787  TIP3      H2             38.6309333595       14.8436577139      -24.6457596465  W2        4787            0.0000000000
     14362      4788  TIP3      OH2            37.0051333595       16.7782877139      -22.2198296465  W2        4788            0.0000000000
     14363      4788  TIP3      H1             36.3576633595       17.1034377139      -21.5943096465  W2        4788            0.0000000000
     14364      4788  TIP3      H2             36.4875333595       16.3380577139      -22.8939996465  W2        4788            0.0000000000
     14365      4789  TIP3      OH2            39.0280933595       11.0166377139      -33.0832996465  W2        4789            0.0000000000
     14366      4789  TIP3      H1             38.5062033595       11.3730477139      -33.8022096465  W2        4789            0.0000000000
     14367      4789  TIP3      H2             38.9950133595       11.6914177139      -32.4052096465  W2        4789            0.0000000000
     14368      4790  TIP3      OH2            37.3769933595        8.2561977139      -34.5325896465  W2        4790            0.0000000000
     14369      4790  TIP3      H1             37.4734333595        8.9228977139      -35.2126196465  W2        4790            0.0000000000
     14370      4790  TIP3      H2             37.2369533595        7.4408277139      -35.0140396465  W2        4790            0.0000000000
     14371      4791  TIP3      OH2            36.5464633595        9.6364377139      -28.9115596465  W2        4791            0.0000000000
     14372      4791  TIP3      H1             36.3963433595        8.6912977139      -28.9317796465  W2        4791            0.0000000000
     14373      4791  TIP3      H2             36.1929133595        9.9175777139      -28.0676496465  W2        4791            0.0000000000
     14374      4792  TIP3      OH2            21.5817033595       11.7146577139      -24.9011796465  W2        4792            0.0000000000
     14375      4792  TIP3      H1             21.7659933595       11.6328277139      -25.8368896465  W2        4792            0.0000000000
     14376      4792  TIP3      H2             22.4309933595       11.5903577139      -24.4775396465  W2        4792            0.0000000000
     14377      4793  TIP3      OH2            37.4027533595       11.6067677139      -19.2727296465  W2        4793            0.0000000000
     14378      4793  TIP3      H1             37.9854833595       10.8719977139      -19.0810096465  W2        4793            0.0000000000
     14379      4793  TIP3      H2             37.9666833595       12.3787977139      -19.2261496465  W2        4793            0.0000000000
     14380      4794  TIP3      OH2            38.8994633595        9.5093477139      -18.5881896465  W2        4794            0.0000000000
     14381      4794  TIP3      H1             38.0361333595        9.1305577139      -18.7537196465  W2        4794            0.0000000000
     14382      4794  TIP3      H2             39.5038333595        8.7708277139      -18.6626096465  W2        4794            0.0000000000
     14383      4795  TIP3      OH2            36.6243733595        5.6641777139      -35.4150396465  W2        4795            0.0000000000
     14384      4795  TIP3      H1             37.2349533595        5.2928577139      -34.7782196465  W2        4795            0.0000000000
     14385      4795  TIP3      H2             35.7875233595        5.2428677139      -35.2190396465  W2        4795            0.0000000000
     14386      4796  TIP3      OH2            36.2569433595        7.2190177139      -30.4490496465  W2        4796            0.0000000000
     14387      4796  TIP3      H1             36.5366533595        6.3120577139      -30.3248796465  W2        4796            0.0000000000
     14388      4796  TIP3      H2             37.0161133595        7.6531677139      -30.8381296465  W2        4796            0.0000000000
     14389      4797  TIP3      OH2            36.8687733595        7.8007577139      -25.0131596465  W2        4797            0.0000000000
     14390      4797  TIP3      H1             37.8015733595        8.0127477139      -25.0475596465  W2        4797            0.0000000000
     14391      4797  TIP3      H2             36.6335233595        7.9019677139      -24.0908596465  W2        4797            0.0000000000
     14392      4798  TIP3      OH2            36.8979633595        8.5372877139      -22.2372196465  W2        4798            0.0000000000
     14393      4798  TIP3      H1             36.0550933595        8.8053277139      -21.8712396465  W2        4798            0.0000000000
     14394      4798  TIP3      H2             37.3403933595        9.3594777139      -22.4481096465  W2        4798            0.0000000000
     14395      4799  TIP3      OH2            21.1791833595        6.9851577139      -18.7602996465  W2        4799            0.0000000000
     14396      4799  TIP3      H1             22.0986733595        6.8629877139      -18.5239896465  W2        4799            0.0000000000
     14397      4799  TIP3      H2             20.7296333595        6.2351277139      -18.3709496465  W2        4799            0.0000000000
     14398      4800  TIP3      OH2            39.1811233595        2.5173077139      -16.8837196465  W2        4800            0.0000000000
     14399      4800  TIP3      H1             39.5308233595        1.8636577139      -17.4892496465  W2        4800            0.0000000000
     14400      4800  TIP3      H2             39.3280733595        3.3547177139      -17.3234596465  W2        4800            0.0000000000
     14401      4801  TIP3      OH2            36.8704233595        4.4819477139      -30.4008496465  W2        4801            0.0000000000
     14402      4801  TIP3      H1             37.0529233595        4.0330977139      -29.5753496465  W2        4801            0.0000000000
     14403      4801  TIP3      H2             36.2707133595        3.8973877139      -30.8643896465  W2        4801            0.0000000000
     14404      4802  TIP3      OH2            22.4004333595        5.2973177139      -25.8690096465  W2        4802            0.0000000000
     14405      4802  TIP3      H1             22.8455933595        4.5055677139      -25.5670396465  W2        4802            0.0000000000
     14406      4802  TIP3      H2             22.8667333595        6.0138377139      -25.4384496465  W2        4802            0.0000000000
     14407      4803  TIP3      OH2            20.7044633595        8.2966177139      -24.7999896465  W2        4803            0.0000000000
     14408      4803  TIP3      H1             21.1964433595        8.0756677139      -25.5907896465  W2        4803            0.0000000000
     14409      4803  TIP3      H2             21.0665533595        9.1369577139      -24.5190396465  W2        4803            0.0000000000
     14410      4804  TIP3      OH2            38.7008433595        4.6267677139      -18.5345896465  W2        4804            0.0000000000
     14411      4804  TIP3      H1             37.7834133595        4.8974777139      -18.5702396465  W2        4804            0.0000000000
     14412      4804  TIP3      H2             38.8237833595        4.0916077139      -19.3186196465  W2        4804            0.0000000000
     14413      4805  TIP3      OH2            38.7370433595        4.5497577139      -33.8728196465  W2        4805            0.0000000000
     14414      4805  TIP3      H1             39.1493033595        3.8283277139      -34.3480196465  W2        4805            0.0000000000
     14415      4805  TIP3      H2             39.4186933595        5.2192177139      -33.8143896465  W2        4805            0.0000000000
     14416      4806  TIP3      OH2            21.0181133595        4.5545277139      -30.7457496465  W2        4806            0.0000000000
     14417      4806  TIP3      H1             20.0929533595        4.7631877139      -30.8751996465  W2        4806            0.0000000000
     14418      4806  TIP3      H2             21.4721033595        5.0386077139      -31.4355196465  W2        4806            0.0000000000
     14419      4807  TIP3      OH2            35.7888333595       19.5386977139      -28.8000096465  W2        4807            0.0000000000
     14420      4807  TIP3      H1             36.4411233595       19.1909077139      -29.4080996465  W2        4807            0.0000000000
     14421      4807  TIP3      H2             36.2992133595       20.0270177139      -28.1540396465  W2        4807            0.0000000000
     14422      4808  TIP3      OH2            20.9816533595        3.2924277139      -22.4014996465  W2        4808            0.0000000000
     14423      4808  TIP3      H1             20.3167033595        3.0464577139      -21.7584096465  W2        4808            0.0000000000
     14424      4808  TIP3      H2             20.5387833595        3.9144677139      -22.9786996465  W2        4808            0.0000000000
     14425      4809  TIP3      OH2            23.1735833595       16.4678377139      -18.2569196465  W2        4809            0.0000000000
     14426      4809  TIP3      H1             22.3528333595       16.6424877139      -18.7174496465  W2        4809            0.0000000000
     14427      4809  TIP3      H2             22.9213633595       16.3943077139      -17.3364796465  W2        4809            0.0000000000
     14428      4810  TIP3      OH2            26.1278733595       17.4419577139      -21.9985196465  W2        4810            0.0000000000
     14429      4810  TIP3      H1             25.7029833595       18.2518077139      -22.2810596465  W2        4810            0.0000000000
     14430      4810  TIP3      H2             27.0321533595       17.5273677139      -22.3005396465  W2        4810            0.0000000000
     14431      4811  TIP3      OH2            30.4390133595       18.8409577139      -19.0391496465  W2        4811            0.0000000000
     14432      4811  TIP3      H1             30.6237633595       18.5075677139      -18.1611196465  W2        4811            0.0000000000
     14433      4811  TIP3      H2             31.2854633595       19.1508177139      -19.3612296465  W2        4811            0.0000000000
     14434      4812  TIP3      OH2            32.7840533595       20.1268477139      -19.7950096465  W2        4812            0.0000000000
     14435      4812  TIP3      H1             33.4609433595       19.4940777139      -20.0350896465  W2        4812            0.0000000000
     14436      4812  TIP3      H2             33.1059333595       20.5278977139      -18.9876796465  W2        4812            0.0000000000
     14437      4813  TIP3      OH2            37.7014333595        2.7163977139      -20.7155096465  W2        4813            0.0000000000
     14438      4813  TIP3      H1             36.8887833595        3.0414277139      -21.1030396465  W2        4813            0.0000000000
     14439      4813  TIP3      H2             37.9342833595        1.9562477139      -21.2485996465  W2        4813            0.0000000000
     14440      4814  TIP3      OH2            23.5295433595       20.6983477139      -21.9509896465  W2        4814            0.0000000000
     14441      4814  TIP3      H1             22.8091833595       21.1384477139      -22.4022196465  W2        4814            0.0000000000
     14442      4814  TIP3      H2             23.1639433595       20.4478177139      -21.1025896465  W2        4814            0.0000000000
     14443      4815  TIP3      OH2            25.9968033595       20.2987377139      -22.9212696465  W2        4815            0.0000000000
     14444      4815  TIP3      H1             25.1320233595       20.3705877139      -22.5172596465  W2        4815            0.0000000000
     14445      4815  TIP3      H2             25.9417033595       20.8454677139      -23.7050196465  W2        4815            0.0000000000
     14446      4816  TIP3      OH2            30.7073633595       20.1866277139      -23.7456696465  W2        4816            0.0000000000
     14447      4816  TIP3      H1             30.2507633595       20.7155977139      -24.3998296465  W2        4816            0.0000000000
     14448      4816  TIP3      H2             30.8701633595       20.7897677139      -23.0204396465  W2        4816            0.0000000000
     14449      4817  TIP3      OH2            33.0349933595       19.0645877139      -22.8006396465  W2        4817            0.0000000000
     14450      4817  TIP3      H1             32.1303633595       19.2296077139      -23.0664296465  W2        4817            0.0000000000
     14451      4817  TIP3      H2             33.4638533595       19.9178077139      -22.8662996465  W2        4817            0.0000000000
     14452      4818  TIP3      OH2            35.6391833595       20.6344977139      -22.5058596465  W2        4818            0.0000000000
     14453      4818  TIP3      H1             35.4573833595       21.5503877139      -22.7163696465  W2        4818            0.0000000000
     14454      4818  TIP3      H2             35.8159633595       20.2242077139      -23.3523996465  W2        4818            0.0000000000
     14455      4819  TIP3      OH2            22.9443533595       19.3215977139      -25.0408096465  W2        4819            0.0000000000
     14456      4819  TIP3      H1             22.9259533595       18.8961077139      -24.1835796465  W2        4819            0.0000000000
     14457      4819  TIP3      H2             23.7491433595       19.0030977139      -25.4495896465  W2        4819            0.0000000000
     14458      4820  TIP3      OH2            25.0856633595       18.0314677139      -26.3858196465  W2        4820            0.0000000000
     14459      4820  TIP3      H1             24.8667333595       17.1152077139      -26.2162196465  W2        4820            0.0000000000
     14460      4820  TIP3      H2             25.9098833595       18.1715077139      -25.9196796465  W2        4820            0.0000000000
     14461      4821  TIP3      OH2            27.6229133595       18.5013977139      -25.5370196465  W2        4821            0.0000000000
     14462      4821  TIP3      H1             27.8354833595       17.6132977139      -25.8239296465  W2        4821            0.0000000000
     14463      4821  TIP3      H2             27.6874233595       18.4671677139      -24.5826196465  W2        4821            0.0000000000
     14464      4822  TIP3      OH2            31.1312833595        4.1654577139      -26.3926896465  W2        4822            0.0000000000
     14465      4822  TIP3      H1             30.4569633595        3.5360177139      -26.1371096465  W2        4822            0.0000000000
     14466      4822  TIP3      H2             31.6952033595        3.6813477139      -26.9958996465  W2        4822            0.0000000000
     14467      4823  TIP3      OH2            36.2740033595        2.2728577139      -26.2799796465  W2        4823            0.0000000000
     14468      4823  TIP3      H1             36.8777633595        2.8203977139      -26.7818796465  W2        4823            0.0000000000
     14469      4823  TIP3      H2             35.4042033595        2.5918977139      -26.5205696465  W2        4823            0.0000000000
     14470      4824  TIP3      OH2            38.0010433595        3.4117277139      -27.9468896465  W2        4824            0.0000000000
     14471      4824  TIP3      H1             38.6127933595        2.8972977139      -28.4735296465  W2        4824            0.0000000000
     14472      4824  TIP3      H2             38.3833833595        4.2889377139      -27.9234496465  W2        4824            0.0000000000
     14473      4825  TIP3      OH2            23.4580333595        2.7994877139      -28.5706996465  W2        4825            0.0000000000
     14474      4825  TIP3      H1             22.6810133595        2.5649777139      -29.0781096465  W2        4825            0.0000000000
     14475      4825  TIP3      H2             23.9883933595        2.0026977139      -28.5618996465  W2        4825            0.0000000000
     14476      4826  TIP3      OH2            22.2943733595        2.5972977139      -32.7670896465  W2        4826            0.0000000000
     14477      4826  TIP3      H1             22.7334433595        3.2083477139      -33.3587396465  W2        4826            0.0000000000
     14478      4826  TIP3      H2             21.6606133595        3.1357077139      -32.2930896465  W2        4826            0.0000000000
     14479      4827  TIP3      OH2            28.0372933595        2.7261977139      -28.7573896465  W2        4827            0.0000000000
     14480      4827  TIP3      H1             28.9116333595        3.1146277139      -28.7869596465  W2        4827            0.0000000000
     14481      4827  TIP3      H2             27.9013733595        2.5109777139      -27.8346696465  W2        4827            0.0000000000
     14482      4828  TIP3      OH2            33.5941333595        2.7561777139      -27.1082196465  W2        4828            0.0000000000
     14483      4828  TIP3      H1             33.6702933595        2.8513377139      -28.0576196465  W2        4828            0.0000000000
     14484      4828  TIP3      H2             33.3190533595        1.8484677139      -26.9793096465  W2        4828            0.0000000000
     14485      4829  TIP3      OH2            34.9473933595        2.7819577139      -31.4157196465  W2        4829            0.0000000000
     14486      4829  TIP3      H1             34.2445033595        3.3968777139      -31.6255796465  W2        4829            0.0000000000
     14487      4829  TIP3      H2             34.5025333595        1.9446277139      -31.2846296465  W2        4829            0.0000000000
     14488      4830  TIP3      OH2            22.1953233595       18.5455177139      -31.8695796465  W2        4830            0.0000000000
     14489      4830  TIP3      H1             21.5103133595       18.5074077139      -32.5370696465  W2        4830            0.0000000000
     14490      4830  TIP3      H2             22.1990433595       19.4582777139      -31.5813696465  W2        4830            0.0000000000
     14491      4831  TIP3      OH2            24.1552833595        4.5134477139      -34.3246796465  W2        4831            0.0000000000
     14492      4831  TIP3      H1             24.6466233595        3.8836877139      -34.8521296465  W2        4831            0.0000000000
     14493      4831  TIP3      H2             24.7789133595        4.8093877139      -33.6615596465  W2        4831            0.0000000000
     14494      4832  TIP3      OH2            29.1812933595        4.8065977139      -31.8676296465  W2        4832            0.0000000000
     14495      4832  TIP3      H1             29.3594233595        4.1599177139      -31.1847696465  W2        4832            0.0000000000
     14496      4832  TIP3      H2             29.1279133595        5.6403677139      -31.4005196465  W2        4832            0.0000000000
     14497      4833  TIP3      OH2            31.0596733595       19.7550077139      -33.4719596465  W2        4833            0.0000000000
     14498      4833  TIP3      H1             31.9256933595       20.1217477139      -33.6501396465  W2        4833            0.0000000000
     14499      4833  TIP3      H2             30.8129533595       19.3158077139      -34.2858796465  W2        4833            0.0000000000
     14500      4834  TIP3      OH2            37.7686333595       19.3180377139      -30.7928496465  W2        4834            0.0000000000
     14501      4834  TIP3      H1             37.5743433595       18.5702477139      -31.3578896465  W2        4834            0.0000000000
     14502      4834  TIP3      H2             37.7296433595       20.0760477139      -31.3760596465  W2        4834            0.0000000000
     14503      4835  TIP3      OH2            23.4158333595        3.3136777139      -19.0530796465  W2        4835            0.0000000000
     14504      4835  TIP3      H1             23.0496533595        2.5479377139      -18.6106096465  W2        4835            0.0000000000
     14505      4835  TIP3      H2             24.3286833595        3.3426977139      -18.7665696465  W2        4835            0.0000000000
     14506      4836  TIP3      OH2            25.3889133595        2.6641177139      -17.5173696465  W2        4836            0.0000000000
     14507      4836  TIP3      H1             26.2872733595        2.3901377139      -17.7020296465  W2        4836            0.0000000000
     14508      4836  TIP3      H2             25.0022233595        1.9217177139      -17.0531096465  W2        4836            0.0000000000
     14509      4837  TIP3      OH2            24.0134433595       19.4655977139      -34.8443696465  W2        4837            0.0000000000
     14510      4837  TIP3      H1             23.7459033595       19.7518877139      -33.9710596465  W2        4837            0.0000000000
     14511      4837  TIP3      H2             24.7847033595       18.9195177139      -34.6921196465  W2        4837            0.0000000000
     14512      4838  TIP3      OH2            33.8101433595        1.9966477139      -17.3350896465  W2        4838            0.0000000000
     14513      4838  TIP3      H1             33.8868633595        1.5707177139      -16.4813196465  W2        4838            0.0000000000
     14514      4838  TIP3      H2             34.7038033595        2.0101177139      -17.6777396465  W2        4838            0.0000000000
     14515      4839  TIP3      OH2            36.9862533595       18.0692777139      -18.6426696465  W2        4839            0.0000000000
     14516      4839  TIP3      H1             36.2044433595       17.8830777139      -19.1626096465  W2        4839            0.0000000000
     14517      4839  TIP3      H2             36.9142433595       18.9987077139      -18.4254196465  W2        4839            0.0000000000
     14518      4840  TIP3      OH2            51.3922933595       11.9557177139      -28.6119496465  W2        4840            0.0000000000
     14519      4840  TIP3      H1             51.4814033595       12.8995377139      -28.7442396465  W2        4840            0.0000000000
     14520      4840  TIP3      H2             50.7540533595       11.6803577139      -29.2700096465  W2        4840            0.0000000000
     14521      4841  TIP3      OH2            50.3254233595       11.2107877139      -25.1931296465  W2        4841            0.0000000000
     14522      4841  TIP3      H1             50.2871733595       10.5644177139      -24.4881696465  W2        4841            0.0000000000
     14523      4841  TIP3      H2             50.0030733595       10.7442277139      -25.9642596465  W2        4841            0.0000000000
     14524      4842  TIP3      OH2            42.6939233595       10.8249977139      -23.6001396465  W2        4842            0.0000000000
     14525      4842  TIP3      H1             42.7351333595       10.1993277139      -22.8768996465  W2        4842            0.0000000000
     14526      4842  TIP3      H2             43.3966933595       11.4488577139      -23.4180996465  W2        4842            0.0000000000
     14527      4843  TIP3      OH2            54.0314433595       14.1498277139      -26.8916196465  W2        4843            0.0000000000
     14528      4843  TIP3      H1             53.5907133595       13.4294277139      -26.4410596465  W2        4843            0.0000000000
     14529      4843  TIP3      H2             54.0184133595       14.8705477139      -26.2618496465  W2        4843            0.0000000000
     14530      4844  TIP3      OH2            43.6172333595       15.2748877139      -25.0652296465  W2        4844            0.0000000000
     14531      4844  TIP3      H1             43.2477533595       14.4729377139      -25.4347996465  W2        4844            0.0000000000
     14532      4844  TIP3      H2             44.5583433595       15.1063777139      -25.0188896465  W2        4844            0.0000000000
     14533      4845  TIP3      OH2            40.2272833595        8.9351477139      -29.6723496465  W2        4845            0.0000000000
     14534      4845  TIP3      H1             39.7796233595        9.7810177139      -29.6906996465  W2        4845            0.0000000000
     14535      4845  TIP3      H2             39.6664033595        8.3555677139      -30.1878396465  W2        4845            0.0000000000
     14536      4846  TIP3      OH2            40.9378933595       11.0971077139      -27.5465496465  W2        4846            0.0000000000
     14537      4846  TIP3      H1             41.1512433595       10.3272677139      -27.0192496465  W2        4846            0.0000000000
     14538      4846  TIP3      H2             41.6756533595       11.1867777139      -28.1497896465  W2        4846            0.0000000000
     14539      4847  TIP3      OH2            51.1429933595       19.2539977139      -26.6795796465  W2        4847            0.0000000000
     14540      4847  TIP3      H1             51.7626333595       18.5774677139      -26.9526596465  W2        4847            0.0000000000
     14541      4847  TIP3      H2             50.9347333595       19.0360777139      -25.7710896465  W2        4847            0.0000000000
     14542      4848  TIP3      OH2            48.7148633595       13.6429277139      -24.7870296465  W2        4848            0.0000000000
     14543      4848  TIP3      H1             49.0186533595       12.9570677139      -25.3816196465  W2        4848            0.0000000000
     14544      4848  TIP3      H2             49.4362633595       13.7617977139      -24.1692296465  W2        4848            0.0000000000
     14545      4849  TIP3      OH2            51.8555633595        8.0371677139      -24.4595496465  W2        4849            0.0000000000
     14546      4849  TIP3      H1             51.9981533595        7.0908677139      -24.4393896465  W2        4849            0.0000000000
     14547      4849  TIP3      H2             51.7494633595        8.2441477139      -25.3880596465  W2        4849            0.0000000000
     14548      4850  TIP3      OH2            45.0103933595        6.1388077139      -27.1870696465  W2        4850            0.0000000000
     14549      4850  TIP3      H1             45.0535033595        6.9986577139      -27.6054396465  W2        4850            0.0000000000
     14550      4850  TIP3      H2             44.5528033595        5.5862777139      -27.8207496465  W2        4850            0.0000000000
     14551      4851  TIP3      OH2            52.7326633595        6.2693677139      -28.7862396465  W2        4851            0.0000000000
     14552      4851  TIP3      H1             53.3790933595        5.9406877139      -28.1614796465  W2        4851            0.0000000000
     14553      4851  TIP3      H2             53.2426033595        6.7872677139      -29.4090996465  W2        4851            0.0000000000
     14554      4852  TIP3      OH2            41.6305433595        8.5353877139      -26.4249296465  W2        4852            0.0000000000
     14555      4852  TIP3      H1             42.2842033595        7.9855577139      -25.9929196465  W2        4852            0.0000000000
     14556      4852  TIP3      H2             41.6544733595        8.2612877139      -27.3417296465  W2        4852            0.0000000000
     14557      4853  TIP3      OH2            46.7869933595       10.0855177139      -27.2097796465  W2        4853            0.0000000000
     14558      4853  TIP3      H1             47.4030933595        9.5590577139      -26.7003796465  W2        4853            0.0000000000
     14559      4853  TIP3      H2             46.2008733595        9.4453877139      -27.6134196465  W2        4853            0.0000000000
     14560      4854  TIP3      OH2            43.8205833595        5.0566477139      -23.1129896465  W2        4854            0.0000000000
     14561      4854  TIP3      H1             43.6017533595        5.5867077139      -23.8793896465  W2        4854            0.0000000000
     14562      4854  TIP3      H2             43.1526733595        5.2831977139      -22.4658496465  W2        4854            0.0000000000
     14563      4855  TIP3      OH2            51.1895633595       14.5567577139      -29.5690796465  W2        4855            0.0000000000
     14564      4855  TIP3      H1             50.8940733595       14.2339877139      -30.4203896465  W2        4855            0.0000000000
     14565      4855  TIP3      H2             50.8653433595       15.4564277139      -29.5278196465  W2        4855            0.0000000000
     14566      4856  TIP3      OH2            46.3897233595       12.7322177139      -22.8256196465  W2        4856            0.0000000000
     14567      4856  TIP3      H1             45.6496333595       13.3303677139      -22.7220996465  W2        4856            0.0000000000
     14568      4856  TIP3      H2             47.1036733595       13.2861777139      -23.1412596465  W2        4856            0.0000000000
     14569      4857  TIP3      OH2            54.4965033595        5.5602977139      -26.8056496465  W2        4857            0.0000000000
     14570      4857  TIP3      H1             54.2813033595        4.7946377139      -26.2730496465  W2        4857            0.0000000000
     14571      4857  TIP3      H2             55.1522433595        6.0327577139      -26.2927996465  W2        4857            0.0000000000
     14572      4858  TIP3      OH2            43.4143133595        6.9488277139      -25.1607696465  W2        4858            0.0000000000
     14573      4858  TIP3      H1             44.0279433595        7.5815877139      -24.7875296465  W2        4858            0.0000000000
     14574      4858  TIP3      H2             43.9263833595        6.4763277139      -25.8170796465  W2        4858            0.0000000000
     14575      4859  TIP3      OH2            44.7971533595       14.6965177139      -22.0384696465  W2        4859            0.0000000000
     14576      4859  TIP3      H1             44.7919133595       15.5758677139      -22.4165396465  W2        4859            0.0000000000
     14577      4859  TIP3      H2             43.9435633595       14.6129277139      -21.6134796465  W2        4859            0.0000000000
     14578      4860  TIP3      OH2            40.9182433595       14.3673077139      -31.2565396465  W2        4860            0.0000000000
     14579      4860  TIP3      H1             40.6463333595       14.5964077139      -32.1452496465  W2        4860            0.0000000000
     14580      4860  TIP3      H2             40.9638133595       15.2051877139      -30.7960096465  W2        4860            0.0000000000
     14581      4861  TIP3      OH2            54.5432133595       15.9888977139      -24.5436896465  W2        4861            0.0000000000
     14582      4861  TIP3      H1             53.6015833595       16.0472877139      -24.3819996465  W2        4861            0.0000000000
     14583      4861  TIP3      H2             54.8198233595       16.8949477139      -24.6807196465  W2        4861            0.0000000000
     14584      4862  TIP3      OH2            47.8470533595        2.3621577139      -25.6604996465  W2        4862            0.0000000000
     14585      4862  TIP3      H1             47.7294733595        1.4137577139      -25.7146696465  W2        4862            0.0000000000
     14586      4862  TIP3      H2             46.9920633595        2.6947677139      -25.3873896465  W2        4862            0.0000000000
     14587      4863  TIP3      OH2            52.7953333595       17.7702477139      -27.9185296465  W2        4863            0.0000000000
     14588      4863  TIP3      H1             53.2205633595       17.0630377139      -28.4035696465  W2        4863            0.0000000000
     14589      4863  TIP3      H2             53.1123333595       18.5715177139      -28.3353096465  W2        4863            0.0000000000
     14590      4864  TIP3      OH2            53.9549833595       15.6710977139      -29.4098696465  W2        4864            0.0000000000
     14591      4864  TIP3      H1             53.6974633595       14.9811077139      -30.0212796465  W2        4864            0.0000000000
     14592      4864  TIP3      H2             54.0260633595       15.2282177139      -28.5642796465  W2        4864            0.0000000000
     14593      4865  TIP3      OH2            50.1135433595       11.1997177139      -31.1599196465  W2        4865            0.0000000000
     14594      4865  TIP3      H1             49.4020933595       11.7346877139      -31.5118696465  W2        4865            0.0000000000
     14595      4865  TIP3      H2             50.8045033595       11.2549277139      -31.8200296465  W2        4865            0.0000000000
     14596      4866  TIP3      OH2            50.1674633595        9.6571477139      -34.1214196465  W2        4866            0.0000000000
     14597      4866  TIP3      H1             50.8684533595        9.6798377139      -33.4700196465  W2        4866            0.0000000000
     14598      4866  TIP3      H2             50.4697533595        9.0291177139      -34.7774896465  W2        4866            0.0000000000
     14599      4867  TIP3      OH2            53.5193133595       11.4090477139      -30.2083296465  W2        4867            0.0000000000
     14600      4867  TIP3      H1             52.7874133595       11.6374177139      -29.6352696465  W2        4867            0.0000000000
     14601      4867  TIP3      H2             53.9665333595       10.6953177139      -29.7535796465  W2        4867            0.0000000000
     14602      4868  TIP3      OH2            53.4166633595        9.5833077139      -21.1406296465  W2        4868            0.0000000000
     14603      4868  TIP3      H1             53.4965733595       10.3467477139      -20.5687796465  W2        4868            0.0000000000
     14604      4868  TIP3      H2             52.8154333595        9.8625477139      -21.8311196465  W2        4868            0.0000000000
     14605      4869  TIP3      OH2            45.1646833595       12.0396677139      -28.3258296465  W2        4869            0.0000000000
     14606      4869  TIP3      H1             44.8342033595       11.6690077139      -29.1441296465  W2        4869            0.0000000000
     14607      4869  TIP3      H2             45.7530933595       11.3690677139      -27.9789996465  W2        4869            0.0000000000
     14608      4870  TIP3      OH2            46.5314333595       15.4677277139      -25.6446096465  W2        4870            0.0000000000
     14609      4870  TIP3      H1             46.4365633595       14.8890377139      -26.4011496465  W2        4870            0.0000000000
     14610      4870  TIP3      H2             47.2607933595       15.0962977139      -25.1483296465  W2        4870            0.0000000000
     14611      4871  TIP3      OH2            45.5312333595       10.8082277139      -24.6923296465  W2        4871            0.0000000000
     14612      4871  TIP3      H1             46.0964833595       10.9296477139      -25.4552096465  W2        4871            0.0000000000
     14613      4871  TIP3      H2             45.8501233595       11.4457277139      -24.0534796465  W2        4871            0.0000000000
     14614      4872  TIP3      OH2            51.8404533595       16.3114177139      -23.9582796465  W2        4872            0.0000000000
     14615      4872  TIP3      H1             51.6001133595       16.9737277139      -23.3103596465  W2        4872            0.0000000000
     14616      4872  TIP3      H2             51.6422733595       15.4769377139      -23.5333196465  W2        4872            0.0000000000
     14617      4873  TIP3      OH2            46.4113033595       15.2074977139      -19.9751396465  W2        4873            0.0000000000
     14618      4873  TIP3      H1             46.1000533595       15.9898177139      -19.5198196465  W2        4873            0.0000000000
     14619      4873  TIP3      H2             45.7613233595       15.0544077139      -20.6609396465  W2        4873            0.0000000000
     14620      4874  TIP3      OH2            52.3902633595       10.5713377139      -32.5232096465  W2        4874            0.0000000000
     14621      4874  TIP3      H1             52.9698133595       10.7213677139      -31.7763196465  W2        4874            0.0000000000
     14622      4874  TIP3      H2             52.8042633595       11.0420777139      -33.2465696465  W2        4874            0.0000000000
     14623      4875  TIP3      OH2            43.3312933595       11.4056077139      -20.7465696465  W2        4875            0.0000000000
     14624      4875  TIP3      H1             43.4016133595       12.0562877139      -20.0480696465  W2        4875            0.0000000000
     14625      4875  TIP3      H2             42.4405133595       11.5083577139      -21.0814796465  W2        4875            0.0000000000
     14626      4876  TIP3      OH2            50.1167533595       17.3081877139      -29.0878996465  W2        4876            0.0000000000
     14627      4876  TIP3      H1             50.5905133595       17.6038177139      -28.3104796465  W2        4876            0.0000000000
     14628      4876  TIP3      H2             49.5536833595       18.0463477139      -29.3209396465  W2        4876            0.0000000000
     14629      4877  TIP3      OH2            44.6508933595       17.2789977139      -19.2117596465  W2        4877            0.0000000000
     14630      4877  TIP3      H1             44.6584233595       17.1429677139      -20.1592096465  W2        4877            0.0000000000
     14631      4877  TIP3      H2             43.7349333595       17.1618077139      -18.9597596465  W2        4877            0.0000000000
     14632      4878  TIP3      OH2            44.1549533595       11.1090977139      -30.7365496465  W2        4878            0.0000000000
     14633      4878  TIP3      H1             43.8630833595       11.8772677139      -31.2274196465  W2        4878            0.0000000000
     14634      4878  TIP3      H2             43.4804733595       10.4497177139      -30.8994096465  W2        4878            0.0000000000
     14635      4879  TIP3      OH2            40.2479633595       13.4720177139      -21.9215696465  W2        4879            0.0000000000
     14636      4879  TIP3      H1             39.7468033595       13.4439577139      -22.7365996465  W2        4879            0.0000000000
     14637      4879  TIP3      H2             40.2533333595       12.5663377139      -21.6118396465  W2        4879            0.0000000000
     14638      4880  TIP3      OH2            39.9982333595       16.2523977139      -25.0375496465  W2        4880            0.0000000000
     14639      4880  TIP3      H1             40.9442933595       16.1080977139      -25.0565996465  W2        4880            0.0000000000
     14640      4880  TIP3      H2             39.8858633595       17.0366777139      -24.5004296465  W2        4880            0.0000000000
     14641      4881  TIP3      OH2            49.1744833595       16.4922877139      -20.4790396465  W2        4881            0.0000000000
     14642      4881  TIP3      H1             49.2619433595       17.3187477139      -20.0041296465  W2        4881            0.0000000000
     14643      4881  TIP3      H2             48.3109933595       16.1626677139      -20.2301096465  W2        4881            0.0000000000
     14644      4882  TIP3      OH2            49.5890633595       20.2646577139      -30.6729796465  W2        4882            0.0000000000
     14645      4882  TIP3      H1             49.5136633595       20.1433777139      -31.6194596465  W2        4882            0.0000000000
     14646      4882  TIP3      H2             49.6219333595       21.2139277139      -30.5545196465  W2        4882            0.0000000000
     14647      4883  TIP3      OH2            43.2424433595       19.0533577139      -28.8920796465  W2        4883            0.0000000000
     14648      4883  TIP3      H1             43.3944833595       18.7053977139      -28.0134296465  W2        4883            0.0000000000
     14649      4883  TIP3      H2             42.3914833595       18.6970877139      -29.1473596465  W2        4883            0.0000000000
     14650      4884  TIP3      OH2            52.6906633595       19.4186777139      -33.6707396465  W2        4884            0.0000000000
     14651      4884  TIP3      H1             53.0655033595       18.6742877139      -34.1414796465  W2        4884            0.0000000000
     14652      4884  TIP3      H2             52.6950333595       19.1487377139      -32.7524096465  W2        4884            0.0000000000
     14653      4885  TIP3      OH2            52.3594733595       19.3443877139      -30.9215196465  W2        4885            0.0000000000
     14654      4885  TIP3      H1             51.4244533595       19.4445777139      -30.7428196465  W2        4885            0.0000000000
     14655      4885  TIP3      H2             52.6396633595       18.6349877139      -30.3431996465  W2        4885            0.0000000000
     14656      4886  TIP3      OH2            42.4970133595       14.7955577139      -20.8782896465  W2        4886            0.0000000000
     14657      4886  TIP3      H1             42.7131433595       14.4341177139      -20.0187096465  W2        4886            0.0000000000
     14658      4886  TIP3      H2             41.6414833595       14.4209377139      -21.0879396465  W2        4886            0.0000000000
     14659      4887  TIP3      OH2            45.1158133595        3.2656077139      -24.8828696465  W2        4887            0.0000000000
     14660      4887  TIP3      H1             44.2541833595        3.1784277139      -25.2905796465  W2        4887            0.0000000000
     14661      4887  TIP3      H2             45.0933833595        4.1216177139      -24.4551096465  W2        4887            0.0000000000
     14662      4888  TIP3      OH2            49.7785933595        2.9876477139      -21.5081696465  W2        4888            0.0000000000
     14663      4888  TIP3      H1             50.1989033595        2.5723577139      -20.7551096465  W2        4888            0.0000000000
     14664      4888  TIP3      H2             48.8455533595        2.8089777139      -21.3909696465  W2        4888            0.0000000000
     14665      4889  TIP3      OH2            53.1050833595        6.7431677139      -20.6547196465  W2        4889            0.0000000000
     14666      4889  TIP3      H1             52.5910333595        6.6173877139      -19.8571196465  W2        4889            0.0000000000
     14667      4889  TIP3      H2             52.9495533595        7.6554777139      -20.8990996465  W2        4889            0.0000000000
     14668      4890  TIP3      OH2            53.8675733595       11.6041677139      -34.8934196465  W2        4890            0.0000000000
     14669      4890  TIP3      H1             53.9096533595       11.3815577139      -35.8234196465  W2        4890            0.0000000000
     14670      4890  TIP3      H2             54.7167833595       12.0028777139      -34.7034296465  W2        4890            0.0000000000
     14671      4891  TIP3      OH2            49.4403233595        5.4799877139      -34.2230896465  W2        4891            0.0000000000
     14672      4891  TIP3      H1             49.1868033595        5.4991477139      -33.3002796465  W2        4891            0.0000000000
     14673      4891  TIP3      H2             49.1835333595        4.6085277139      -34.5244696465  W2        4891            0.0000000000
     14674      4892  TIP3      OH2            45.2068233595        8.2310577139      -23.7878496465  W2        4892            0.0000000000
     14675      4892  TIP3      H1             44.5650333595        8.1907877139      -23.0788396465  W2        4892            0.0000000000
     14676      4892  TIP3      H2             45.2440233595        9.1575277139      -24.0255496465  W2        4892            0.0000000000
     14677      4893  TIP3      OH2            45.2037333595        8.4520677139      -28.8758496465  W2        4893            0.0000000000
     14678      4893  TIP3      H1             44.3110233595        8.1116777139      -28.9344696465  W2        4893            0.0000000000
     14679      4893  TIP3      H2             45.6543933595        8.0751577139      -29.6315296465  W2        4893            0.0000000000
     14680      4894  TIP3      OH2            50.7392833595        8.8680977139      -30.0587696465  W2        4894            0.0000000000
     14681      4894  TIP3      H1             50.3303133595        9.6829577139      -30.3502896465  W2        4894            0.0000000000
     14682      4894  TIP3      H2             51.4599033595        8.7281077139      -30.6730596465  W2        4894            0.0000000000
     14683      4895  TIP3      OH2            49.8414433595        9.0437377139      -18.5706996465  W2        4895            0.0000000000
     14684      4895  TIP3      H1             49.2788233595        8.3388977139      -18.2499196465  W2        4895            0.0000000000
     14685      4895  TIP3      H2             50.6677833595        8.9229277139      -18.1029396465  W2        4895            0.0000000000
     14686      4896  TIP3      OH2            51.7440533595        8.3141377139      -27.2447996465  W2        4896            0.0000000000
     14687      4896  TIP3      H1             51.5485033595        8.9198177139      -27.9597396465  W2        4896            0.0000000000
     14688      4896  TIP3      H2             51.9253133595        7.4806577139      -27.6791696465  W2        4896            0.0000000000
     14689      4897  TIP3      OH2            42.9568733595        8.5514077139      -21.9206496465  W2        4897            0.0000000000
     14690      4897  TIP3      H1             42.9188133595        8.9515677139      -21.0519396465  W2        4897            0.0000000000
     14691      4897  TIP3      H2             42.4659833595        7.7346477139      -21.8303596465  W2        4897            0.0000000000
     14692      4898  TIP3      OH2            46.3226133595        5.9256377139      -35.1220496465  W2        4898            0.0000000000
     14693      4898  TIP3      H1             45.8916833595        5.4806477139      -34.3923096465  W2        4898            0.0000000000
     14694      4898  TIP3      H2             45.6044833595        6.2972677139      -35.6342996465  W2        4898            0.0000000000
     14695      4899  TIP3      OH2            39.5649533595        5.6675877139      -28.0701796465  W2        4899            0.0000000000
     14696      4899  TIP3      H1             40.1957233595        5.6387977139      -27.3507896465  W2        4899            0.0000000000
     14697      4899  TIP3      H2             40.0143833595        5.2424577139      -28.8005896465  W2        4899            0.0000000000
     14698      4900  TIP3      OH2            40.8391633595        6.4137877139      -32.6461396465  W2        4900            0.0000000000
     14699      4900  TIP3      H1             41.3133333595        7.0047777139      -33.2310496465  W2        4900            0.0000000000
     14700      4900  TIP3      H2             40.1218033595        6.9440777139      -32.2991296465  W2        4900            0.0000000000
     14701      4901  TIP3      OH2            51.0079733595        9.9522677139      -22.5735596465  W2        4901            0.0000000000
     14702      4901  TIP3      H1             51.3314533595        9.3212377139      -23.2165096465  W2        4901            0.0000000000
     14703      4901  TIP3      H2             50.5679033595        9.4174877139      -21.9128196465  W2        4901            0.0000000000
     14704      4902  TIP3      OH2            47.7852633595        5.8798177139      -27.7894396465  W2        4902            0.0000000000
     14705      4902  TIP3      H1             46.8743733595        5.9364977139      -27.5008396465  W2        4902            0.0000000000
     14706      4902  TIP3      H2             48.2905533595        5.8193677139      -26.9787196465  W2        4902            0.0000000000
     14707      4903  TIP3      OH2            42.6136033595        7.5084477139      -28.9626796465  W2        4903            0.0000000000
     14708      4903  TIP3      H1             41.7244033595        7.6079977139      -29.3027196465  W2        4903            0.0000000000
     14709      4903  TIP3      H2             42.9100933595        6.6667477139      -29.3088896465  W2        4903            0.0000000000
     14710      4904  TIP3      OH2            46.2667833595        7.5087077139      -31.3062196465  W2        4904            0.0000000000
     14711      4904  TIP3      H1             47.1983333595        7.6377077139      -31.1279096465  W2        4904            0.0000000000
     14712      4904  TIP3      H2             46.0518133595        8.1781377139      -31.9557496465  W2        4904            0.0000000000
     14713      4905  TIP3      OH2            52.1904533595        5.1144477139      -24.5252596465  W2        4905            0.0000000000
     14714      4905  TIP3      H1             51.5136133595        5.2457577139      -23.8612896465  W2        4905            0.0000000000
     14715      4905  TIP3      H2             51.7049433595        4.9593977139      -25.3354896465  W2        4905            0.0000000000
     14716      4906  TIP3      OH2            44.9408033595        8.7029277139      -33.7396096465  W2        4906            0.0000000000
     14717      4906  TIP3      H1             44.3983133595        8.3233077139      -34.4308496465  W2        4906            0.0000000000
     14718      4906  TIP3      H2             45.7742933595        8.8973977139      -34.1681996465  W2        4906            0.0000000000
     14719      4907  TIP3      OH2            43.0759433595       13.2601177139      -18.6404496465  W2        4907            0.0000000000
     14720      4907  TIP3      H1             43.8081833595       13.5147077139      -18.0789996465  W2        4907            0.0000000000
     14721      4907  TIP3      H2             42.2958133595       13.4646577139      -18.1249096465  W2        4907            0.0000000000
     14722      4908  TIP3      OH2            49.1052333595        8.6671177139      -25.9024796465  W2        4908            0.0000000000
     14723      4908  TIP3      H1             49.6695733595        8.1207777139      -26.4495196465  W2        4908            0.0000000000
     14724      4908  TIP3      H2             48.9575733595        8.1453077139      -25.1137196465  W2        4908            0.0000000000
     14725      4909  TIP3      OH2            44.1072033595        4.8037277139      -29.4839996465  W2        4909            0.0000000000
     14726      4909  TIP3      H1             43.7901533595        3.9012577139      -29.5194596465  W2        4909            0.0000000000
     14727      4909  TIP3      H2             44.8886133595        4.8054677139      -30.0368396465  W2        4909            0.0000000000
     14728      4910  TIP3      OH2            47.7318233595        7.0557277139      -23.4884396465  W2        4910            0.0000000000
     14729      4910  TIP3      H1             46.8963533595        7.5096777139      -23.3781996465  W2        4910            0.0000000000
     14730      4910  TIP3      H2             48.2558833595        7.3315777139      -22.7364496465  W2        4910            0.0000000000
     14731      4911  TIP3      OH2            48.2760833595       13.2684977139      -31.8037996465  W2        4911            0.0000000000
     14732      4911  TIP3      H1             47.5311833595       12.7610277139      -32.1260096465  W2        4911            0.0000000000
     14733      4911  TIP3      H2             48.1418033595       13.3172977139      -30.8573196465  W2        4911            0.0000000000
     14734      4912  TIP3      OH2            52.1737633595        6.0824877139      -33.6045396465  W2        4912            0.0000000000
     14735      4912  TIP3      H1             51.2351833595        6.1940477139      -33.7556596465  W2        4912            0.0000000000
     14736      4912  TIP3      H2             52.4709733595        6.9391777139      -33.2979696465  W2        4912            0.0000000000
     14737      4913  TIP3      OH2            49.7952933595       13.4528277139      -20.5668896465  W2        4913            0.0000000000
     14738      4913  TIP3      H1             49.4499033595       13.0710677139      -19.7599296465  W2        4913            0.0000000000
     14739      4913  TIP3      H2             49.5953033595       14.3861877139      -20.4955996465  W2        4913            0.0000000000
     14740      4914  TIP3      OH2            52.8921133595        7.9497577139      -31.9437996465  W2        4914            0.0000000000
     14741      4914  TIP3      H1             53.7840133595        7.8122577139      -31.6246796465  W2        4914            0.0000000000
     14742      4914  TIP3      H2             52.9484733595        8.7403677139      -32.4804496465  W2        4914            0.0000000000
     14743      4915  TIP3      OH2            43.4009133595       12.5634977139      -26.0340096465  W2        4915            0.0000000000
     14744      4915  TIP3      H1             44.1456333595       12.5610677139      -26.6353596465  W2        4915            0.0000000000
     14745      4915  TIP3      H2             43.4785733595       11.7398777139      -25.5524996465  W2        4915            0.0000000000
     14746      4916  TIP3      OH2            50.4014933595       14.7269277139      -32.7783396465  W2        4916            0.0000000000
     14747      4916  TIP3      H1             50.1063333595       15.5537177139      -32.3968596465  W2        4916            0.0000000000
     14748      4916  TIP3      H2             49.6984933595       14.1076177139      -32.5821996465  W2        4916            0.0000000000
     14749      4917  TIP3      OH2            40.4088833595       11.0241877139      -20.7191596465  W2        4917            0.0000000000
     14750      4917  TIP3      H1             40.6317433595       10.6061477139      -19.8874096465  W2        4917            0.0000000000
     14751      4917  TIP3      H2             39.8068933595       10.4116877139      -21.1418796465  W2        4917            0.0000000000
     14752      4918  TIP3      OH2            47.4253733595       10.5411777139      -18.5061896465  W2        4918            0.0000000000
     14753      4918  TIP3      H1             47.1294533595       10.3754777139      -19.4012796465  W2        4918            0.0000000000
     14754      4918  TIP3      H2             48.3568933595       10.3212077139      -18.5167996465  W2        4918            0.0000000000
     14755      4919  TIP3      OH2            52.0456533595       15.9143777139      -20.6163896465  W2        4919            0.0000000000
     14756      4919  TIP3      H1             51.1450833595       16.0976377139      -20.8839996465  W2        4919            0.0000000000
     14757      4919  TIP3      H2             52.0797633595       16.1733077139      -19.6955096465  W2        4919            0.0000000000
     14758      4920  TIP3      OH2            53.2325433595       11.7531577139      -24.7627296465  W2        4920            0.0000000000
     14759      4920  TIP3      H1             52.3042333595       11.5213477139      -24.7897996465  W2        4920            0.0000000000
     14760      4920  TIP3      H2             53.6836533595       10.9761377139      -25.0928496465  W2        4920            0.0000000000
     14761      4921  TIP3      OH2            45.7758533595       16.0813177139      -28.6298596465  W2        4921            0.0000000000
     14762      4921  TIP3      H1             46.3030733595       16.8547577139      -28.8299796465  W2        4921            0.0000000000
     14763      4921  TIP3      H2             44.8957033595       16.3062377139      -28.9314596465  W2        4921            0.0000000000
     14764      4922  TIP3      OH2            41.5306233595       10.9437277139      -34.0426196465  W2        4922            0.0000000000
     14765      4922  TIP3      H1             42.1466133595       11.5704477139      -33.6631396465  W2        4922            0.0000000000
     14766      4922  TIP3      H2             40.6688833595       11.2597077139      -33.7709696465  W2        4922            0.0000000000
     14767      4923  TIP3      OH2            47.2030833595       13.7443077139      -29.0534296465  W2        4923            0.0000000000
     14768      4923  TIP3      H1             46.9620833595       14.6697477139      -29.0118996465  W2        4923            0.0000000000
     14769      4923  TIP3      H2             46.4624433595       13.2854377139      -28.6570396465  W2        4923            0.0000000000
     14770      4924  TIP3      OH2            47.7177433595       17.8936677139      -22.7383196465  W2        4924            0.0000000000
     14771      4924  TIP3      H1             48.0802133595       18.7482277139      -22.9718796465  W2        4924            0.0000000000
     14772      4924  TIP3      H2             48.2492633595       17.6018277139      -21.9976896465  W2        4924            0.0000000000
     14773      4925  TIP3      OH2            45.8861633595       18.7660677139      -29.5082096465  W2        4925            0.0000000000
     14774      4925  TIP3      H1             44.9362133595       18.8718077139      -29.4568796465  W2        4925            0.0000000000
     14775      4925  TIP3      H2             46.2379733595       19.5868077139      -29.1634596465  W2        4925            0.0000000000
     14776      4926  TIP3      OH2            51.2618233595       13.9927377139      -23.0377596465  W2        4926            0.0000000000
     14777      4926  TIP3      H1             50.8359533595       13.7649077139      -22.2113596465  W2        4926            0.0000000000
     14778      4926  TIP3      H2             51.8424033595       13.2539177139      -23.2202296465  W2        4926            0.0000000000
     14779      4927  TIP3      OH2            53.4647133595       14.9217877139      -33.9638596465  W2        4927            0.0000000000
     14780      4927  TIP3      H1             53.8180233595       14.5417677139      -33.1595096465  W2        4927            0.0000000000
     14781      4927  TIP3      H2             52.5160633595       14.8282677139      -33.8769296465  W2        4927            0.0000000000
     14782      4928  TIP3      OH2            53.9202433595       18.5446877139      -20.5682796465  W2        4928            0.0000000000
     14783      4928  TIP3      H1             53.3185633595       17.9889777139      -21.0636496465  W2        4928            0.0000000000
     14784      4928  TIP3      H2             54.2016133595       19.2116677139      -21.1945396465  W2        4928            0.0000000000
     14785      4929  TIP3      OH2            42.0428333595        5.7774577139      -21.1610196465  W2        4929            0.0000000000
     14786      4929  TIP3      H1             41.1500633595        6.1159977139      -21.2286196465  W2        4929            0.0000000000
     14787      4929  TIP3      H2             41.9441133595        4.9220677139      -20.7429396465  W2        4929            0.0000000000
     14788      4930  TIP3      OH2            54.3306433595       13.5939877139      -31.7370696465  W2        4930            0.0000000000
     14789      4930  TIP3      H1             54.0534033595       12.8659177139      -31.1809596465  W2        4930            0.0000000000
     14790      4930  TIP3      H2             55.2579433595       13.7131877139      -31.5318096465  W2        4930            0.0000000000
     14791      4931  TIP3      OH2            41.6940333595       17.5818977139      -22.7260796465  W2        4931            0.0000000000
     14792      4931  TIP3      H1             41.9110633595       16.6501377139      -22.7571096465  W2        4931            0.0000000000
     14793      4931  TIP3      H2             41.9403833595       17.8563977139      -21.8427996465  W2        4931            0.0000000000
     14794      4932  TIP3      OH2            47.5554933595       16.0333977139      -35.5168596465  W2        4932            0.0000000000
     14795      4932  TIP3      H1             47.7944733595       15.2852077139      -36.0639696465  W2        4932            0.0000000000
     14796      4932  TIP3      H2             47.2866233595       15.6455677139      -34.6840796465  W2        4932            0.0000000000
     14797      4933  TIP3      OH2            46.4925533595       15.6037777139      -33.0605996465  W2        4933            0.0000000000
     14798      4933  TIP3      H1             46.6393533595       15.0837577139      -32.2705096465  W2        4933            0.0000000000
     14799      4933  TIP3      H2             46.4897233595       16.5105377139      -32.7540096465  W2        4933            0.0000000000
     14800      4934  TIP3      OH2            42.9456633595       12.8561077139      -32.5500596465  W2        4934            0.0000000000
     14801      4934  TIP3      H1             42.2595933595       13.2083577139      -31.9830896465  W2        4934            0.0000000000
     14802      4934  TIP3      H2             43.4684533595       13.6190677139      -32.7966296465  W2        4934            0.0000000000
     14803      4935  TIP3      OH2            50.7771733595        5.5184877139      -22.2711596465  W2        4935            0.0000000000
     14804      4935  TIP3      H1             51.4759633595        5.5923577139      -21.6211896465  W2        4935            0.0000000000
     14805      4935  TIP3      H2             50.3963133595        4.6539877139      -22.1168696465  W2        4935            0.0000000000
     14806      4936  TIP3      OH2            51.5616633595        5.1706577139      -31.1739296465  W2        4936            0.0000000000
     14807      4936  TIP3      H1             51.7814933595        5.6421977139      -31.9773896465  W2        4936            0.0000000000
     14808      4936  TIP3      H2             52.1200633595        5.5649177139      -30.5038696465  W2        4936            0.0000000000
     14809      4937  TIP3      OH2            49.2302733595       17.3011377139      -32.3111796465  W2        4937            0.0000000000
     14810      4937  TIP3      H1             48.4138833595       17.7981077139      -32.2587496465  W2        4937            0.0000000000
     14811      4937  TIP3      H2             49.7599033595       17.7764877139      -32.9512996465  W2        4937            0.0000000000
     14812      4938  TIP3      OH2            48.7616533595        6.8985377139      -30.3390896465  W2        4938            0.0000000000
     14813      4938  TIP3      H1             49.5739133595        7.4028577139      -30.2929196465  W2        4938            0.0000000000
     14814      4938  TIP3      H2             48.5169533595        6.7535077139      -29.4251296465  W2        4938            0.0000000000
     14815      4939  TIP3      OH2            49.2972933595        7.8848077139      -21.1544296465  W2        4939            0.0000000000
     14816      4939  TIP3      H1             49.4163233595        8.4583477139      -20.3973896465  W2        4939            0.0000000000
     14817      4939  TIP3      H2             49.9527533595        7.1967477139      -21.0396496465  W2        4939            0.0000000000
     14818      4940  TIP3      OH2            49.6453233595        3.9798377139      -29.4009796465  W2        4940            0.0000000000
     14819      4940  TIP3      H1             49.2986733595        4.5968977139      -28.7565496465  W2        4940            0.0000000000
     14820      4940  TIP3      H2             50.3040133595        4.4804077139      -29.8824296465  W2        4940            0.0000000000
     14821      4941  TIP3      OH2            46.5685833595       18.3448577139      -32.3294896465  W2        4941            0.0000000000
     14822      4941  TIP3      H1             46.7294533595       19.1446077139      -32.8302296465  W2        4941            0.0000000000
     14823      4941  TIP3      H2             46.3713633595       18.6514577139      -31.4444296465  W2        4941            0.0000000000
     14824      4942  TIP3      OH2            45.3030233595        5.0427777139      -32.7137296465  W2        4942            0.0000000000
     14825      4942  TIP3      H1             45.2195033595        5.9310877139      -32.3670896465  W2        4942            0.0000000000
     14826      4942  TIP3      H2             46.1930533595        4.7774477139      -32.4820496465  W2        4942            0.0000000000
     14827      4943  TIP3      OH2            54.1039733595        9.5419377139      -26.2237296465  W2        4943            0.0000000000
     14828      4943  TIP3      H1             53.3064133595        9.1269577139      -26.5522296465  W2        4943            0.0000000000
     14829      4943  TIP3      H2             54.5490833595        8.8513077139      -25.7326796465  W2        4943            0.0000000000
     14830      4944  TIP3      OH2            43.5615533595       15.4699977139      -33.6532796465  W2        4944            0.0000000000
     14831      4944  TIP3      H1             44.1537033595       16.1694777139      -33.3770396465  W2        4944            0.0000000000
     14832      4944  TIP3      H2             44.0208533595       15.0369477139      -34.3728196465  W2        4944            0.0000000000
     14833      4945  TIP3      OH2            41.8774733595        8.1342977139      -34.5373396465  W2        4945            0.0000000000
     14834      4945  TIP3      H1             41.8327333595        9.0736077139      -34.3586396465  W2        4945            0.0000000000
     14835      4945  TIP3      H2             40.9897933595        7.8987877139      -34.8071296465  W2        4945            0.0000000000
     14836      4946  TIP3      OH2            42.6856733595        2.9159577139      -25.8642396465  W2        4946            0.0000000000
     14837      4946  TIP3      H1             42.4566533595        2.9752077139      -26.7917396465  W2        4946            0.0000000000
     14838      4946  TIP3      H2             42.2430133595        2.1245077139      -25.5578296465  W2        4946            0.0000000000
     14839      4947  TIP3      OH2            41.6160033595       16.8566677139      -29.7036596465  W2        4947            0.0000000000
     14840      4947  TIP3      H1             40.7838633595       17.3289377139      -29.6765196465  W2        4947            0.0000000000
     14841      4947  TIP3      H2             42.1618333595       17.3664277139      -30.3023496465  W2        4947            0.0000000000
     14842      4948  TIP3      OH2            40.9043733595       19.4690377139      -18.3738596465  W2        4948            0.0000000000
     14843      4948  TIP3      H1             41.4445933595       19.2524377139      -17.6139396465  W2        4948            0.0000000000
     14844      4948  TIP3      H2             40.4231733595       18.6636377139      -18.5636096465  W2        4948            0.0000000000
     14845      4949  TIP3      OH2            45.5017133595       18.3884777139      -16.7534396465  W2        4949            0.0000000000
     14846      4949  TIP3      H1             46.2694333595       17.9295577139      -16.4125196465  W2        4949            0.0000000000
     14847      4949  TIP3      H2             45.4803333595       18.1624577139      -17.6833196465  W2        4949            0.0000000000
     14848      4950  TIP3      OH2            49.5936733595       17.8965377139      -35.3782596465  W2        4950            0.0000000000
     14849      4950  TIP3      H1             48.9497733595       17.2653977139      -35.0568896465  W2        4950            0.0000000000
     14850      4950  TIP3      H2             50.3555033595       17.3653377139      -35.6099096465  W2        4950            0.0000000000
     14851      4951  TIP3      OH2            52.0785833595       16.7685877139      -18.0242896465  W2        4951            0.0000000000
     14852      4951  TIP3      H1             51.7275333595       15.9118877139      -17.7812496465  W2        4951            0.0000000000
     14853      4951  TIP3      H2             52.8049033595       16.9112577139      -17.4173896465  W2        4951            0.0000000000
     14854      4952  TIP3      OH2            54.1979633595       17.7135277139      -35.1444596465  W2        4952            0.0000000000
     14855      4952  TIP3      H1             54.4810033595       16.9190477139      -34.6917696465  W2        4952            0.0000000000
     14856      4952  TIP3      H2             54.9377533595       17.9466277139      -35.7053496465  W2        4952            0.0000000000
     14857      4953  TIP3      OH2            40.8113233595       13.2794477139      -17.4194296465  W2        4953            0.0000000000
     14858      4953  TIP3      H1             40.9553733595       12.3775177139      -17.7057596465  W2        4953            0.0000000000
     14859      4953  TIP3      H2             40.0390633595       13.5656577139      -17.9071996465  W2        4953            0.0000000000
     14860      4954  TIP3      OH2            45.1526933595       13.6230177139      -35.2869696465  W2        4954            0.0000000000
     14861      4954  TIP3      H1             45.2171033595       12.8289777139      -34.7563296465  W2        4954            0.0000000000
     14862      4954  TIP3      H2             45.8056133595       13.5042977139      -35.9767696465  W2        4954            0.0000000000
     14863      4955  TIP3      OH2            47.4669333595       13.2492577139      -17.9867896465  W2        4955            0.0000000000
     14864      4955  TIP3      H1             47.1383133595       13.5200677139      -18.8440496465  W2        4955            0.0000000000
     14865      4955  TIP3      H2             47.6187533595       12.3082377139      -18.0742896465  W2        4955            0.0000000000
     14866      4956  TIP3      OH2            50.5050333595       14.6701877139      -35.5511696465  W2        4956            0.0000000000
     14867      4956  TIP3      H1             50.2364433595       14.8503977139      -34.6502796465  W2        4956            0.0000000000
     14868      4956  TIP3      H2             50.2985933595       13.7448077139      -35.6825896465  W2        4956            0.0000000000
     14869      4957  TIP3      OH2            53.2014533595       13.1649877139      -20.6035596465  W2        4957            0.0000000000
     14870      4957  TIP3      H1             53.9469333595       13.7533577139      -20.7231596465  W2        4957            0.0000000000
     14871      4957  TIP3      H2             52.4441333595       13.7469577139      -20.5402496465  W2        4957            0.0000000000
     14872      4958  TIP3      OH2            41.6439733595       10.4797777139      -17.9994996465  W2        4958            0.0000000000
     14873      4958  TIP3      H1             42.0520933595        9.6224377139      -18.1204396465  W2        4958            0.0000000000
     14874      4958  TIP3      H2             41.3837333595       10.4939077139      -17.0784696465  W2        4958            0.0000000000
     14875      4959  TIP3      OH2            46.3020733595       11.5956377139      -32.9811696465  W2        4959            0.0000000000
     14876      4959  TIP3      H1             45.8422733595       11.1114677139      -32.2953196465  W2        4959            0.0000000000
     14877      4959  TIP3      H2             46.5569433595       10.9271777139      -33.6171196465  W2        4959            0.0000000000
     14878      4960  TIP3      OH2            45.5910033595        9.4883477139      -20.6252096465  W2        4960            0.0000000000
     14879      4960  TIP3      H1             44.9726133595       10.1630077139      -20.3447396465  W2        4960            0.0000000000
     14880      4960  TIP3      H2             45.9351233595        9.8097377139      -21.4585896465  W2        4960            0.0000000000
     14881      4961  TIP3      OH2            47.3731133595        9.8388177139      -34.7188496465  W2        4961            0.0000000000
     14882      4961  TIP3      H1             47.1926133595        9.6839377139      -35.6460196465  W2        4961            0.0000000000
     14883      4961  TIP3      H2             48.3231633595        9.9466877139      -34.6740596465  W2        4961            0.0000000000
     14884      4962  TIP3      OH2            50.6108233595       11.9598777139      -17.3477296465  W2        4962            0.0000000000
     14885      4962  TIP3      H1             51.5639433595       12.0437877139      -17.3751296465  W2        4962            0.0000000000
     14886      4962  TIP3      H2             50.4502833595       11.2480577139      -16.7282396465  W2        4962            0.0000000000
     14887      4963  TIP3      OH2            45.9303733595        6.8434277139      -19.5428996465  W2        4963            0.0000000000
     14888      4963  TIP3      H1             46.0804633595        6.1145577139      -20.1449296465  W2        4963            0.0000000000
     14889      4963  TIP3      H2             45.9326133595        7.6205977139      -20.1016796465  W2        4963            0.0000000000
     14890      4964  TIP3      OH2            46.3429433595        5.2130077139      -22.0501596465  W2        4964            0.0000000000
     14891      4964  TIP3      H1             46.8786933595        5.6646777139      -22.7022296465  W2        4964            0.0000000000
     14892      4964  TIP3      H2             45.4909033595        5.1049877139      -22.4727496465  W2        4964            0.0000000000
     14893      4965  TIP3      OH2            47.9247833595       10.6526277139      -21.8106396465  W2        4965            0.0000000000
     14894      4965  TIP3      H1             48.6752633595       10.4963777139      -22.3838596465  W2        4965            0.0000000000
     14895      4965  TIP3      H2             47.5856133595       11.5042877139      -22.0860896465  W2        4965            0.0000000000
     14896      4966  TIP3      OH2            52.3404033595        8.4678077139      -16.7821096465  W2        4966            0.0000000000
     14897      4966  TIP3      H1             52.5325333595        7.5367477139      -16.8936596465  W2        4966            0.0000000000
     14898      4966  TIP3      H2             53.1980333595        8.8927577139      -16.7925696465  W2        4966            0.0000000000
     14899      4967  TIP3      OH2            53.6571233595       11.2563277139      -18.7048396465  W2        4967            0.0000000000
     14900      4967  TIP3      H1             53.3756233595       11.9657877139      -19.2824596465  W2        4967            0.0000000000
     14901      4967  TIP3      H2             54.5995533595       11.1836277139      -18.8557196465  W2        4967            0.0000000000
     14902      4968  TIP3      OH2            44.4090033595        8.0417777139      -17.6313396465  W2        4968            0.0000000000
     14903      4968  TIP3      H1             43.6419033595        7.5092577139      -17.8415796465  W2        4968            0.0000000000
     14904      4968  TIP3      H2             45.0879033595        7.7318177139      -18.2307096465  W2        4968            0.0000000000
     14905      4969  TIP3      OH2            47.1484933595        2.6695777139      -21.6187996465  W2        4969            0.0000000000
     14906      4969  TIP3      H1             47.0504533595        3.6158977139      -21.7241796465  W2        4969            0.0000000000
     14907      4969  TIP3      H2             46.4061133595        2.2969577139      -22.0944496465  W2        4969            0.0000000000
     14908      4970  TIP3      OH2            48.4125433595        6.9911177139      -18.0549596465  W2        4970            0.0000000000
     14909      4970  TIP3      H1             48.1770833595        6.7717877139      -17.1534696465  W2        4970            0.0000000000
     14910      4970  TIP3      H2             47.6292333595        6.7842377139      -18.5647096465  W2        4970            0.0000000000
     14911      4971  TIP3      OH2            51.1282033595        6.1184677139      -18.9796096465  W2        4971            0.0000000000
     14912      4971  TIP3      H1             50.1807433595        6.1504377139      -18.8472796465  W2        4971            0.0000000000
     14913      4971  TIP3      H2             51.4408733595        5.4931777139      -18.3257896465  W2        4971            0.0000000000
     14914      4972  TIP3      OH2            52.7623533595        4.7525777139      -16.9744196465  W2        4972            0.0000000000
     14915      4972  TIP3      H1             52.6655333595        3.8003077139      -16.9802296465  W2        4972            0.0000000000
     14916      4972  TIP3      H2             52.4406633595        5.0212577139      -16.1138696465  W2        4972            0.0000000000
     14917      4973  TIP3      OH2            42.5892833595        5.9621577139      -17.9268696465  W2        4973            0.0000000000
     14918      4973  TIP3      H1             42.8010233595        5.2557677139      -18.5371196465  W2        4973            0.0000000000
     14919      4973  TIP3      H2             42.4780333595        5.5247577139      -17.0827496465  W2        4973            0.0000000000
     14920      4974  TIP3      OH2            47.3703033595        1.9633177139      -18.9475196465  W2        4974            0.0000000000
     14921      4974  TIP3      H1             48.0821433595        1.3235377139      -18.9616096465  W2        4974            0.0000000000
     14922      4974  TIP3      H2             47.2693433595        2.2301477139      -19.8612096465  W2        4974            0.0000000000
     14923      4975  TIP3      OH2            47.7240533595        3.6461577139      -16.8938896465  W2        4975            0.0000000000
     14924      4975  TIP3      H1             47.5922733595        3.1705377139      -17.7140396465  W2        4975            0.0000000000
     14925      4975  TIP3      H2             47.1247933595        4.3905177139      -16.9491796465  W2        4975            0.0000000000
     14926      4976  TIP3      OH2            47.2702833595       20.5291877139      -33.7174896465  W2        4976            0.0000000000
     14927      4976  TIP3      H1             48.2033533595       20.6870577139      -33.5736496465  W2        4976            0.0000000000
     14928      4976  TIP3      H2             47.0061633595       21.2044877139      -34.3423396465  W2        4976            0.0000000000
     14929      4977  TIP3      OH2            40.8387733595       15.1655677139      -34.2346796465  W2        4977            0.0000000000
     14930      4977  TIP3      H1             41.7526933595       15.2444577139      -33.9612896465  W2        4977            0.0000000000
     14931      4977  TIP3      H2             40.8460833595       14.4785277139      -34.9011196465  W2        4977            0.0000000000
     14932      4978  TIP3      OH2            39.4878333595       20.5584177139      -29.1572896465  W2        4978            0.0000000000
     14933      4978  TIP3      H1             38.8405433595       20.0965877139      -29.6901696465  W2        4978            0.0000000000
     14934      4978  TIP3      H2             39.8422933595       19.8867477139      -28.5746696465  W2        4978            0.0000000000
     14935      4979  TIP3      OH2            40.3577533595       18.6391177139      -27.3526696465  W2        4979            0.0000000000
     14936      4979  TIP3      H1             40.0234333595       17.7588477139      -27.1806496465  W2        4979            0.0000000000
     14937      4979  TIP3      H2             40.5799933595       18.9846177139      -26.4881096465  W2        4979            0.0000000000
     14938      4980  TIP3      OH2            40.4377033595       11.7146577139      -24.9011796465  W2        4980            0.0000000000
     14939      4980  TIP3      H1             40.6219933595       11.6328277139      -25.8368896465  W2        4980            0.0000000000
     14940      4980  TIP3      H2             41.2869933595       11.5903577139      -24.4775396465  W2        4980            0.0000000000
     14941      4981  TIP3      OH2            40.0351833595        6.9851577139      -18.7602996465  W2        4981            0.0000000000
     14942      4981  TIP3      H1             40.9546733595        6.8629877139      -18.5239896465  W2        4981            0.0000000000
     14943      4981  TIP3      H2             39.5856333595        6.2351277139      -18.3709496465  W2        4981            0.0000000000
     14944      4982  TIP3      OH2            41.2564333595        5.2973177139      -25.8690096465  W2        4982            0.0000000000
     14945      4982  TIP3      H1             41.7015933595        4.5055677139      -25.5670396465  W2        4982            0.0000000000
     14946      4982  TIP3      H2             41.7227333595        6.0138377139      -25.4384496465  W2        4982            0.0000000000
     14947      4983  TIP3      OH2            39.5604633595        8.2966177139      -24.7999896465  W2        4983            0.0000000000
     14948      4983  TIP3      H1             40.0524433595        8.0756677139      -25.5907896465  W2        4983            0.0000000000
     14949      4983  TIP3      H2             39.9225533595        9.1369577139      -24.5190396465  W2        4983            0.0000000000
     14950      4984  TIP3      OH2            39.8741133595        4.5545277139      -30.7457496465  W2        4984            0.0000000000
     14951      4984  TIP3      H1             38.9489533595        4.7631877139      -30.8751996465  W2        4984            0.0000000000
     14952      4984  TIP3      H2             40.3281033595        5.0386077139      -31.4355196465  W2        4984            0.0000000000
     14953      4985  TIP3      OH2            54.6448333595       19.5386977139      -28.8000096465  W2        4985            0.0000000000
     14954      4985  TIP3      H1             55.2971233595       19.1909077139      -29.4080996465  W2        4985            0.0000000000
     14955      4985  TIP3      H2             55.1552133595       20.0270177139      -28.1540396465  W2        4985            0.0000000000
     14956      4986  TIP3      OH2            39.8376533595        3.2924277139      -22.4014996465  W2        4986            0.0000000000
     14957      4986  TIP3      H1             39.1727033595        3.0464577139      -21.7584096465  W2        4986            0.0000000000
     14958      4986  TIP3      H2             39.3947833595        3.9144677139      -22.9786996465  W2        4986            0.0000000000
     14959      4987  TIP3      OH2            42.0295833595       16.4678377139      -18.2569196465  W2        4987            0.0000000000
     14960      4987  TIP3      H1             41.2088333595       16.6424877139      -18.7174496465  W2        4987            0.0000000000
     14961      4987  TIP3      H2             41.7773633595       16.3943077139      -17.3364796465  W2        4987            0.0000000000
     14962      4988  TIP3      OH2            44.9838733595       17.4419577139      -21.9985196465  W2        4988            0.0000000000
     14963      4988  TIP3      H1             44.5589833595       18.2518077139      -22.2810596465  W2        4988            0.0000000000
     14964      4988  TIP3      H2             45.8881533595       17.5273677139      -22.3005396465  W2        4988            0.0000000000
     14965      4989  TIP3      OH2            49.2950133595       18.8409577139      -19.0391496465  W2        4989            0.0000000000
     14966      4989  TIP3      H1             49.4797633595       18.5075677139      -18.1611196465  W2        4989            0.0000000000
     14967      4989  TIP3      H2             50.1414633595       19.1508177139      -19.3612296465  W2        4989            0.0000000000
     14968      4990  TIP3      OH2            51.6400533595       20.1268477139      -19.7950096465  W2        4990            0.0000000000
     14969      4990  TIP3      H1             52.3169433595       19.4940777139      -20.0350896465  W2        4990            0.0000000000
     14970      4990  TIP3      H2             51.9619333595       20.5278977139      -18.9876796465  W2        4990            0.0000000000
     14971      4991  TIP3      OH2            42.3855433595       20.6983477139      -21.9509896465  W2        4991            0.0000000000
     14972      4991  TIP3      H1             41.6651833595       21.1384477139      -22.4022196465  W2        4991            0.0000000000
     14973      4991  TIP3      H2             42.0199433595       20.4478177139      -21.1025896465  W2        4991            0.0000000000
     14974      4992  TIP3      OH2            44.8528033595       20.2987377139      -22.9212696465  W2        4992            0.0000000000
     14975      4992  TIP3      H1             43.9880233595       20.3705877139      -22.5172596465  W2        4992            0.0000000000
     14976      4992  TIP3      H2             44.7977033595       20.8454677139      -23.7050196465  W2        4992            0.0000000000
     14977      4993  TIP3      OH2            49.5633633595       20.1866277139      -23.7456696465  W2        4993            0.0000000000
     14978      4993  TIP3      H1             49.1067633595       20.7155977139      -24.3998296465  W2        4993            0.0000000000
     14979      4993  TIP3      H2             49.7261633595       20.7897677139      -23.0204396465  W2        4993            0.0000000000
     14980      4994  TIP3      OH2            51.8909933595       19.0645877139      -22.8006396465  W2        4994            0.0000000000
     14981      4994  TIP3      H1             50.9863633595       19.2296077139      -23.0664296465  W2        4994            0.0000000000
     14982      4994  TIP3      H2             52.3198533595       19.9178077139      -22.8662996465  W2        4994            0.0000000000
     14983      4995  TIP3      OH2            54.4951833595       20.6344977139      -22.5058596465  W2        4995            0.0000000000
     14984      4995  TIP3      H1             54.3133833595       21.5503877139      -22.7163696465  W2        4995            0.0000000000
     14985      4995  TIP3      H2             54.6719633595       20.2242077139      -23.3523996465  W2        4995            0.0000000000
     14986      4996  TIP3      OH2            41.8003533595       19.3215977139      -25.0408096465  W2        4996            0.0000000000
     14987      4996  TIP3      H1             41.7819533595       18.8961077139      -24.1835796465  W2        4996            0.0000000000
     14988      4996  TIP3      H2             42.6051433595       19.0030977139      -25.4495896465  W2        4996            0.0000000000
     14989      4997  TIP3      OH2            43.9416633595       18.0314677139      -26.3858196465  W2        4997            0.0000000000
     14990      4997  TIP3      H1             43.7227333595       17.1152077139      -26.2162196465  W2        4997            0.0000000000
     14991      4997  TIP3      H2             44.7658833595       18.1715077139      -25.9196796465  W2        4997            0.0000000000
     14992      4998  TIP3      OH2            46.4789133595       18.5013977139      -25.5370196465  W2        4998            0.0000000000
     14993      4998  TIP3      H1             46.6914833595       17.6132977139      -25.8239296465  W2        4998            0.0000000000
     14994      4998  TIP3      H2             46.5434233595       18.4671677139      -24.5826196465  W2        4998            0.0000000000
     14995      4999  TIP3      OH2            49.9872833595        4.1654577139      -26.3926896465  W2        4999            0.0000000000
     14996      4999  TIP3      H1             49.3129633595        3.5360177139      -26.1371096465  W2        4999            0.0000000000
     14997      4999  TIP3      H2             50.5512033595        3.6813477139      -26.9958996465  W2        4999            0.0000000000
     14998      5000  TIP3      OH2            42.3140333595        2.7994877139      -28.5706996465  W2        5000            0.0000000000
     14999      5000  TIP3      H1             41.5370133595        2.5649777139      -29.0781096465  W2        5000            0.0000000000
     15000      5000  TIP3      H2             42.8443933595        2.0026977139      -28.5618996465  W2        5000            0.0000000000
     15001      5001  TIP3      OH2            41.1503733595        2.5972977139      -32.7670896465  W2        5001            0.0000000000
     15002      5001  TIP3      H1             41.5894433595        3.2083477139      -33.3587396465  W2        5001            0.0000000000
     15003      5001  TIP3      H2             40.5166133595        3.1357077139      -32.2930896465  W2        5001            0.0000000000
     15004      5002  TIP3      OH2            46.8932933595        2.7261977139      -28.7573896465  W2        5002            0.0000000000
     15005      5002  TIP3      H1             47.7676333595        3.1146277139      -28.7869596465  W2        5002            0.0000000000
     15006      5002  TIP3      H2             46.7573733595        2.5109777139      -27.8346696465  W2        5002            0.0000000000
     15007      5003  TIP3      OH2            52.4501333595        2.7561777139      -27.1082196465  W2        5003            0.0000000000
     15008      5003  TIP3      H1             52.5262933595        2.8513377139      -28.0576196465  W2        5003            0.0000000000
     15009      5003  TIP3      H2             52.1750533595        1.8484677139      -26.9793096465  W2        5003            0.0000000000
     15010      5004  TIP3      OH2            53.8033933595        2.7819577139      -31.4157196465  W2        5004            0.0000000000
     15011      5004  TIP3      H1             53.1005033595        3.3968777139      -31.6255796465  W2        5004            0.0000000000
     15012      5004  TIP3      H2             53.3585333595        1.9446277139      -31.2846296465  W2        5004            0.0000000000
     15013      5005  TIP3      OH2            41.0513233595       18.5455177139      -31.8695796465  W2        5005            0.0000000000
     15014      5005  TIP3      H1             40.3663133595       18.5074077139      -32.5370696465  W2        5005            0.0000000000
     15015      5005  TIP3      H2             41.0550433595       19.4582777139      -31.5813696465  W2        5005            0.0000000000
     15016      5006  TIP3      OH2            43.0112833595        4.5134477139      -34.3246796465  W2        5006            0.0000000000
     15017      5006  TIP3      H1             43.5026233595        3.8836877139      -34.8521296465  W2        5006            0.0000000000
     15018      5006  TIP3      H2             43.6349133595        4.8093877139      -33.6615596465  W2        5006            0.0000000000
     15019      5007  TIP3      OH2            48.0372933595        4.8065977139      -31.8676296465  W2        5007            0.0000000000
     15020      5007  TIP3      H1             48.2154233595        4.1599177139      -31.1847696465  W2        5007            0.0000000000
     15021      5007  TIP3      H2             47.9839133595        5.6403677139      -31.4005196465  W2        5007            0.0000000000
     15022      5008  TIP3      OH2            49.9156733595       19.7550077139      -33.4719596465  W2        5008            0.0000000000
     15023      5008  TIP3      H1             50.7816933595       20.1217477139      -33.6501396465  W2        5008            0.0000000000
     15024      5008  TIP3      H2             49.6689533595       19.3158077139      -34.2858796465  W2        5008            0.0000000000
     15025      5009  TIP3      OH2            42.2718333595        3.3136777139      -19.0530796465  W2        5009            0.0000000000
     15026      5009  TIP3      H1             41.9056533595        2.5479377139      -18.6106096465  W2        5009            0.0000000000
     15027      5009  TIP3      H2             43.1846833595        3.3426977139      -18.7665696465  W2        5009            0.0000000000
     15028      5010  TIP3      OH2            44.2449133595        2.6641177139      -17.5173696465  W2        5010            0.0000000000
     15029      5010  TIP3      H1             45.1432733595        2.3901377139      -17.7020296465  W2        5010            0.0000000000
     15030      5010  TIP3      H2             43.8582233595        1.9217177139      -17.0531096465  W2        5010            0.0000000000
     15031      5011  TIP3      OH2            42.8694433595       19.4655977139      -34.8443696465  W2        5011            0.0000000000
     15032      5011  TIP3      H1             42.6019033595       19.7518877139      -33.9710596465  W2        5011            0.0000000000
     15033      5011  TIP3      H2             43.6407033595       18.9195177139      -34.6921196465  W2        5011            0.0000000000
     15034      5012  TIP3      OH2            52.6661433595        1.9966477139      -17.3350896465  W2        5012            0.0000000000
     15035      5012  TIP3      H1             52.7428633595        1.5707177139      -16.4813196465  W2        5012            0.0000000000
     15036      5012  TIP3      H2             53.5598033595        2.0101177139      -17.6777396465  W2        5012            0.0000000000
     15037      5013  TIP3      OH2           -42.8877066405       30.8117177139      -28.6119496465  W2        5013            0.0000000000
     15038      5013  TIP3      H1            -42.7985966405       31.7555377139      -28.7442396465  W2        5013            0.0000000000
     15039      5013  TIP3      H2            -43.5259466405       30.5363577139      -29.2700096465  W2        5013            0.0000000000
     15040      5014  TIP3      OH2           -43.9545766405       30.0667877139      -25.1931296465  W2        5014            0.0000000000
     15041      5014  TIP3      H1            -43.9928266405       29.4204177139      -24.4881696465  W2        5014            0.0000000000
     15042      5014  TIP3      H2            -44.2769266405       29.6002277139      -25.9642596465  W2        5014            0.0000000000
     15043      5015  TIP3      OH2           -51.5860766405       29.6809977139      -23.6001396465  W2        5015            0.0000000000
     15044      5015  TIP3      H1            -51.5448666405       29.0553277139      -22.8768996465  W2        5015            0.0000000000
     15045      5015  TIP3      H2            -50.8833066405       30.3048577139      -23.4180996465  W2        5015            0.0000000000
     15046      5016  TIP3      OH2           -40.2485566405       33.0058277139      -26.8916196465  W2        5016            0.0000000000
     15047      5016  TIP3      H1            -40.6892866405       32.2854277139      -26.4410596465  W2        5016            0.0000000000
     15048      5016  TIP3      H2            -40.2615866405       33.7265477139      -26.2618496465  W2        5016            0.0000000000
     15049      5017  TIP3      OH2           -50.6627666405       34.1308877139      -25.0652296465  W2        5017            0.0000000000
     15050      5017  TIP3      H1            -51.0322466405       33.3289377139      -25.4347996465  W2        5017            0.0000000000
     15051      5017  TIP3      H2            -49.7216566405       33.9623777139      -25.0188896465  W2        5017            0.0000000000
     15052      5018  TIP3      OH2           -54.0527166405       27.7911477139      -29.6723496465  W2        5018            0.0000000000
     15053      5018  TIP3      H1            -54.5003766405       28.6370177139      -29.6906996465  W2        5018            0.0000000000
     15054      5018  TIP3      H2            -54.6135966405       27.2115677139      -30.1878396465  W2        5018            0.0000000000
     15055      5019  TIP3      OH2           -53.3421066405       29.9531077139      -27.5465496465  W2        5019            0.0000000000
     15056      5019  TIP3      H1            -53.1287566405       29.1832677139      -27.0192496465  W2        5019            0.0000000000
     15057      5019  TIP3      H2            -52.6043466405       30.0427777139      -28.1497896465  W2        5019            0.0000000000
     15058      5020  TIP3      OH2           -43.1370066405       38.1099977139      -26.6795796465  W2        5020            0.0000000000
     15059      5020  TIP3      H1            -42.5173666405       37.4334677139      -26.9526596465  W2        5020            0.0000000000
     15060      5020  TIP3      H2            -43.3452666405       37.8920777139      -25.7710896465  W2        5020            0.0000000000
     15061      5021  TIP3      OH2           -45.5651366405       32.4989277139      -24.7870296465  W2        5021            0.0000000000
     15062      5021  TIP3      H1            -45.2613466405       31.8130677139      -25.3816196465  W2        5021            0.0000000000
     15063      5021  TIP3      H2            -44.8437366405       32.6177977139      -24.1692296465  W2        5021            0.0000000000
     15064      5022  TIP3      OH2           -36.9021566405       24.1004577139      -23.9264096465  W2        5022            0.0000000000
     15065      5022  TIP3      H1            -36.8529366405       24.7105777139      -23.1904996465  W2        5022            0.0000000000
     15066      5022  TIP3      H2            -36.4766466405       24.5615477139      -24.6492996465  W2        5022            0.0000000000
     15067      5023  TIP3      OH2           -42.4244366405       26.8931677139      -24.4595496465  W2        5023            0.0000000000
     15068      5023  TIP3      H1            -42.2818466405       25.9468677139      -24.4393896465  W2        5023            0.0000000000
     15069      5023  TIP3      H2            -42.5305366405       27.1001477139      -25.3880596465  W2        5023            0.0000000000
     15070      5024  TIP3      OH2           -49.2696066405       24.9948077139      -27.1870696465  W2        5024            0.0000000000
     15071      5024  TIP3      H1            -49.2264966405       25.8546577139      -27.6054396465  W2        5024            0.0000000000
     15072      5024  TIP3      H2            -49.7271966405       24.4422777139      -27.8207496465  W2        5024            0.0000000000
     15073      5025  TIP3      OH2           -41.5473366405       25.1253677139      -28.7862396465  W2        5025            0.0000000000
     15074      5025  TIP3      H1            -40.9009066405       24.7966877139      -28.1614796465  W2        5025            0.0000000000
     15075      5025  TIP3      H2            -41.0373966405       25.6432677139      -29.4090996465  W2        5025            0.0000000000
     15076      5026  TIP3      OH2           -52.6494566405       27.3913877139      -26.4249296465  W2        5026            0.0000000000
     15077      5026  TIP3      H1            -51.9957966405       26.8415577139      -25.9929196465  W2        5026            0.0000000000
     15078      5026  TIP3      H2            -52.6255266405       27.1172877139      -27.3417296465  W2        5026            0.0000000000
     15079      5027  TIP3      OH2           -47.4930066405       28.9415177139      -27.2097796465  W2        5027            0.0000000000
     15080      5027  TIP3      H1            -46.8769066405       28.4150577139      -26.7003796465  W2        5027            0.0000000000
     15081      5027  TIP3      H2            -48.0791266405       28.3013877139      -27.6134196465  W2        5027            0.0000000000
     15082      5028  TIP3      OH2           -36.5106966405       25.5783777139      -21.6904296465  W2        5028            0.0000000000
     15083      5028  TIP3      H1            -37.1992366405       26.2364477139      -21.7857696465  W2        5028            0.0000000000
     15084      5028  TIP3      H2            -36.4952366405       25.3811677139      -20.7538896465  W2        5028            0.0000000000
     15085      5029  TIP3      OH2           -50.4594166405       23.9126477139      -23.1129896465  W2        5029            0.0000000000
     15086      5029  TIP3      H1            -50.6782466405       24.4427077139      -23.8793896465  W2        5029            0.0000000000
     15087      5029  TIP3      H2            -51.1273266405       24.1391977139      -22.4658496465  W2        5029            0.0000000000
     15088      5030  TIP3      OH2           -43.0904366405       33.4127577139      -29.5690796465  W2        5030            0.0000000000
     15089      5030  TIP3      H1            -43.3859266405       33.0899877139      -30.4203896465  W2        5030            0.0000000000
     15090      5030  TIP3      H2            -43.4146566405       34.3124277139      -29.5278196465  W2        5030            0.0000000000
     15091      5031  TIP3      OH2           -47.8902766405       31.5882177139      -22.8256196465  W2        5031            0.0000000000
     15092      5031  TIP3      H1            -48.6303666405       32.1863677139      -22.7220996465  W2        5031            0.0000000000
     15093      5031  TIP3      H2            -47.1763266405       32.1421777139      -23.1412596465  W2        5031            0.0000000000
     15094      5032  TIP3      OH2           -39.7834966405       24.4162977139      -26.8056496465  W2        5032            0.0000000000
     15095      5032  TIP3      H1            -39.9986966405       23.6506377139      -26.2730496465  W2        5032            0.0000000000
     15096      5032  TIP3      H2            -39.1277566405       24.8887577139      -26.2927996465  W2        5032            0.0000000000
     15097      5033  TIP3      OH2           -50.8656866405       25.8048277139      -25.1607696465  W2        5033            0.0000000000
     15098      5033  TIP3      H1            -50.2520566405       26.4375877139      -24.7875296465  W2        5033            0.0000000000
     15099      5033  TIP3      H2            -50.3536166405       25.3323277139      -25.8170796465  W2        5033            0.0000000000
     15100      5034  TIP3      OH2           -49.4828466405       33.5525177139      -22.0384696465  W2        5034            0.0000000000
     15101      5034  TIP3      H1            -49.4880866405       34.4318677139      -22.4165396465  W2        5034            0.0000000000
     15102      5034  TIP3      H2            -50.3364366405       33.4689277139      -21.6134796465  W2        5034            0.0000000000
     15103      5035  TIP3      OH2           -53.3617566405       33.2233077139      -31.2565396465  W2        5035            0.0000000000
     15104      5035  TIP3      H1            -53.6336666405       33.4524077139      -32.1452496465  W2        5035            0.0000000000
     15105      5035  TIP3      H2            -53.3161866405       34.0611877139      -30.7960096465  W2        5035            0.0000000000
     15106      5036  TIP3      OH2           -39.7367866405       34.8448977139      -24.5436896465  W2        5036            0.0000000000
     15107      5036  TIP3      H1            -40.6784166405       34.9032877139      -24.3819996465  W2        5036            0.0000000000
     15108      5036  TIP3      H2            -39.4601766405       35.7509477139      -24.6807196465  W2        5036            0.0000000000
     15109      5037  TIP3      OH2           -39.4360866405       23.1314277139      -23.1262996465  W2        5037            0.0000000000
     15110      5037  TIP3      H1            -40.1721666405       23.7421377139      -23.1641696465  W2        5037            0.0000000000
     15111      5037  TIP3      H2            -38.7526866405       23.5463277139      -23.6526596465  W2        5037            0.0000000000
     15112      5038  TIP3      OH2           -46.4329466405       21.2181577139      -25.6604996465  W2        5038            0.0000000000
     15113      5038  TIP3      H1            -46.5505266405       20.2697577139      -25.7146696465  W2        5038            0.0000000000
     15114      5038  TIP3      H2            -47.2879366405       21.5507677139      -25.3873896465  W2        5038            0.0000000000
     15115      5039  TIP3      OH2           -41.4846666405       36.6262477139      -27.9185296465  W2        5039            0.0000000000
     15116      5039  TIP3      H1            -41.0594366405       35.9190377139      -28.4035696465  W2        5039            0.0000000000
     15117      5039  TIP3      H2            -41.1676666405       37.4275177139      -28.3353096465  W2        5039            0.0000000000
     15118      5040  TIP3      OH2           -40.3250166405       34.5270977139      -29.4098696465  W2        5040            0.0000000000
     15119      5040  TIP3      H1            -40.5825366405       33.8371077139      -30.0212796465  W2        5040            0.0000000000
     15120      5040  TIP3      H2            -40.2539366405       34.0842177139      -28.5642796465  W2        5040            0.0000000000
     15121      5041  TIP3      OH2           -38.6389966405       33.0937677139      -20.9325196465  W2        5041            0.0000000000
     15122      5041  TIP3      H1            -38.4993666405       32.5020177139      -21.6718196465  W2        5041            0.0000000000
     15123      5041  TIP3      H2            -38.4717166405       33.9663577139      -21.2886396465  W2        5041            0.0000000000
     15124      5042  TIP3      OH2           -44.1664566405       30.0557177139      -31.1599196465  W2        5042            0.0000000000
     15125      5042  TIP3      H1            -44.8779066405       30.5906877139      -31.5118696465  W2        5042            0.0000000000
     15126      5042  TIP3      H2            -43.4754966405       30.1109277139      -31.8200296465  W2        5042            0.0000000000
     15127      5043  TIP3      OH2           -44.1125366405       28.5131477139      -34.1214196465  W2        5043            0.0000000000
     15128      5043  TIP3      H1            -43.4115466405       28.5358377139      -33.4700196465  W2        5043            0.0000000000
     15129      5043  TIP3      H2            -43.8102466405       27.8851177139      -34.7774896465  W2        5043            0.0000000000
     15130      5044  TIP3      OH2           -36.7970666405       29.4335677139      -22.8664796465  W2        5044            0.0000000000
     15131      5044  TIP3      H1            -37.4496566405       30.1281277139      -22.7773896465  W2        5044            0.0000000000
     15132      5044  TIP3      H2            -36.3320366405       29.6436577139      -23.6763196465  W2        5044            0.0000000000
     15133      5045  TIP3      OH2           -40.7606866405       30.2650477139      -30.2083296465  W2        5045            0.0000000000
     15134      5045  TIP3      H1            -41.4925866405       30.4934177139      -29.6352696465  W2        5045            0.0000000000
     15135      5045  TIP3      H2            -40.3134666405       29.5513177139      -29.7535796465  W2        5045            0.0000000000
     15136      5046  TIP3      OH2           -40.8633366405       28.4393077139      -21.1406296465  W2        5046            0.0000000000
     15137      5046  TIP3      H1            -40.7834266405       29.2027477139      -20.5687796465  W2        5046            0.0000000000
     15138      5046  TIP3      H2            -41.4645666405       28.7185477139      -21.8311196465  W2        5046            0.0000000000
     15139      5047  TIP3      OH2           -49.1153166405       30.8956677139      -28.3258296465  W2        5047            0.0000000000
     15140      5047  TIP3      H1            -49.4457966405       30.5250077139      -29.1441296465  W2        5047            0.0000000000
     15141      5047  TIP3      H2            -48.5269066405       30.2250677139      -27.9789996465  W2        5047            0.0000000000
     15142      5048  TIP3      OH2           -47.7485666405       34.3237277139      -25.6446096465  W2        5048            0.0000000000
     15143      5048  TIP3      H1            -47.8434366405       33.7450377139      -26.4011496465  W2        5048            0.0000000000
     15144      5048  TIP3      H2            -47.0192066405       33.9522977139      -25.1483296465  W2        5048            0.0000000000
     15145      5049  TIP3      OH2           -48.7487666405       29.6642277139      -24.6923296465  W2        5049            0.0000000000
     15146      5049  TIP3      H1            -48.1835166405       29.7856477139      -25.4552096465  W2        5049            0.0000000000
     15147      5049  TIP3      H2            -48.4298766405       30.3017277139      -24.0534796465  W2        5049            0.0000000000
     15148      5050  TIP3      OH2           -42.4395466405       35.1674177139      -23.9582796465  W2        5050            0.0000000000
     15149      5050  TIP3      H1            -42.6798866405       35.8297277139      -23.3103596465  W2        5050            0.0000000000
     15150      5050  TIP3      H2            -42.6377266405       34.3329377139      -23.5333196465  W2        5050            0.0000000000
     15151      5051  TIP3      OH2           -47.8686966405       34.0634977139      -19.9751396465  W2        5051            0.0000000000
     15152      5051  TIP3      H1            -48.1799466405       34.8458177139      -19.5198196465  W2        5051            0.0000000000
     15153      5051  TIP3      H2            -48.5186766405       33.9104077139      -20.6609396465  W2        5051            0.0000000000
     15154      5052  TIP3      OH2           -41.8897366405       29.4273377139      -32.5232096465  W2        5052            0.0000000000
     15155      5052  TIP3      H1            -41.3101866405       29.5773677139      -31.7763196465  W2        5052            0.0000000000
     15156      5052  TIP3      H2            -41.4757366405       29.8980777139      -33.2465696465  W2        5052            0.0000000000
     15157      5053  TIP3      OH2           -50.9487066405       30.2616077139      -20.7465696465  W2        5053            0.0000000000
     15158      5053  TIP3      H1            -50.8783866405       30.9122877139      -20.0480696465  W2        5053            0.0000000000
     15159      5053  TIP3      H2            -51.8394866405       30.3643577139      -21.0814796465  W2        5053            0.0000000000
     15160      5054  TIP3      OH2           -44.1632466405       36.1641877139      -29.0878996465  W2        5054            0.0000000000
     15161      5054  TIP3      H1            -43.6894866405       36.4598177139      -28.3104796465  W2        5054            0.0000000000
     15162      5054  TIP3      H2            -44.7263166405       36.9023477139      -29.3209396465  W2        5054            0.0000000000
     15163      5055  TIP3      OH2           -49.6291066405       36.1349977139      -19.2117596465  W2        5055            0.0000000000
     15164      5055  TIP3      H1            -49.6215766405       35.9989677139      -20.1592096465  W2        5055            0.0000000000
     15165      5055  TIP3      H2            -50.5450666405       36.0178077139      -18.9597596465  W2        5055            0.0000000000
     15166      5056  TIP3      OH2           -38.1908966405       21.1773777139      -32.7102396465  W2        5056            0.0000000000
     15167      5056  TIP3      H1            -39.0908266405       21.3162777139      -32.4151796465  W2        5056            0.0000000000
     15168      5056  TIP3      H2            -37.9390566405       22.0088377139      -33.1120696465  W2        5056            0.0000000000
     15169      5057  TIP3      OH2           -50.1250466405       29.9650977139      -30.7365496465  W2        5057            0.0000000000
     15170      5057  TIP3      H1            -50.4169166405       30.7332677139      -31.2274196465  W2        5057            0.0000000000
     15171      5057  TIP3      H2            -50.7995266405       29.3057177139      -30.8994096465  W2        5057            0.0000000000
     15172      5058  TIP3      OH2           -37.0017566405       35.5436177139      -34.3338496465  W2        5058            0.0000000000
     15173      5058  TIP3      H1            -36.9284066405       36.4826377139      -34.1633196465  W2        5058            0.0000000000
     15174      5058  TIP3      H2            -36.0962466405       35.2384777139      -34.3901196465  W2        5058            0.0000000000
     15175      5059  TIP3      OH2           -54.0320366405       32.3280177139      -21.9215696465  W2        5059            0.0000000000
     15176      5059  TIP3      H1            -54.5331966405       32.2999577139      -22.7365996465  W2        5059            0.0000000000
     15177      5059  TIP3      H2            -54.0266666405       31.4223377139      -21.6118396465  W2        5059            0.0000000000
     15178      5060  TIP3      OH2           -54.2817666405       35.1083977139      -25.0375496465  W2        5060            0.0000000000
     15179      5060  TIP3      H1            -53.3357066405       34.9640977139      -25.0565996465  W2        5060            0.0000000000
     15180      5060  TIP3      H2            -54.3941366405       35.8926777139      -24.5004296465  W2        5060            0.0000000000
     15181      5061  TIP3      OH2           -36.0839166405       35.7743677139      -19.3551796465  W2        5061            0.0000000000
     15182      5061  TIP3      H1            -36.1332366405       34.8191777139      -19.3924196465  W2        5061            0.0000000000
     15183      5061  TIP3      H2            -36.9106866405       36.0418977139      -18.9537996465  W2        5061            0.0000000000
     15184      5062  TIP3      OH2           -45.1055166405       35.3482877139      -20.4790396465  W2        5062            0.0000000000
     15185      5062  TIP3      H1            -45.0180566405       36.1747477139      -20.0041296465  W2        5062            0.0000000000
     15186      5062  TIP3      H2            -45.9690066405       35.0186677139      -20.2301096465  W2        5062            0.0000000000
     15187      5063  TIP3      OH2           -44.6909366405       39.1206577139      -30.6729796465  W2        5063            0.0000000000
     15188      5063  TIP3      H1            -44.7663366405       38.9993777139      -31.6194596465  W2        5063            0.0000000000
     15189      5063  TIP3      H2            -44.6580666405       40.0699277139      -30.5545196465  W2        5063            0.0000000000
     15190      5064  TIP3      OH2           -51.0375566405       37.9093577139      -28.8920796465  W2        5064            0.0000000000
     15191      5064  TIP3      H1            -50.8855166405       37.5613977139      -28.0134296465  W2        5064            0.0000000000
     15192      5064  TIP3      H2            -51.8885166405       37.5530877139      -29.1473596465  W2        5064            0.0000000000
     15193      5065  TIP3      OH2           -41.5893366405       38.2746777139      -33.6707396465  W2        5065            0.0000000000
     15194      5065  TIP3      H1            -41.2144966405       37.5302877139      -34.1414796465  W2        5065            0.0000000000
     15195      5065  TIP3      H2            -41.5849666405       38.0047377139      -32.7524096465  W2        5065            0.0000000000
     15196      5066  TIP3      OH2           -41.9205266405       38.2003877139      -30.9215196465  W2        5066            0.0000000000
     15197      5066  TIP3      H1            -42.8555466405       38.3005777139      -30.7428196465  W2        5066            0.0000000000
     15198      5066  TIP3      H2            -41.6403366405       37.4909877139      -30.3431996465  W2        5066            0.0000000000
     15199      5067  TIP3      OH2           -38.9319366405       27.2676177139      -18.8749596465  W2        5067            0.0000000000
     15200      5067  TIP3      H1            -39.3392566405       27.7481777139      -19.5956296465  W2        5067            0.0000000000
     15201      5067  TIP3      H2            -38.8913666405       26.3622177139      -19.1828796465  W2        5067            0.0000000000
     15202      5068  TIP3      OH2           -51.7829866405       33.6515577139      -20.8782896465  W2        5068            0.0000000000
     15203      5068  TIP3      H1            -51.5668566405       33.2901177139      -20.0187096465  W2        5068            0.0000000000
     15204      5068  TIP3      H2            -52.6385166405       33.2769377139      -21.0879396465  W2        5068            0.0000000000
     15205      5069  TIP3      OH2           -49.1641866405       22.1216077139      -24.8828696465  W2        5069            0.0000000000
     15206      5069  TIP3      H1            -50.0258166405       22.0344277139      -25.2905796465  W2        5069            0.0000000000
     15207      5069  TIP3      H2            -49.1866166405       22.9776177139      -24.4551096465  W2        5069            0.0000000000
     15208      5070  TIP3      OH2           -44.5014066405       21.8436477139      -21.5081696465  W2        5070            0.0000000000
     15209      5070  TIP3      H1            -44.0810966405       21.4283577139      -20.7551096465  W2        5070            0.0000000000
     15210      5070  TIP3      H2            -45.4344466405       21.6649777139      -21.3909696465  W2        5070            0.0000000000
     15211      5071  TIP3      OH2           -41.1749166405       25.5991677139      -20.6547196465  W2        5071            0.0000000000
     15212      5071  TIP3      H1            -41.6889666405       25.4733877139      -19.8571196465  W2        5071            0.0000000000
     15213      5071  TIP3      H2            -41.3304466405       26.5114777139      -20.8990996465  W2        5071            0.0000000000
     15214      5072  TIP3      OH2           -40.4124266405       30.4601677139      -34.8934196465  W2        5072            0.0000000000
     15215      5072  TIP3      H1            -40.3703466405       30.2375577139      -35.8234196465  W2        5072            0.0000000000
     15216      5072  TIP3      H2            -39.5632166405       30.8588777139      -34.7034296465  W2        5072            0.0000000000
     15217      5073  TIP3      OH2           -44.8396766405       24.3359877139      -34.2230896465  W2        5073            0.0000000000
     15218      5073  TIP3      H1            -45.0931966405       24.3551477139      -33.3002796465  W2        5073            0.0000000000
     15219      5073  TIP3      H2            -45.0964666405       23.4645277139      -34.5244696465  W2        5073            0.0000000000
     15220      5074  TIP3      OH2           -49.0731766405       27.0870577139      -23.7878496465  W2        5074            0.0000000000
     15221      5074  TIP3      H1            -49.7149666405       27.0467877139      -23.0788396465  W2        5074            0.0000000000
     15222      5074  TIP3      H2            -49.0359766405       28.0135277139      -24.0255496465  W2        5074            0.0000000000
     15223      5075  TIP3      OH2           -49.0762666405       27.3080677139      -28.8758496465  W2        5075            0.0000000000
     15224      5075  TIP3      H1            -49.9689766405       26.9676777139      -28.9344696465  W2        5075            0.0000000000
     15225      5075  TIP3      H2            -48.6256066405       26.9311577139      -29.6315296465  W2        5075            0.0000000000
     15226      5076  TIP3      OH2           -43.5407166405       27.7240977139      -30.0587696465  W2        5076            0.0000000000
     15227      5076  TIP3      H1            -43.9496866405       28.5389577139      -30.3502896465  W2        5076            0.0000000000
     15228      5076  TIP3      H2            -42.8200966405       27.5841077139      -30.6730596465  W2        5076            0.0000000000
     15229      5077  TIP3      OH2           -44.4385566405       27.8997377139      -18.5706996465  W2        5077            0.0000000000
     15230      5077  TIP3      H1            -45.0011766405       27.1948977139      -18.2499196465  W2        5077            0.0000000000
     15231      5077  TIP3      H2            -43.6122166405       27.7789277139      -18.1029396465  W2        5077            0.0000000000
     15232      5078  TIP3      OH2           -42.5359466405       27.1701377139      -27.2447996465  W2        5078            0.0000000000
     15233      5078  TIP3      H1            -42.7314966405       27.7758177139      -27.9597396465  W2        5078            0.0000000000
     15234      5078  TIP3      H2            -42.3546866405       26.3366577139      -27.6791696465  W2        5078            0.0000000000
     15235      5079  TIP3      OH2           -51.3231266405       27.4074077139      -21.9206496465  W2        5079            0.0000000000
     15236      5079  TIP3      H1            -51.3611866405       27.8075677139      -21.0519396465  W2        5079            0.0000000000
     15237      5079  TIP3      H2            -51.8140166405       26.5906477139      -21.8303596465  W2        5079            0.0000000000
     15238      5080  TIP3      OH2           -47.9573866405       24.7816377139      -35.1220496465  W2        5080            0.0000000000
     15239      5080  TIP3      H1            -48.3883166405       24.3366477139      -34.3923096465  W2        5080            0.0000000000
     15240      5080  TIP3      H2            -48.6755166405       25.1532677139      -35.6342996465  W2        5080            0.0000000000
     15241      5081  TIP3      OH2           -54.7150466405       24.5235877139      -28.0701796465  W2        5081            0.0000000000
     15242      5081  TIP3      H1            -54.0842766405       24.4947977139      -27.3507896465  W2        5081            0.0000000000
     15243      5081  TIP3      H2            -54.2656166405       24.0984577139      -28.8005896465  W2        5081            0.0000000000
     15244      5082  TIP3      OH2           -53.4408366405       25.2697877139      -32.6461396465  W2        5082            0.0000000000
     15245      5082  TIP3      H1            -52.9666666405       25.8607777139      -33.2310496465  W2        5082            0.0000000000
     15246      5082  TIP3      H2            -54.1581966405       25.8000777139      -32.2991296465  W2        5082            0.0000000000
     15247      5083  TIP3      OH2           -43.2720266405       28.8082677139      -22.5735596465  W2        5083            0.0000000000
     15248      5083  TIP3      H1            -42.9485466405       28.1772377139      -23.2165096465  W2        5083            0.0000000000
     15249      5083  TIP3      H2            -43.7120966405       28.2734877139      -21.9128196465  W2        5083            0.0000000000
     15250      5084  TIP3      OH2           -46.4947366405       24.7358177139      -27.7894396465  W2        5084            0.0000000000
     15251      5084  TIP3      H1            -47.4056266405       24.7924977139      -27.5008396465  W2        5084            0.0000000000
     15252      5084  TIP3      H2            -45.9894466405       24.6753677139      -26.9787196465  W2        5084            0.0000000000
     15253      5085  TIP3      OH2           -51.6663966405       26.3644477139      -28.9626796465  W2        5085            0.0000000000
     15254      5085  TIP3      H1            -52.5555966405       26.4639977139      -29.3027196465  W2        5085            0.0000000000
     15255      5085  TIP3      H2            -51.3699066405       25.5227477139      -29.3088896465  W2        5085            0.0000000000
     15256      5086  TIP3      OH2           -48.0132166405       26.3647077139      -31.3062196465  W2        5086            0.0000000000
     15257      5086  TIP3      H1            -47.0816666405       26.4937077139      -31.1279096465  W2        5086            0.0000000000
     15258      5086  TIP3      H2            -48.2281866405       27.0341377139      -31.9557496465  W2        5086            0.0000000000
     15259      5087  TIP3      OH2           -42.0895466405       23.9704477139      -24.5252596465  W2        5087            0.0000000000
     15260      5087  TIP3      H1            -42.7663866405       24.1017577139      -23.8612896465  W2        5087            0.0000000000
     15261      5087  TIP3      H2            -42.5750566405       23.8153977139      -25.3354896465  W2        5087            0.0000000000
     15262      5088  TIP3      OH2           -49.3391966405       27.5589277139      -33.7396096465  W2        5088            0.0000000000
     15263      5088  TIP3      H1            -49.8816866405       27.1793077139      -34.4308496465  W2        5088            0.0000000000
     15264      5088  TIP3      H2            -48.5057066405       27.7533977139      -34.1681996465  W2        5088            0.0000000000
     15265      5089  TIP3      OH2           -38.8020366405       39.6419877139      -18.2484996465  W2        5089            0.0000000000
     15266      5089  TIP3      H1            -38.6021666405       40.0661777139      -19.0829696465  W2        5089            0.0000000000
     15267      5089  TIP3      H2            -38.1466666405       39.9858077139      -17.6414596465  W2        5089            0.0000000000
     15268      5090  TIP3      OH2           -51.2040566405       32.1161177139      -18.6404496465  W2        5090            0.0000000000
     15269      5090  TIP3      H1            -50.4718166405       32.3707077139      -18.0789996465  W2        5090            0.0000000000
     15270      5090  TIP3      H2            -51.9841866405       32.3206577139      -18.1249096465  W2        5090            0.0000000000
     15271      5091  TIP3      OH2           -45.1747666405       27.5231177139      -25.9024796465  W2        5091            0.0000000000
     15272      5091  TIP3      H1            -44.6104266405       26.9767777139      -26.4495196465  W2        5091            0.0000000000
     15273      5091  TIP3      H2            -45.3224266405       27.0013077139      -25.1137196465  W2        5091            0.0000000000
     15274      5092  TIP3      OH2           -50.1727966405       23.6597277139      -29.4839996465  W2        5092            0.0000000000
     15275      5092  TIP3      H1            -50.4898466405       22.7572577139      -29.5194596465  W2        5092            0.0000000000
     15276      5092  TIP3      H2            -49.3913866405       23.6614677139      -30.0368396465  W2        5092            0.0000000000
     15277      5093  TIP3      OH2           -46.5481766405       25.9117277139      -23.4884396465  W2        5093            0.0000000000
     15278      5093  TIP3      H1            -47.3836466405       26.3656777139      -23.3781996465  W2        5093            0.0000000000
     15279      5093  TIP3      H2            -46.0241166405       26.1875777139      -22.7364496465  W2        5093            0.0000000000
     15280      5094  TIP3      OH2           -46.0039166405       32.1244977139      -31.8037996465  W2        5094            0.0000000000
     15281      5094  TIP3      H1            -46.7488166405       31.6170277139      -32.1260096465  W2        5094            0.0000000000
     15282      5094  TIP3      H2            -46.1381966405       32.1732977139      -30.8573196465  W2        5094            0.0000000000
     15283      5095  TIP3      OH2           -38.8540266405       31.2573177139      -23.0170396465  W2        5095            0.0000000000
     15284      5095  TIP3      H1            -38.2121466405       31.7139477139      -23.5608196465  W2        5095            0.0000000000
     15285      5095  TIP3      H2            -39.6843366405       31.3705577139      -23.4796296465  W2        5095            0.0000000000
     15286      5096  TIP3      OH2           -42.1062366405       24.9384877139      -33.6045396465  W2        5096            0.0000000000
     15287      5096  TIP3      H1            -43.0448166405       25.0500477139      -33.7556596465  W2        5096            0.0000000000
     15288      5096  TIP3      H2            -41.8090266405       25.7951777139      -33.2979696465  W2        5096            0.0000000000
     15289      5097  TIP3      OH2           -44.4847066405       32.3088277139      -20.5668896465  W2        5097            0.0000000000
     15290      5097  TIP3      H1            -44.8300966405       31.9270677139      -19.7599296465  W2        5097            0.0000000000
     15291      5097  TIP3      H2            -44.6846966405       33.2421877139      -20.4955996465  W2        5097            0.0000000000
     15292      5098  TIP3      OH2           -41.3878866405       26.8057577139      -31.9437996465  W2        5098            0.0000000000
     15293      5098  TIP3      H1            -40.4959866405       26.6682577139      -31.6246796465  W2        5098            0.0000000000
     15294      5098  TIP3      H2            -41.3315266405       27.5963677139      -32.4804496465  W2        5098            0.0000000000
     15295      5099  TIP3      OH2           -50.8790866405       31.4194977139      -26.0340096465  W2        5099            0.0000000000
     15296      5099  TIP3      H1            -50.1343666405       31.4170677139      -26.6353596465  W2        5099            0.0000000000
     15297      5099  TIP3      H2            -50.8014266405       30.5958777139      -25.5524996465  W2        5099            0.0000000000
     15298      5100  TIP3      OH2           -43.8785066405       33.5829277139      -32.7783396465  W2        5100            0.0000000000
     15299      5100  TIP3      H1            -44.1736666405       34.4097177139      -32.3968596465  W2        5100            0.0000000000
     15300      5100  TIP3      H2            -44.5815066405       32.9636177139      -32.5821996465  W2        5100            0.0000000000
     15301      5101  TIP3      OH2           -53.8711166405       29.8801877139      -20.7191596465  W2        5101            0.0000000000
     15302      5101  TIP3      H1            -53.6482566405       29.4621477139      -19.8874096465  W2        5101            0.0000000000
     15303      5101  TIP3      H2            -54.4731066405       29.2676877139      -21.1418796465  W2        5101            0.0000000000
     15304      5102  TIP3      OH2           -46.8546266405       29.3971777139      -18.5061896465  W2        5102            0.0000000000
     15305      5102  TIP3      H1            -47.1505466405       29.2314777139      -19.4012796465  W2        5102            0.0000000000
     15306      5102  TIP3      H2            -45.9231066405       29.1772077139      -18.5167996465  W2        5102            0.0000000000
     15307      5103  TIP3      OH2           -42.2343466405       34.7703777139      -20.6163896465  W2        5103            0.0000000000
     15308      5103  TIP3      H1            -43.1349166405       34.9536377139      -20.8839996465  W2        5103            0.0000000000
     15309      5103  TIP3      H2            -42.2002366405       35.0293077139      -19.6955096465  W2        5103            0.0000000000
     15310      5104  TIP3      OH2           -36.5030166405       27.0151677139      -32.2491296465  W2        5104            0.0000000000
     15311      5104  TIP3      H1            -37.0573866405       26.6189677139      -32.9213796465  W2        5104            0.0000000000
     15312      5104  TIP3      H2            -36.4026566405       27.9256877139      -32.5267996465  W2        5104            0.0000000000
     15313      5105  TIP3      OH2           -36.5398166405       32.8153377139      -19.4119796465  W2        5105            0.0000000000
     15314      5105  TIP3      H1            -37.3909666405       33.0537177139      -19.7793396465  W2        5105            0.0000000000
     15315      5105  TIP3      H2            -35.9494766405       32.7986577139      -20.1652696465  W2        5105            0.0000000000
     15316      5106  TIP3      OH2           -38.2078466405       35.8012077139      -31.7839196465  W2        5106            0.0000000000
     15317      5106  TIP3      H1            -38.5807366405       34.9755877139      -31.4748596465  W2        5106            0.0000000000
     15318      5106  TIP3      H2            -37.9304966405       35.6181477139      -32.6815796465  W2        5106            0.0000000000
     15319      5107  TIP3      OH2           -41.0474566405       30.6091577139      -24.7627296465  W2        5107            0.0000000000
     15320      5107  TIP3      H1            -41.9757666405       30.3773477139      -24.7897996465  W2        5107            0.0000000000
     15321      5107  TIP3      H2            -40.5963466405       29.8321377139      -25.0928496465  W2        5107            0.0000000000
     15322      5108  TIP3      OH2           -48.5041466405       34.9373177139      -28.6298596465  W2        5108            0.0000000000
     15323      5108  TIP3      H1            -47.9769266405       35.7107577139      -28.8299796465  W2        5108            0.0000000000
     15324      5108  TIP3      H2            -49.3842966405       35.1622377139      -28.9314596465  W2        5108            0.0000000000
     15325      5109  TIP3      OH2           -52.7493766405       29.7997277139      -34.0426196465  W2        5109            0.0000000000
     15326      5109  TIP3      H1            -52.1333866405       30.4264477139      -33.6631396465  W2        5109            0.0000000000
     15327      5109  TIP3      H2            -53.6111166405       30.1157077139      -33.7709696465  W2        5109            0.0000000000
     15328      5110  TIP3      OH2           -47.0769166405       32.6003077139      -29.0534296465  W2        5110            0.0000000000
     15329      5110  TIP3      H1            -47.3179166405       33.5257477139      -29.0118996465  W2        5110            0.0000000000
     15330      5110  TIP3      H2            -47.8175566405       32.1414377139      -28.6570396465  W2        5110            0.0000000000
     15331      5111  TIP3      OH2           -46.5622566405       36.7496677139      -22.7383196465  W2        5111            0.0000000000
     15332      5111  TIP3      H1            -46.1997866405       37.6042277139      -22.9718796465  W2        5111            0.0000000000
     15333      5111  TIP3      H2            -46.0307366405       36.4578277139      -21.9976896465  W2        5111            0.0000000000
     15334      5112  TIP3      OH2           -48.3938366405       37.6220677139      -29.5082096465  W2        5112            0.0000000000
     15335      5112  TIP3      H1            -49.3437866405       37.7278077139      -29.4568796465  W2        5112            0.0000000000
     15336      5112  TIP3      H2            -48.0420266405       38.4428077139      -29.1634596465  W2        5112            0.0000000000
     15337      5113  TIP3      OH2           -43.0181766405       32.8487377139      -23.0377596465  W2        5113            0.0000000000
     15338      5113  TIP3      H1            -43.4440466405       32.6209077139      -22.2113596465  W2        5113            0.0000000000
     15339      5113  TIP3      H2            -42.4375966405       32.1099177139      -23.2202296465  W2        5113            0.0000000000
     15340      5114  TIP3      OH2           -40.8152866405       33.7777877139      -33.9638596465  W2        5114            0.0000000000
     15341      5114  TIP3      H1            -40.4619766405       33.3977677139      -33.1595096465  W2        5114            0.0000000000
     15342      5114  TIP3      H2            -41.7639366405       33.6842677139      -33.8769296465  W2        5114            0.0000000000
     15343      5115  TIP3      OH2           -40.3597566405       37.4006877139      -20.5682796465  W2        5115            0.0000000000
     15344      5115  TIP3      H1            -40.9614366405       36.8449777139      -21.0636496465  W2        5115            0.0000000000
     15345      5115  TIP3      H2            -40.0783866405       38.0676677139      -21.1945396465  W2        5115            0.0000000000
     15346      5116  TIP3      OH2           -36.3118466405       38.2570377139      -33.7628396465  W2        5116            0.0000000000
     15347      5116  TIP3      H1            -35.5680566405       38.8430877139      -33.9026796465  W2        5116            0.0000000000
     15348      5116  TIP3      H2            -37.0060366405       38.8256177139      -33.4295996465  W2        5116            0.0000000000
     15349      5117  TIP3      OH2           -52.2371666405       24.6334577139      -21.1610196465  W2        5117            0.0000000000
     15350      5117  TIP3      H1            -53.1299366405       24.9719977139      -21.2286196465  W2        5117            0.0000000000
     15351      5117  TIP3      H2            -52.3358866405       23.7780677139      -20.7429396465  W2        5117            0.0000000000
     15352      5118  TIP3      OH2           -39.9493566405       32.4499877139      -31.7370696465  W2        5118            0.0000000000
     15353      5118  TIP3      H1            -40.2265966405       31.7219177139      -31.1809596465  W2        5118            0.0000000000
     15354      5118  TIP3      H2            -39.0220566405       32.5691877139      -31.5318096465  W2        5118            0.0000000000
     15355      5119  TIP3      OH2           -52.5859666405       36.4378977139      -22.7260796465  W2        5119            0.0000000000
     15356      5119  TIP3      H1            -52.3689366405       35.5061377139      -22.7571096465  W2        5119            0.0000000000
     15357      5119  TIP3      H2            -52.3396166405       36.7123977139      -21.8427996465  W2        5119            0.0000000000
     15358      5120  TIP3      OH2           -46.7245066405       34.8893977139      -35.5168596465  W2        5120            0.0000000000
     15359      5120  TIP3      H1            -46.4855266405       34.1412077139      -36.0639696465  W2        5120            0.0000000000
     15360      5120  TIP3      H2            -46.9933766405       34.5015677139      -34.6840796465  W2        5120            0.0000000000
     15361      5121  TIP3      OH2           -47.7874466405       34.4597777139      -33.0605996465  W2        5121            0.0000000000
     15362      5121  TIP3      H1            -47.6406466405       33.9397577139      -32.2705096465  W2        5121            0.0000000000
     15363      5121  TIP3      H2            -47.7902766405       35.3665377139      -32.7540096465  W2        5121            0.0000000000
     15364      5122  TIP3      OH2           -51.3343366405       31.7121077139      -32.5500596465  W2        5122            0.0000000000
     15365      5122  TIP3      H1            -52.0204066405       32.0643577139      -31.9830896465  W2        5122            0.0000000000
     15366      5122  TIP3      H2            -50.8115466405       32.4750677139      -32.7966296465  W2        5122            0.0000000000
     15367      5123  TIP3      OH2           -43.5028266405       24.3744877139      -22.2711596465  W2        5123            0.0000000000
     15368      5123  TIP3      H1            -42.8040366405       24.4483577139      -21.6211896465  W2        5123            0.0000000000
     15369      5123  TIP3      H2            -43.8836866405       23.5099877139      -22.1168696465  W2        5123            0.0000000000
     15370      5124  TIP3      OH2           -42.7183366405       24.0266577139      -31.1739296465  W2        5124            0.0000000000
     15371      5124  TIP3      H1            -42.4985066405       24.4981977139      -31.9773896465  W2        5124            0.0000000000
     15372      5124  TIP3      H2            -42.1599366405       24.4209177139      -30.5038696465  W2        5124            0.0000000000
     15373      5125  TIP3      OH2           -45.0497266405       36.1571377139      -32.3111796465  W2        5125            0.0000000000
     15374      5125  TIP3      H1            -45.8661166405       36.6541077139      -32.2587496465  W2        5125            0.0000000000
     15375      5125  TIP3      H2            -44.5200966405       36.6324877139      -32.9512996465  W2        5125            0.0000000000
     15376      5126  TIP3      OH2           -45.5183466405       25.7545377139      -30.3390896465  W2        5126            0.0000000000
     15377      5126  TIP3      H1            -44.7060866405       26.2588577139      -30.2929196465  W2        5126            0.0000000000
     15378      5126  TIP3      H2            -45.7630466405       25.6095077139      -29.4251296465  W2        5126            0.0000000000
     15379      5127  TIP3      OH2           -44.9827066405       26.7408077139      -21.1544296465  W2        5127            0.0000000000
     15380      5127  TIP3      H1            -44.8636766405       27.3143477139      -20.3973896465  W2        5127            0.0000000000
     15381      5127  TIP3      H2            -44.3272466405       26.0527477139      -21.0396496465  W2        5127            0.0000000000
     15382      5128  TIP3      OH2           -44.6346766405       22.8358377139      -29.4009796465  W2        5128            0.0000000000
     15383      5128  TIP3      H1            -44.9813266405       23.4528977139      -28.7565496465  W2        5128            0.0000000000
     15384      5128  TIP3      H2            -43.9759866405       23.3364077139      -29.8824296465  W2        5128            0.0000000000
     15385      5129  TIP3      OH2           -47.7114166405       37.2008577139      -32.3294896465  W2        5129            0.0000000000
     15386      5129  TIP3      H1            -47.5505466405       38.0006077139      -32.8302296465  W2        5129            0.0000000000
     15387      5129  TIP3      H2            -47.9086366405       37.5074577139      -31.4444296465  W2        5129            0.0000000000
     15388      5130  TIP3      OH2           -48.9769766405       23.8987777139      -32.7137296465  W2        5130            0.0000000000
     15389      5130  TIP3      H1            -49.0604966405       24.7870877139      -32.3670896465  W2        5130            0.0000000000
     15390      5130  TIP3      H2            -48.0869466405       23.6334477139      -32.4820496465  W2        5130            0.0000000000
     15391      5131  TIP3      OH2           -38.7781266405       24.6478377139      -20.3194596465  W2        5131            0.0000000000
     15392      5131  TIP3      H1            -39.6945466405       24.9100077139      -20.4070896465  W2        5131            0.0000000000
     15393      5131  TIP3      H2            -38.4426266405       24.6447377139      -21.2159296465  W2        5131            0.0000000000
     15394      5132  TIP3      OH2           -40.1760266405       28.3979377139      -26.2237296465  W2        5132            0.0000000000
     15395      5132  TIP3      H1            -40.9735866405       27.9829577139      -26.5522296465  W2        5132            0.0000000000
     15396      5132  TIP3      H2            -39.7309166405       27.7073077139      -25.7326796465  W2        5132            0.0000000000
     15397      5133  TIP3      OH2           -50.7184466405       34.3259977139      -33.6532796465  W2        5133            0.0000000000
     15398      5133  TIP3      H1            -50.1262966405       35.0254777139      -33.3770396465  W2        5133            0.0000000000
     15399      5133  TIP3      H2            -50.2591466405       33.8929477139      -34.3728196465  W2        5133            0.0000000000
     15400      5134  TIP3      OH2           -52.4025266405       26.9902977139      -34.5373396465  W2        5134            0.0000000000
     15401      5134  TIP3      H1            -52.4472666405       27.9296077139      -34.3586396465  W2        5134            0.0000000000
     15402      5134  TIP3      H2            -53.2902066405       26.7547877139      -34.8071296465  W2        5134            0.0000000000
     15403      5135  TIP3      OH2           -39.0895666405       37.6541877139      -24.6013796465  W2        5135            0.0000000000
     15404      5135  TIP3      H1            -39.2451366405       38.3326277139      -25.2584496465  W2        5135            0.0000000000
     15405      5135  TIP3      H2            -38.1569266405       37.7261177139      -24.3983196465  W2        5135            0.0000000000
     15406      5136  TIP3      OH2           -51.5943266405       21.7719577139      -25.8642396465  W2        5136            0.0000000000
     15407      5136  TIP3      H1            -51.8233466405       21.8312077139      -26.7917396465  W2        5136            0.0000000000
     15408      5136  TIP3      H2            -52.0369866405       20.9805077139      -25.5578296465  W2        5136            0.0000000000
     15409      5137  TIP3      OH2           -52.6639966405       35.7126677139      -29.7036596465  W2        5137            0.0000000000
     15410      5137  TIP3      H1            -53.4961366405       36.1849377139      -29.6765196465  W2        5137            0.0000000000
     15411      5137  TIP3      H2            -52.1181666405       36.2224277139      -30.3023496465  W2        5137            0.0000000000
     15412      5138  TIP3      OH2           -53.3756266405       38.3250377139      -18.3738596465  W2        5138            0.0000000000
     15413      5138  TIP3      H1            -52.8354066405       38.1084377139      -17.6139396465  W2        5138            0.0000000000
     15414      5138  TIP3      H2            -53.8568266405       37.5196377139      -18.5636096465  W2        5138            0.0000000000
     15415      5139  TIP3      OH2           -48.7782866405       37.2444777139      -16.7534396465  W2        5139            0.0000000000
     15416      5139  TIP3      H1            -48.0105666405       36.7855577139      -16.4125196465  W2        5139            0.0000000000
     15417      5139  TIP3      H2            -48.7996666405       37.0184577139      -17.6833196465  W2        5139            0.0000000000
     15418      5140  TIP3      OH2           -44.6863266405       36.7525377139      -35.3782596465  W2        5140            0.0000000000
     15419      5140  TIP3      H1            -45.3302266405       36.1213977139      -35.0568896465  W2        5140            0.0000000000
     15420      5140  TIP3      H2            -43.9244966405       36.2213377139      -35.6099096465  W2        5140            0.0000000000
     15421      5141  TIP3      OH2           -42.2014166405       35.6245877139      -18.0242896465  W2        5141            0.0000000000
     15422      5141  TIP3      H1            -42.5524666405       34.7678877139      -17.7812496465  W2        5141            0.0000000000
     15423      5141  TIP3      H2            -41.4750966405       35.7672577139      -17.4173896465  W2        5141            0.0000000000
     15424      5142  TIP3      OH2           -40.0820366405       36.5695277139      -35.1444596465  W2        5142            0.0000000000
     15425      5142  TIP3      H1            -39.7989966405       35.7750477139      -34.6917696465  W2        5142            0.0000000000
     15426      5142  TIP3      H2            -39.3422466405       36.8026277139      -35.7053496465  W2        5142            0.0000000000
     15427      5143  TIP3      OH2           -53.4686766405       32.1354477139      -17.4194296465  W2        5143            0.0000000000
     15428      5143  TIP3      H1            -53.3246266405       31.2335177139      -17.7057596465  W2        5143            0.0000000000
     15429      5143  TIP3      H2            -54.2409366405       32.4216577139      -17.9071996465  W2        5143            0.0000000000
     15430      5144  TIP3      OH2           -49.1273066405       32.4790177139      -35.2869696465  W2        5144            0.0000000000
     15431      5144  TIP3      H1            -49.0628966405       31.6849777139      -34.7563296465  W2        5144            0.0000000000
     15432      5144  TIP3      H2            -48.4743866405       32.3602977139      -35.9767696465  W2        5144            0.0000000000
     15433      5145  TIP3      OH2           -46.8130666405       32.1052577139      -17.9867896465  W2        5145            0.0000000000
     15434      5145  TIP3      H1            -47.1416866405       32.3760677139      -18.8440496465  W2        5145            0.0000000000
     15435      5145  TIP3      H2            -46.6612466405       31.1642377139      -18.0742896465  W2        5145            0.0000000000
     15436      5146  TIP3      OH2           -43.7749666405       33.5261877139      -35.5511696465  W2        5146            0.0000000000
     15437      5146  TIP3      H1            -44.0435566405       33.7063977139      -34.6502796465  W2        5146            0.0000000000
     15438      5146  TIP3      H2            -43.9814066405       32.6008077139      -35.6825896465  W2        5146            0.0000000000
     15439      5147  TIP3      OH2           -41.0785466405       32.0209877139      -20.6035596465  W2        5147            0.0000000000
     15440      5147  TIP3      H1            -40.3330666405       32.6093577139      -20.7231596465  W2        5147            0.0000000000
     15441      5147  TIP3      H2            -41.8358666405       32.6029577139      -20.5402496465  W2        5147            0.0000000000
     15442      5148  TIP3      OH2           -52.6360266405       29.3357777139      -17.9994996465  W2        5148            0.0000000000
     15443      5148  TIP3      H1            -52.2279066405       28.4784377139      -18.1204396465  W2        5148            0.0000000000
     15444      5148  TIP3      H2            -52.8962666405       29.3499077139      -17.0784696465  W2        5148            0.0000000000
     15445      5149  TIP3      OH2           -47.9779266405       30.4516377139      -32.9811696465  W2        5149            0.0000000000
     15446      5149  TIP3      H1            -48.4377266405       29.9674677139      -32.2953196465  W2        5149            0.0000000000
     15447      5149  TIP3      H2            -47.7230566405       29.7831777139      -33.6171196465  W2        5149            0.0000000000
     15448      5150  TIP3      OH2           -48.6889966405       28.3443477139      -20.6252096465  W2        5150            0.0000000000
     15449      5150  TIP3      H1            -49.3073866405       29.0190077139      -20.3447396465  W2        5150            0.0000000000
     15450      5150  TIP3      H2            -48.3448766405       28.6657377139      -21.4585896465  W2        5150            0.0000000000
     15451      5151  TIP3      OH2           -46.9068866405       28.6948177139      -34.7188496465  W2        5151            0.0000000000
     15452      5151  TIP3      H1            -47.0873866405       28.5399377139      -35.6460196465  W2        5151            0.0000000000
     15453      5151  TIP3      H2            -45.9568366405       28.8026877139      -34.6740596465  W2        5151            0.0000000000
     15454      5152  TIP3      OH2           -43.6691766405       30.8158777139      -17.3477296465  W2        5152            0.0000000000
     15455      5152  TIP3      H1            -42.7160566405       30.8997877139      -17.3751296465  W2        5152            0.0000000000
     15456      5152  TIP3      H2            -43.8297166405       30.1040577139      -16.7282396465  W2        5152            0.0000000000
     15457      5153  TIP3      OH2           -37.5170566405       31.0492377139      -35.2730396465  W2        5153            0.0000000000
     15458      5153  TIP3      H1            -37.7905766405       30.6247877139      -36.0862096465  W2        5153            0.0000000000
     15459      5153  TIP3      H2            -37.4776466405       31.9806877139      -35.4899996465  W2        5153            0.0000000000
     15460      5154  TIP3      OH2           -48.3496266405       25.6994277139      -19.5428996465  W2        5154            0.0000000000
     15461      5154  TIP3      H1            -48.1995366405       24.9705577139      -20.1449296465  W2        5154            0.0000000000
     15462      5154  TIP3      H2            -48.3473866405       26.4765977139      -20.1016796465  W2        5154            0.0000000000
     15463      5155  TIP3      OH2           -47.9370566405       24.0690077139      -22.0501596465  W2        5155            0.0000000000
     15464      5155  TIP3      H1            -47.4013066405       24.5206777139      -22.7022296465  W2        5155            0.0000000000
     15465      5155  TIP3      H2            -48.7890966405       23.9609877139      -22.4727496465  W2        5155            0.0000000000
     15466      5156  TIP3      OH2           -46.3552166405       29.5086277139      -21.8106396465  W2        5156            0.0000000000
     15467      5156  TIP3      H1            -45.6047366405       29.3523777139      -22.3838596465  W2        5156            0.0000000000
     15468      5156  TIP3      H2            -46.6943866405       30.3602877139      -22.0860896465  W2        5156            0.0000000000
     15469      5157  TIP3      OH2           -41.9395966405       27.3238077139      -16.7821096465  W2        5157            0.0000000000
     15470      5157  TIP3      H1            -41.7474666405       26.3927477139      -16.8936596465  W2        5157            0.0000000000
     15471      5157  TIP3      H2            -41.0819666405       27.7487577139      -16.7925696465  W2        5157            0.0000000000
     15472      5158  TIP3      OH2           -40.6228766405       30.1123277139      -18.7048396465  W2        5158            0.0000000000
     15473      5158  TIP3      H1            -40.9043766405       30.8217877139      -19.2824596465  W2        5158            0.0000000000
     15474      5158  TIP3      H2            -39.6804466405       30.0396277139      -18.8557196465  W2        5158            0.0000000000
     15475      5159  TIP3      OH2           -49.8709966405       26.8977777139      -17.6313396465  W2        5159            0.0000000000
     15476      5159  TIP3      H1            -50.6380966405       26.3652577139      -17.8415796465  W2        5159            0.0000000000
     15477      5159  TIP3      H2            -49.1920966405       26.5878177139      -18.2307096465  W2        5159            0.0000000000
     15478      5160  TIP3      OH2           -47.1315066405       21.5255777139      -21.6187996465  W2        5160            0.0000000000
     15479      5160  TIP3      H1            -47.2295466405       22.4718977139      -21.7241796465  W2        5160            0.0000000000
     15480      5160  TIP3      H2            -47.8738866405       21.1529577139      -22.0944496465  W2        5160            0.0000000000
     15481      5161  TIP3      OH2           -45.8674566405       25.8471177139      -18.0549596465  W2        5161            0.0000000000
     15482      5161  TIP3      H1            -46.1029166405       25.6277877139      -17.1534696465  W2        5161            0.0000000000
     15483      5161  TIP3      H2            -46.6507666405       25.6402377139      -18.5647096465  W2        5161            0.0000000000
     15484      5162  TIP3      OH2           -43.1517966405       24.9744677139      -18.9796096465  W2        5162            0.0000000000
     15485      5162  TIP3      H1            -44.0992566405       25.0064377139      -18.8472796465  W2        5162            0.0000000000
     15486      5162  TIP3      H2            -42.8391266405       24.3491777139      -18.3257896465  W2        5162            0.0000000000
     15487      5163  TIP3      OH2           -41.5176466405       23.6085777139      -16.9744196465  W2        5163            0.0000000000
     15488      5163  TIP3      H1            -41.6144666405       22.6563077139      -16.9802296465  W2        5163            0.0000000000
     15489      5163  TIP3      H2            -41.8393366405       23.8772577139      -16.1138696465  W2        5163            0.0000000000
     15490      5164  TIP3      OH2           -51.6907166405       24.8181577139      -17.9268696465  W2        5164            0.0000000000
     15491      5164  TIP3      H1            -51.4789766405       24.1117677139      -18.5371196465  W2        5164            0.0000000000
     15492      5164  TIP3      H2            -51.8019666405       24.3807577139      -17.0827496465  W2        5164            0.0000000000
     15493      5165  TIP3      OH2           -46.9096966405       20.8193177139      -18.9475196465  W2        5165            0.0000000000
     15494      5165  TIP3      H1            -46.1978566405       20.1795377139      -18.9616096465  W2        5165            0.0000000000
     15495      5165  TIP3      H2            -47.0106566405       21.0861477139      -19.8612096465  W2        5165            0.0000000000
     15496      5166  TIP3      OH2           -46.5559466405       22.5021577139      -16.8938896465  W2        5166            0.0000000000
     15497      5166  TIP3      H1            -46.6877266405       22.0265377139      -17.7140396465  W2        5166            0.0000000000
     15498      5166  TIP3      H2            -47.1552066405       23.2465177139      -16.9491796465  W2        5166            0.0000000000
     15499      5167  TIP3      OH2           -47.0097166405       39.3851877139      -33.7174896465  W2        5167            0.0000000000
     15500      5167  TIP3      H1            -46.0766466405       39.5430577139      -33.5736496465  W2        5167            0.0000000000
     15501      5167  TIP3      H2            -47.2738366405       40.0604877139      -34.3423396465  W2        5167            0.0000000000
     15502      5168  TIP3      OH2           -53.4412266405       34.0215677139      -34.2346796465  W2        5168            0.0000000000
     15503      5168  TIP3      H1            -52.5273066405       34.1004577139      -33.9612896465  W2        5168            0.0000000000
     15504      5168  TIP3      H2            -53.4339166405       33.3345277139      -34.9011196465  W2        5168            0.0000000000
     15505      5169  TIP3      OH2           -54.7921666405       39.4144177139      -29.1572896465  W2        5169            0.0000000000
     15506      5169  TIP3      H1            -55.4394566405       38.9525877139      -29.6901696465  W2        5169            0.0000000000
     15507      5169  TIP3      H2            -54.4377066405       38.7427477139      -28.5746696465  W2        5169            0.0000000000
     15508      5170  TIP3      OH2           -53.9222466405       37.4951177139      -27.3526696465  W2        5170            0.0000000000
     15509      5170  TIP3      H1            -54.2565666405       36.6148477139      -27.1806496465  W2        5170            0.0000000000
     15510      5170  TIP3      H2            -53.7000066405       37.8406177139      -26.4881096465  W2        5170            0.0000000000
     15511      5171  TIP3      OH2           -36.3737666405       38.3047577139      -24.3721896465  W2        5171            0.0000000000
     15512      5171  TIP3      H1            -36.3950966405       38.4895977139      -23.4332496465  W2        5171            0.0000000000
     15513      5171  TIP3      H2            -35.6831466405       38.8731577139      -24.7130496465  W2        5171            0.0000000000
     15514      5172  TIP3      OH2           -36.8104766405       37.8718677139      -21.4502796465  W2        5172            0.0000000000
     15515      5172  TIP3      H1            -37.2976066405       37.1362777139      -21.8215396465  W2        5172            0.0000000000
     15516      5172  TIP3      H2            -36.2612066405       37.4782577139      -20.7723396465  W2        5172            0.0000000000
     15517      5173  TIP3      OH2           -38.3597466405       33.6616777139      -16.8122496465  W2        5173            0.0000000000
     15518      5173  TIP3      H1            -39.2256366405       33.5566477139      -16.4180196465  W2        5173            0.0000000000
     15519      5173  TIP3      H2            -37.9831566405       34.4200077139      -16.3657796465  W2        5173            0.0000000000
     15520      5174  TIP3      OH2           -37.0587766405       31.9180477139      -31.2979996465  W2        5174            0.0000000000
     15521      5174  TIP3      H1            -36.2086366405       32.3391377139      -31.1708396465  W2        5174            0.0000000000
     15522      5174  TIP3      H2            -37.0532666405       31.1780577139      -30.6908596465  W2        5174            0.0000000000
     15523      5175  TIP3      OH2           -36.6642166405       29.9717877139      -29.4744296465  W2        5175            0.0000000000
     15524      5175  TIP3      H1            -37.3907566405       29.4920477139      -29.0766696465  W2        5175            0.0000000000
     15525      5175  TIP3      H2            -36.0828866405       30.1772577139      -28.7422696465  W2        5175            0.0000000000
     15526      5176  TIP3      OH2           -36.9050966405       32.7565377139      -24.5266696465  W2        5176            0.0000000000
     15527      5176  TIP3      H1            -36.0716766405       32.3785377139      -24.8073096465  W2        5176            0.0000000000
     15528      5176  TIP3      H2            -36.7930666405       33.6996577139      -24.6457596465  W2        5176            0.0000000000
     15529      5177  TIP3      OH2           -38.4188666405       35.6342877139      -22.2198296465  W2        5177            0.0000000000
     15530      5177  TIP3      H1            -39.0663366405       35.9594377139      -21.5943096465  W2        5177            0.0000000000
     15531      5177  TIP3      H2            -38.9364666405       35.1940577139      -22.8939996465  W2        5177            0.0000000000
     15532      5178  TIP3      OH2           -36.3959066405       29.8726377139      -33.0832996465  W2        5178            0.0000000000
     15533      5178  TIP3      H1            -36.9177966405       30.2290477139      -33.8022096465  W2        5178            0.0000000000
     15534      5178  TIP3      H2            -36.4289866405       30.5474177139      -32.4052096465  W2        5178            0.0000000000
     15535      5179  TIP3      OH2           -38.0470066405       27.1121977139      -34.5325896465  W2        5179            0.0000000000
     15536      5179  TIP3      H1            -37.9505666405       27.7788977139      -35.2126196465  W2        5179            0.0000000000
     15537      5179  TIP3      H2            -38.1870466405       26.2968277139      -35.0140396465  W2        5179            0.0000000000
     15538      5180  TIP3      OH2           -38.8775366405       28.4924377139      -28.9115596465  W2        5180            0.0000000000
     15539      5180  TIP3      H1            -39.0276566405       27.5472977139      -28.9317796465  W2        5180            0.0000000000
     15540      5180  TIP3      H2            -39.2310866405       28.7735777139      -28.0676496465  W2        5180            0.0000000000
     15541      5181  TIP3      OH2           -53.8422966405       30.5706577139      -24.9011796465  W2        5181            0.0000000000
     15542      5181  TIP3      H1            -53.6580066405       30.4888277139      -25.8368896465  W2        5181            0.0000000000
     15543      5181  TIP3      H2            -52.9930066405       30.4463577139      -24.4775396465  W2        5181            0.0000000000
     15544      5182  TIP3      OH2           -38.0212466405       30.4627677139      -19.2727296465  W2        5182            0.0000000000
     15545      5182  TIP3      H1            -37.4385166405       29.7279977139      -19.0810096465  W2        5182            0.0000000000
     15546      5182  TIP3      H2            -37.4573166405       31.2347977139      -19.2261496465  W2        5182            0.0000000000
     15547      5183  TIP3      OH2           -36.5245366405       28.3653477139      -18.5881896465  W2        5183            0.0000000000
     15548      5183  TIP3      H1            -37.3878666405       27.9865577139      -18.7537196465  W2        5183            0.0000000000
     15549      5183  TIP3      H2            -35.9201666405       27.6268277139      -18.6626096465  W2        5183            0.0000000000
     15550      5184  TIP3      OH2           -38.7996266405       24.5201777139      -35.4150396465  W2        5184            0.0000000000
     15551      5184  TIP3      H1            -38.1890466405       24.1488577139      -34.7782196465  W2        5184            0.0000000000
     15552      5184  TIP3      H2            -39.6364766405       24.0988677139      -35.2190396465  W2        5184            0.0000000000
     15553      5185  TIP3      OH2           -39.1670566405       26.0750177139      -30.4490496465  W2        5185            0.0000000000
     15554      5185  TIP3      H1            -38.8873466405       25.1680577139      -30.3248796465  W2        5185            0.0000000000
     15555      5185  TIP3      H2            -38.4078866405       26.5091677139      -30.8381296465  W2        5185            0.0000000000
     15556      5186  TIP3      OH2           -38.5552266405       26.6567577139      -25.0131596465  W2        5186            0.0000000000
     15557      5186  TIP3      H1            -37.6224266405       26.8687477139      -25.0475596465  W2        5186            0.0000000000
     15558      5186  TIP3      H2            -38.7904766405       26.7579677139      -24.0908596465  W2        5186            0.0000000000
     15559      5187  TIP3      OH2           -38.5260366405       27.3932877139      -22.2372196465  W2        5187            0.0000000000
     15560      5187  TIP3      H1            -39.3689066405       27.6613277139      -21.8712396465  W2        5187            0.0000000000
     15561      5187  TIP3      H2            -38.0836066405       28.2154777139      -22.4481096465  W2        5187            0.0000000000
     15562      5188  TIP3      OH2           -54.2448166405       25.8411577139      -18.7602996465  W2        5188            0.0000000000
     15563      5188  TIP3      H1            -53.3253266405       25.7189877139      -18.5239896465  W2        5188            0.0000000000
     15564      5188  TIP3      H2            -54.6943666405       25.0911277139      -18.3709496465  W2        5188            0.0000000000
     15565      5189  TIP3      OH2           -36.2428766405       21.3733077139      -16.8837196465  W2        5189            0.0000000000
     15566      5189  TIP3      H1            -35.8931766405       20.7196577139      -17.4892496465  W2        5189            0.0000000000
     15567      5189  TIP3      H2            -36.0959266405       22.2107177139      -17.3234596465  W2        5189            0.0000000000
     15568      5190  TIP3      OH2           -38.5535766405       23.3379477139      -30.4008496465  W2        5190            0.0000000000
     15569      5190  TIP3      H1            -38.3710766405       22.8890977139      -29.5753496465  W2        5190            0.0000000000
     15570      5190  TIP3      H2            -39.1532866405       22.7533877139      -30.8643896465  W2        5190            0.0000000000
     15571      5191  TIP3      OH2           -53.0235666405       24.1533177139      -25.8690096465  W2        5191            0.0000000000
     15572      5191  TIP3      H1            -52.5784066405       23.3615677139      -25.5670396465  W2        5191            0.0000000000
     15573      5191  TIP3      H2            -52.5572666405       24.8698377139      -25.4384496465  W2        5191            0.0000000000
     15574      5192  TIP3      OH2           -54.7195366405       27.1526177139      -24.7999896465  W2        5192            0.0000000000
     15575      5192  TIP3      H1            -54.2275566405       26.9316677139      -25.5907896465  W2        5192            0.0000000000
     15576      5192  TIP3      H2            -54.3574466405       27.9929577139      -24.5190396465  W2        5192            0.0000000000
     15577      5193  TIP3      OH2           -36.7231566405       23.4827677139      -18.5345896465  W2        5193            0.0000000000
     15578      5193  TIP3      H1            -37.6405866405       23.7534777139      -18.5702396465  W2        5193            0.0000000000
     15579      5193  TIP3      H2            -36.6002166405       22.9476077139      -19.3186196465  W2        5193            0.0000000000
     15580      5194  TIP3      OH2           -36.6869566405       23.4057577139      -33.8728196465  W2        5194            0.0000000000
     15581      5194  TIP3      H1            -36.2746966405       22.6843277139      -34.3480196465  W2        5194            0.0000000000
     15582      5194  TIP3      H2            -36.0053066405       24.0752177139      -33.8143896465  W2        5194            0.0000000000
     15583      5195  TIP3      OH2           -54.4058866405       23.4105277139      -30.7457496465  W2        5195            0.0000000000
     15584      5195  TIP3      H1            -55.3310466405       23.6191877139      -30.8751996465  W2        5195            0.0000000000
     15585      5195  TIP3      H2            -53.9518966405       23.8946077139      -31.4355196465  W2        5195            0.0000000000
     15586      5196  TIP3      OH2           -39.6351666405       38.3946977139      -28.8000096465  W2        5196            0.0000000000
     15587      5196  TIP3      H1            -38.9828766405       38.0469077139      -29.4080996465  W2        5196            0.0000000000
     15588      5196  TIP3      H2            -39.1247866405       38.8830177139      -28.1540396465  W2        5196            0.0000000000
     15589      5197  TIP3      OH2           -54.4423466405       22.1484277139      -22.4014996465  W2        5197            0.0000000000
     15590      5197  TIP3      H1            -55.1072966405       21.9024577139      -21.7584096465  W2        5197            0.0000000000
     15591      5197  TIP3      H2            -54.8852166405       22.7704677139      -22.9786996465  W2        5197            0.0000000000
     15592      5198  TIP3      OH2           -52.2504166405       35.3238377139      -18.2569196465  W2        5198            0.0000000000
     15593      5198  TIP3      H1            -53.0711666405       35.4984877139      -18.7174496465  W2        5198            0.0000000000
     15594      5198  TIP3      H2            -52.5026366405       35.2503077139      -17.3364796465  W2        5198            0.0000000000
     15595      5199  TIP3      OH2           -49.2961266405       36.2979577139      -21.9985196465  W2        5199            0.0000000000
     15596      5199  TIP3      H1            -49.7210166405       37.1078077139      -22.2810596465  W2        5199            0.0000000000
     15597      5199  TIP3      H2            -48.3918466405       36.3833677139      -22.3005396465  W2        5199            0.0000000000
     15598      5200  TIP3      OH2           -44.9849866405       37.6969577139      -19.0391496465  W2        5200            0.0000000000
     15599      5200  TIP3      H1            -44.8002366405       37.3635677139      -18.1611196465  W2        5200            0.0000000000
     15600      5200  TIP3      H2            -44.1385366405       38.0068177139      -19.3612296465  W2        5200            0.0000000000
     15601      5201  TIP3      OH2           -42.6399466405       38.9828477139      -19.7950096465  W2        5201            0.0000000000
     15602      5201  TIP3      H1            -41.9630566405       38.3500777139      -20.0350896465  W2        5201            0.0000000000
     15603      5201  TIP3      H2            -42.3180666405       39.3838977139      -18.9876796465  W2        5201            0.0000000000
     15604      5202  TIP3      OH2           -37.7225666405       21.5723977139      -20.7155096465  W2        5202            0.0000000000
     15605      5202  TIP3      H1            -38.5352166405       21.8974277139      -21.1030396465  W2        5202            0.0000000000
     15606      5202  TIP3      H2            -37.4897166405       20.8122477139      -21.2485996465  W2        5202            0.0000000000
     15607      5203  TIP3      OH2           -51.8944566405       39.5543477139      -21.9509896465  W2        5203            0.0000000000
     15608      5203  TIP3      H1            -52.6148166405       39.9944477139      -22.4022196465  W2        5203            0.0000000000
     15609      5203  TIP3      H2            -52.2600566405       39.3038177139      -21.1025896465  W2        5203            0.0000000000
     15610      5204  TIP3      OH2           -49.4271966405       39.1547377139      -22.9212696465  W2        5204            0.0000000000
     15611      5204  TIP3      H1            -50.2919766405       39.2265877139      -22.5172596465  W2        5204            0.0000000000
     15612      5204  TIP3      H2            -49.4822966405       39.7014677139      -23.7050196465  W2        5204            0.0000000000
     15613      5205  TIP3      OH2           -44.7166366405       39.0426277139      -23.7456696465  W2        5205            0.0000000000
     15614      5205  TIP3      H1            -45.1732366405       39.5715977139      -24.3998296465  W2        5205            0.0000000000
     15615      5205  TIP3      H2            -44.5538366405       39.6457677139      -23.0204396465  W2        5205            0.0000000000
     15616      5206  TIP3      OH2           -42.3890066405       37.9205877139      -22.8006396465  W2        5206            0.0000000000
     15617      5206  TIP3      H1            -43.2936366405       38.0856077139      -23.0664296465  W2        5206            0.0000000000
     15618      5206  TIP3      H2            -41.9601466405       38.7738077139      -22.8662996465  W2        5206            0.0000000000
     15619      5207  TIP3      OH2           -39.7848166405       39.4904977139      -22.5058596465  W2        5207            0.0000000000
     15620      5207  TIP3      H1            -39.9666166405       40.4063877139      -22.7163696465  W2        5207            0.0000000000
     15621      5207  TIP3      H2            -39.6080366405       39.0802077139      -23.3523996465  W2        5207            0.0000000000
     15622      5208  TIP3      OH2           -52.4796466405       38.1775977139      -25.0408096465  W2        5208            0.0000000000
     15623      5208  TIP3      H1            -52.4980466405       37.7521077139      -24.1835796465  W2        5208            0.0000000000
     15624      5208  TIP3      H2            -51.6748566405       37.8590977139      -25.4495896465  W2        5208            0.0000000000
     15625      5209  TIP3      OH2           -50.3383366405       36.8874677139      -26.3858196465  W2        5209            0.0000000000
     15626      5209  TIP3      H1            -50.5572666405       35.9712077139      -26.2162196465  W2        5209            0.0000000000
     15627      5209  TIP3      H2            -49.5141166405       37.0275077139      -25.9196796465  W2        5209            0.0000000000
     15628      5210  TIP3      OH2           -47.8010866405       37.3573977139      -25.5370196465  W2        5210            0.0000000000
     15629      5210  TIP3      H1            -47.5885166405       36.4692977139      -25.8239296465  W2        5210            0.0000000000
     15630      5210  TIP3      H2            -47.7365766405       37.3231677139      -24.5826196465  W2        5210            0.0000000000
     15631      5211  TIP3      OH2           -44.2927166405       23.0214577139      -26.3926896465  W2        5211            0.0000000000
     15632      5211  TIP3      H1            -44.9670366405       22.3920177139      -26.1371096465  W2        5211            0.0000000000
     15633      5211  TIP3      H2            -43.7287966405       22.5373477139      -26.9958996465  W2        5211            0.0000000000
     15634      5212  TIP3      OH2           -39.1499966405       21.1288577139      -26.2799796465  W2        5212            0.0000000000
     15635      5212  TIP3      H1            -38.5462366405       21.6763977139      -26.7818796465  W2        5212            0.0000000000
     15636      5212  TIP3      H2            -40.0197966405       21.4478977139      -26.5205696465  W2        5212            0.0000000000
     15637      5213  TIP3      OH2           -37.4229566405       22.2677277139      -27.9468896465  W2        5213            0.0000000000
     15638      5213  TIP3      H1            -36.8112066405       21.7532977139      -28.4735296465  W2        5213            0.0000000000
     15639      5213  TIP3      H2            -37.0406166405       23.1449377139      -27.9234496465  W2        5213            0.0000000000
     15640      5214  TIP3      OH2           -51.9659666405       21.6554877139      -28.5706996465  W2        5214            0.0000000000
     15641      5214  TIP3      H1            -52.7429866405       21.4209777139      -29.0781096465  W2        5214            0.0000000000
     15642      5214  TIP3      H2            -51.4356066405       20.8586977139      -28.5618996465  W2        5214            0.0000000000
     15643      5215  TIP3      OH2           -53.1296266405       21.4532977139      -32.7670896465  W2        5215            0.0000000000
     15644      5215  TIP3      H1            -52.6905566405       22.0643477139      -33.3587396465  W2        5215            0.0000000000
     15645      5215  TIP3      H2            -53.7633866405       21.9917077139      -32.2930896465  W2        5215            0.0000000000
     15646      5216  TIP3      OH2           -47.3867066405       21.5821977139      -28.7573896465  W2        5216            0.0000000000
     15647      5216  TIP3      H1            -46.5123666405       21.9706277139      -28.7869596465  W2        5216            0.0000000000
     15648      5216  TIP3      H2            -47.5226266405       21.3669777139      -27.8346696465  W2        5216            0.0000000000
     15649      5217  TIP3      OH2           -41.8298666405       21.6121777139      -27.1082196465  W2        5217            0.0000000000
     15650      5217  TIP3      H1            -41.7537066405       21.7073377139      -28.0576196465  W2        5217            0.0000000000
     15651      5217  TIP3      H2            -42.1049466405       20.7044677139      -26.9793096465  W2        5217            0.0000000000
     15652      5218  TIP3      OH2           -40.4766066405       21.6379577139      -31.4157196465  W2        5218            0.0000000000
     15653      5218  TIP3      H1            -41.1794966405       22.2528777139      -31.6255796465  W2        5218            0.0000000000
     15654      5218  TIP3      H2            -40.9214666405       20.8006277139      -31.2846296465  W2        5218            0.0000000000
     15655      5219  TIP3      OH2           -53.2286766405       37.4015177139      -31.8695796465  W2        5219            0.0000000000
     15656      5219  TIP3      H1            -53.9136866405       37.3634077139      -32.5370696465  W2        5219            0.0000000000
     15657      5219  TIP3      H2            -53.2249566405       38.3142777139      -31.5813696465  W2        5219            0.0000000000
     15658      5220  TIP3      OH2           -51.2687166405       23.3694477139      -34.3246796465  W2        5220            0.0000000000
     15659      5220  TIP3      H1            -50.7773766405       22.7396877139      -34.8521296465  W2        5220            0.0000000000
     15660      5220  TIP3      H2            -50.6450866405       23.6653877139      -33.6615596465  W2        5220            0.0000000000
     15661      5221  TIP3      OH2           -46.2427066405       23.6625977139      -31.8676296465  W2        5221            0.0000000000
     15662      5221  TIP3      H1            -46.0645766405       23.0159177139      -31.1847696465  W2        5221            0.0000000000
     15663      5221  TIP3      H2            -46.2960866405       24.4963677139      -31.4005196465  W2        5221            0.0000000000
     15664      5222  TIP3      OH2           -44.3643266405       38.6110077139      -33.4719596465  W2        5222            0.0000000000
     15665      5222  TIP3      H1            -43.4983066405       38.9777477139      -33.6501396465  W2        5222            0.0000000000
     15666      5222  TIP3      H2            -44.6110466405       38.1718077139      -34.2858796465  W2        5222            0.0000000000
     15667      5223  TIP3      OH2           -37.6553666405       38.1740377139      -30.7928496465  W2        5223            0.0000000000
     15668      5223  TIP3      H1            -37.8496566405       37.4262477139      -31.3578896465  W2        5223            0.0000000000
     15669      5223  TIP3      H2            -37.6943566405       38.9320477139      -31.3760596465  W2        5223            0.0000000000
     15670      5224  TIP3      OH2           -52.0081666405       22.1696777139      -19.0530796465  W2        5224            0.0000000000
     15671      5224  TIP3      H1            -52.3743466405       21.4039377139      -18.6106096465  W2        5224            0.0000000000
     15672      5224  TIP3      H2            -51.0953166405       22.1986977139      -18.7665696465  W2        5224            0.0000000000
     15673      5225  TIP3      OH2           -50.0350866405       21.5201177139      -17.5173696465  W2        5225            0.0000000000
     15674      5225  TIP3      H1            -49.1367266405       21.2461377139      -17.7020296465  W2        5225            0.0000000000
     15675      5225  TIP3      H2            -50.4217766405       20.7777177139      -17.0531096465  W2        5225            0.0000000000
     15676      5226  TIP3      OH2           -51.4105566405       38.3215977139      -34.8443696465  W2        5226            0.0000000000
     15677      5226  TIP3      H1            -51.6780966405       38.6078877139      -33.9710596465  W2        5226            0.0000000000
     15678      5226  TIP3      H2            -50.6392966405       37.7755177139      -34.6921196465  W2        5226            0.0000000000
     15679      5227  TIP3      OH2           -41.6138566405       20.8526477139      -17.3350896465  W2        5227            0.0000000000
     15680      5227  TIP3      H1            -41.5371366405       20.4267177139      -16.4813196465  W2        5227            0.0000000000
     15681      5227  TIP3      H2            -40.7201966405       20.8661177139      -17.6777396465  W2        5227            0.0000000000
     15682      5228  TIP3      OH2           -38.4377466405       36.9252777139      -18.6426696465  W2        5228            0.0000000000
     15683      5228  TIP3      H1            -39.2195566405       36.7390777139      -19.1626096465  W2        5228            0.0000000000
     15684      5228  TIP3      H2            -38.5097566405       37.8547077139      -18.4254196465  W2        5228            0.0000000000
     15685      5229  TIP3      OH2           -24.0317066405       30.8117177139      -28.6119496465  W2        5229            0.0000000000
     15686      5229  TIP3      H1            -23.9425966405       31.7555377139      -28.7442396465  W2        5229            0.0000000000
     15687      5229  TIP3      H2            -24.6699466405       30.5363577139      -29.2700096465  W2        5229            0.0000000000
     15688      5230  TIP3      OH2           -25.0985766405       30.0667877139      -25.1931296465  W2        5230            0.0000000000
     15689      5230  TIP3      H1            -25.1368266405       29.4204177139      -24.4881696465  W2        5230            0.0000000000
     15690      5230  TIP3      H2            -25.4209266405       29.6002277139      -25.9642596465  W2        5230            0.0000000000
     15691      5231  TIP3      OH2           -32.7300766405       29.6809977139      -23.6001396465  W2        5231            0.0000000000
     15692      5231  TIP3      H1            -32.6888666405       29.0553277139      -22.8768996465  W2        5231            0.0000000000
     15693      5231  TIP3      H2            -32.0273066405       30.3048577139      -23.4180996465  W2        5231            0.0000000000
     15694      5232  TIP3      OH2           -21.3925566405       33.0058277139      -26.8916196465  W2        5232            0.0000000000
     15695      5232  TIP3      H1            -21.8332866405       32.2854277139      -26.4410596465  W2        5232            0.0000000000
     15696      5232  TIP3      H2            -21.4055866405       33.7265477139      -26.2618496465  W2        5232            0.0000000000
     15697      5233  TIP3      OH2           -31.8067666405       34.1308877139      -25.0652296465  W2        5233            0.0000000000
     15698      5233  TIP3      H1            -32.1762466405       33.3289377139      -25.4347996465  W2        5233            0.0000000000
     15699      5233  TIP3      H2            -30.8656566405       33.9623777139      -25.0188896465  W2        5233            0.0000000000
     15700      5234  TIP3      OH2           -35.1967166405       27.7911477139      -29.6723496465  W2        5234            0.0000000000
     15701      5234  TIP3      H1            -35.6443766405       28.6370177139      -29.6906996465  W2        5234            0.0000000000
     15702      5234  TIP3      H2            -35.7575966405       27.2115677139      -30.1878396465  W2        5234            0.0000000000
     15703      5235  TIP3      OH2           -34.4861066405       29.9531077139      -27.5465496465  W2        5235            0.0000000000
     15704      5235  TIP3      H1            -34.2727566405       29.1832677139      -27.0192496465  W2        5235            0.0000000000
     15705      5235  TIP3      H2            -33.7483466405       30.0427777139      -28.1497896465  W2        5235            0.0000000000
     15706      5236  TIP3      OH2           -24.2810066405       38.1099977139      -26.6795796465  W2        5236            0.0000000000
     15707      5236  TIP3      H1            -23.6613666405       37.4334677139      -26.9526596465  W2        5236            0.0000000000
     15708      5236  TIP3      H2            -24.4892666405       37.8920777139      -25.7710896465  W2        5236            0.0000000000
     15709      5237  TIP3      OH2           -26.7091366405       32.4989277139      -24.7870296465  W2        5237            0.0000000000
     15710      5237  TIP3      H1            -26.4053466405       31.8130677139      -25.3816196465  W2        5237            0.0000000000
     15711      5237  TIP3      H2            -25.9877366405       32.6177977139      -24.1692296465  W2        5237            0.0000000000
     15712      5238  TIP3      OH2           -18.0461566405       24.1004577139      -23.9264096465  W2        5238            0.0000000000
     15713      5238  TIP3      H1            -17.9969366405       24.7105777139      -23.1904996465  W2        5238            0.0000000000
     15714      5238  TIP3      H2            -17.6206466405       24.5615477139      -24.6492996465  W2        5238            0.0000000000
     15715      5239  TIP3      OH2           -23.5684366405       26.8931677139      -24.4595496465  W2        5239            0.0000000000
     15716      5239  TIP3      H1            -23.4258466405       25.9468677139      -24.4393896465  W2        5239            0.0000000000
     15717      5239  TIP3      H2            -23.6745366405       27.1001477139      -25.3880596465  W2        5239            0.0000000000
     15718      5240  TIP3      OH2           -30.4136066405       24.9948077139      -27.1870696465  W2        5240            0.0000000000
     15719      5240  TIP3      H1            -30.3704966405       25.8546577139      -27.6054396465  W2        5240            0.0000000000
     15720      5240  TIP3      H2            -30.8711966405       24.4422777139      -27.8207496465  W2        5240            0.0000000000
     15721      5241  TIP3      OH2           -22.6913366405       25.1253677139      -28.7862396465  W2        5241            0.0000000000
     15722      5241  TIP3      H1            -22.0449066405       24.7966877139      -28.1614796465  W2        5241            0.0000000000
     15723      5241  TIP3      H2            -22.1813966405       25.6432677139      -29.4090996465  W2        5241            0.0000000000
     15724      5242  TIP3      OH2           -33.7934566405       27.3913877139      -26.4249296465  W2        5242            0.0000000000
     15725      5242  TIP3      H1            -33.1397966405       26.8415577139      -25.9929196465  W2        5242            0.0000000000
     15726      5242  TIP3      H2            -33.7695266405       27.1172877139      -27.3417296465  W2        5242            0.0000000000
     15727      5243  TIP3      OH2           -28.6370066405       28.9415177139      -27.2097796465  W2        5243            0.0000000000
     15728      5243  TIP3      H1            -28.0209066405       28.4150577139      -26.7003796465  W2        5243            0.0000000000
     15729      5243  TIP3      H2            -29.2231266405       28.3013877139      -27.6134196465  W2        5243            0.0000000000
     15730      5244  TIP3      OH2           -17.6546966405       25.5783777139      -21.6904296465  W2        5244            0.0000000000
     15731      5244  TIP3      H1            -18.3432366405       26.2364477139      -21.7857696465  W2        5244            0.0000000000
     15732      5244  TIP3      H2            -17.6392366405       25.3811677139      -20.7538896465  W2        5244            0.0000000000
     15733      5245  TIP3      OH2           -31.6034166405       23.9126477139      -23.1129896465  W2        5245            0.0000000000
     15734      5245  TIP3      H1            -31.8222466405       24.4427077139      -23.8793896465  W2        5245            0.0000000000
     15735      5245  TIP3      H2            -32.2713266405       24.1391977139      -22.4658496465  W2        5245            0.0000000000
     15736      5246  TIP3      OH2           -24.2344366405       33.4127577139      -29.5690796465  W2        5246            0.0000000000
     15737      5246  TIP3      H1            -24.5299266405       33.0899877139      -30.4203896465  W2        5246            0.0000000000
     15738      5246  TIP3      H2            -24.5586566405       34.3124277139      -29.5278196465  W2        5246            0.0000000000
     15739      5247  TIP3      OH2           -29.0342766405       31.5882177139      -22.8256196465  W2        5247            0.0000000000
     15740      5247  TIP3      H1            -29.7743666405       32.1863677139      -22.7220996465  W2        5247            0.0000000000
     15741      5247  TIP3      H2            -28.3203266405       32.1421777139      -23.1412596465  W2        5247            0.0000000000
     15742      5248  TIP3      OH2           -20.9274966405       24.4162977139      -26.8056496465  W2        5248            0.0000000000
     15743      5248  TIP3      H1            -21.1426966405       23.6506377139      -26.2730496465  W2        5248            0.0000000000
     15744      5248  TIP3      H2            -20.2717566405       24.8887577139      -26.2927996465  W2        5248            0.0000000000
     15745      5249  TIP3      OH2           -32.0096866405       25.8048277139      -25.1607696465  W2        5249            0.0000000000
     15746      5249  TIP3      H1            -31.3960566405       26.4375877139      -24.7875296465  W2        5249            0.0000000000
     15747      5249  TIP3      H2            -31.4976166405       25.3323277139      -25.8170796465  W2        5249            0.0000000000
     15748      5250  TIP3      OH2           -30.6268466405       33.5525177139      -22.0384696465  W2        5250            0.0000000000
     15749      5250  TIP3      H1            -30.6320866405       34.4318677139      -22.4165396465  W2        5250            0.0000000000
     15750      5250  TIP3      H2            -31.4804366405       33.4689277139      -21.6134796465  W2        5250            0.0000000000
     15751      5251  TIP3      OH2           -34.5057566405       33.2233077139      -31.2565396465  W2        5251            0.0000000000
     15752      5251  TIP3      H1            -34.7776666405       33.4524077139      -32.1452496465  W2        5251            0.0000000000
     15753      5251  TIP3      H2            -34.4601866405       34.0611877139      -30.7960096465  W2        5251            0.0000000000
     15754      5252  TIP3      OH2           -20.8807866405       34.8448977139      -24.5436896465  W2        5252            0.0000000000
     15755      5252  TIP3      H1            -21.8224166405       34.9032877139      -24.3819996465  W2        5252            0.0000000000
     15756      5252  TIP3      H2            -20.6041766405       35.7509477139      -24.6807196465  W2        5252            0.0000000000
     15757      5253  TIP3      OH2           -20.5800866405       23.1314277139      -23.1262996465  W2        5253            0.0000000000
     15758      5253  TIP3      H1            -21.3161666405       23.7421377139      -23.1641696465  W2        5253            0.0000000000
     15759      5253  TIP3      H2            -19.8966866405       23.5463277139      -23.6526596465  W2        5253            0.0000000000
     15760      5254  TIP3      OH2           -27.5769466405       21.2181577139      -25.6604996465  W2        5254            0.0000000000
     15761      5254  TIP3      H1            -27.6945266405       20.2697577139      -25.7146696465  W2        5254            0.0000000000
     15762      5254  TIP3      H2            -28.4319366405       21.5507677139      -25.3873896465  W2        5254            0.0000000000
     15763      5255  TIP3      OH2           -22.6286666405       36.6262477139      -27.9185296465  W2        5255            0.0000000000
     15764      5255  TIP3      H1            -22.2034366405       35.9190377139      -28.4035696465  W2        5255            0.0000000000
     15765      5255  TIP3      H2            -22.3116666405       37.4275177139      -28.3353096465  W2        5255            0.0000000000
     15766      5256  TIP3      OH2           -21.4690166405       34.5270977139      -29.4098696465  W2        5256            0.0000000000
     15767      5256  TIP3      H1            -21.7265366405       33.8371077139      -30.0212796465  W2        5256            0.0000000000
     15768      5256  TIP3      H2            -21.3979366405       34.0842177139      -28.5642796465  W2        5256            0.0000000000
     15769      5257  TIP3      OH2           -19.7829966405       33.0937677139      -20.9325196465  W2        5257            0.0000000000
     15770      5257  TIP3      H1            -19.6433666405       32.5020177139      -21.6718196465  W2        5257            0.0000000000
     15771      5257  TIP3      H2            -19.6157166405       33.9663577139      -21.2886396465  W2        5257            0.0000000000
     15772      5258  TIP3      OH2           -25.3104566405       30.0557177139      -31.1599196465  W2        5258            0.0000000000
     15773      5258  TIP3      H1            -26.0219066405       30.5906877139      -31.5118696465  W2        5258            0.0000000000
     15774      5258  TIP3      H2            -24.6194966405       30.1109277139      -31.8200296465  W2        5258            0.0000000000
     15775      5259  TIP3      OH2           -25.2565366405       28.5131477139      -34.1214196465  W2        5259            0.0000000000
     15776      5259  TIP3      H1            -24.5555466405       28.5358377139      -33.4700196465  W2        5259            0.0000000000
     15777      5259  TIP3      H2            -24.9542466405       27.8851177139      -34.7774896465  W2        5259            0.0000000000
     15778      5260  TIP3      OH2           -17.9410666405       29.4335677139      -22.8664796465  W2        5260            0.0000000000
     15779      5260  TIP3      H1            -18.5936566405       30.1281277139      -22.7773896465  W2        5260            0.0000000000
     15780      5260  TIP3      H2            -17.4760366405       29.6436577139      -23.6763196465  W2        5260            0.0000000000
     15781      5261  TIP3      OH2           -21.9046866405       30.2650477139      -30.2083296465  W2        5261            0.0000000000
     15782      5261  TIP3      H1            -22.6365866405       30.4934177139      -29.6352696465  W2        5261            0.0000000000
     15783      5261  TIP3      H2            -21.4574666405       29.5513177139      -29.7535796465  W2        5261            0.0000000000
     15784      5262  TIP3      OH2           -22.0073366405       28.4393077139      -21.1406296465  W2        5262            0.0000000000
     15785      5262  TIP3      H1            -21.9274266405       29.2027477139      -20.5687796465  W2        5262            0.0000000000
     15786      5262  TIP3      H2            -22.6085666405       28.7185477139      -21.8311196465  W2        5262            0.0000000000
     15787      5263  TIP3      OH2           -30.2593166405       30.8956677139      -28.3258296465  W2        5263            0.0000000000
     15788      5263  TIP3      H1            -30.5897966405       30.5250077139      -29.1441296465  W2        5263            0.0000000000
     15789      5263  TIP3      H2            -29.6709066405       30.2250677139      -27.9789996465  W2        5263            0.0000000000
     15790      5264  TIP3      OH2           -28.8925666405       34.3237277139      -25.6446096465  W2        5264            0.0000000000
     15791      5264  TIP3      H1            -28.9874366405       33.7450377139      -26.4011496465  W2        5264            0.0000000000
     15792      5264  TIP3      H2            -28.1632066405       33.9522977139      -25.1483296465  W2        5264            0.0000000000
     15793      5265  TIP3      OH2           -29.8927666405       29.6642277139      -24.6923296465  W2        5265            0.0000000000
     15794      5265  TIP3      H1            -29.3275166405       29.7856477139      -25.4552096465  W2        5265            0.0000000000
     15795      5265  TIP3      H2            -29.5738766405       30.3017277139      -24.0534796465  W2        5265            0.0000000000
     15796      5266  TIP3      OH2           -23.5835466405       35.1674177139      -23.9582796465  W2        5266            0.0000000000
     15797      5266  TIP3      H1            -23.8238866405       35.8297277139      -23.3103596465  W2        5266            0.0000000000
     15798      5266  TIP3      H2            -23.7817266405       34.3329377139      -23.5333196465  W2        5266            0.0000000000
     15799      5267  TIP3      OH2           -29.0126966405       34.0634977139      -19.9751396465  W2        5267            0.0000000000
     15800      5267  TIP3      H1            -29.3239466405       34.8458177139      -19.5198196465  W2        5267            0.0000000000
     15801      5267  TIP3      H2            -29.6626766405       33.9104077139      -20.6609396465  W2        5267            0.0000000000
     15802      5268  TIP3      OH2           -23.0337366405       29.4273377139      -32.5232096465  W2        5268            0.0000000000
     15803      5268  TIP3      H1            -22.4541866405       29.5773677139      -31.7763196465  W2        5268            0.0000000000
     15804      5268  TIP3      H2            -22.6197366405       29.8980777139      -33.2465696465  W2        5268            0.0000000000
     15805      5269  TIP3      OH2           -32.0927066405       30.2616077139      -20.7465696465  W2        5269            0.0000000000
     15806      5269  TIP3      H1            -32.0223866405       30.9122877139      -20.0480696465  W2        5269            0.0000000000
     15807      5269  TIP3      H2            -32.9834866405       30.3643577139      -21.0814796465  W2        5269            0.0000000000
     15808      5270  TIP3      OH2           -25.3072466405       36.1641877139      -29.0878996465  W2        5270            0.0000000000
     15809      5270  TIP3      H1            -24.8334866405       36.4598177139      -28.3104796465  W2        5270            0.0000000000
     15810      5270  TIP3      H2            -25.8703166405       36.9023477139      -29.3209396465  W2        5270            0.0000000000
     15811      5271  TIP3      OH2           -30.7731066405       36.1349977139      -19.2117596465  W2        5271            0.0000000000
     15812      5271  TIP3      H1            -30.7655766405       35.9989677139      -20.1592096465  W2        5271            0.0000000000
     15813      5271  TIP3      H2            -31.6890666405       36.0178077139      -18.9597596465  W2        5271            0.0000000000
     15814      5272  TIP3      OH2           -19.3348966405       21.1773777139      -32.7102396465  W2        5272            0.0000000000
     15815      5272  TIP3      H1            -20.2348266405       21.3162777139      -32.4151796465  W2        5272            0.0000000000
     15816      5272  TIP3      H2            -19.0830566405       22.0088377139      -33.1120696465  W2        5272            0.0000000000
     15817      5273  TIP3      OH2           -31.2690466405       29.9650977139      -30.7365496465  W2        5273            0.0000000000
     15818      5273  TIP3      H1            -31.5609166405       30.7332677139      -31.2274196465  W2        5273            0.0000000000
     15819      5273  TIP3      H2            -31.9435266405       29.3057177139      -30.8994096465  W2        5273            0.0000000000
     15820      5274  TIP3      OH2           -18.1457566405       35.5436177139      -34.3338496465  W2        5274            0.0000000000
     15821      5274  TIP3      H1            -18.0724066405       36.4826377139      -34.1633196465  W2        5274            0.0000000000
     15822      5274  TIP3      H2            -17.2402466405       35.2384777139      -34.3901196465  W2        5274            0.0000000000
     15823      5275  TIP3      OH2           -35.1760366405       32.3280177139      -21.9215696465  W2        5275            0.0000000000
     15824      5275  TIP3      H1            -35.6771966405       32.2999577139      -22.7365996465  W2        5275            0.0000000000
     15825      5275  TIP3      H2            -35.1706666405       31.4223377139      -21.6118396465  W2        5275            0.0000000000
     15826      5276  TIP3      OH2           -35.4257666405       35.1083977139      -25.0375496465  W2        5276            0.0000000000
     15827      5276  TIP3      H1            -34.4797066405       34.9640977139      -25.0565996465  W2        5276            0.0000000000
     15828      5276  TIP3      H2            -35.5381366405       35.8926777139      -24.5004296465  W2        5276            0.0000000000
     15829      5277  TIP3      OH2           -17.2279166405       35.7743677139      -19.3551796465  W2        5277            0.0000000000
     15830      5277  TIP3      H1            -17.2772366405       34.8191777139      -19.3924196465  W2        5277            0.0000000000
     15831      5277  TIP3      H2            -18.0546866405       36.0418977139      -18.9537996465  W2        5277            0.0000000000
     15832      5278  TIP3      OH2           -26.2495166405       35.3482877139      -20.4790396465  W2        5278            0.0000000000
     15833      5278  TIP3      H1            -26.1620566405       36.1747477139      -20.0041296465  W2        5278            0.0000000000
     15834      5278  TIP3      H2            -27.1130066405       35.0186677139      -20.2301096465  W2        5278            0.0000000000
     15835      5279  TIP3      OH2           -25.8349366405       39.1206577139      -30.6729796465  W2        5279            0.0000000000
     15836      5279  TIP3      H1            -25.9103366405       38.9993777139      -31.6194596465  W2        5279            0.0000000000
     15837      5279  TIP3      H2            -25.8020666405       40.0699277139      -30.5545196465  W2        5279            0.0000000000
     15838      5280  TIP3      OH2           -32.1815566405       37.9093577139      -28.8920796465  W2        5280            0.0000000000
     15839      5280  TIP3      H1            -32.0295166405       37.5613977139      -28.0134296465  W2        5280            0.0000000000
     15840      5280  TIP3      H2            -33.0325166405       37.5530877139      -29.1473596465  W2        5280            0.0000000000
     15841      5281  TIP3      OH2           -22.7333366405       38.2746777139      -33.6707396465  W2        5281            0.0000000000
     15842      5281  TIP3      H1            -22.3584966405       37.5302877139      -34.1414796465  W2        5281            0.0000000000
     15843      5281  TIP3      H2            -22.7289666405       38.0047377139      -32.7524096465  W2        5281            0.0000000000
     15844      5282  TIP3      OH2           -23.0645266405       38.2003877139      -30.9215196465  W2        5282            0.0000000000
     15845      5282  TIP3      H1            -23.9995466405       38.3005777139      -30.7428196465  W2        5282            0.0000000000
     15846      5282  TIP3      H2            -22.7843366405       37.4909877139      -30.3431996465  W2        5282            0.0000000000
     15847      5283  TIP3      OH2           -20.0759366405       27.2676177139      -18.8749596465  W2        5283            0.0000000000
     15848      5283  TIP3      H1            -20.4832566405       27.7481777139      -19.5956296465  W2        5283            0.0000000000
     15849      5283  TIP3      H2            -20.0353666405       26.3622177139      -19.1828796465  W2        5283            0.0000000000
     15850      5284  TIP3      OH2           -32.9269866405       33.6515577139      -20.8782896465  W2        5284            0.0000000000
     15851      5284  TIP3      H1            -32.7108566405       33.2901177139      -20.0187096465  W2        5284            0.0000000000
     15852      5284  TIP3      H2            -33.7825166405       33.2769377139      -21.0879396465  W2        5284            0.0000000000
     15853      5285  TIP3      OH2           -30.3081866405       22.1216077139      -24.8828696465  W2        5285            0.0000000000
     15854      5285  TIP3      H1            -31.1698166405       22.0344277139      -25.2905796465  W2        5285            0.0000000000
     15855      5285  TIP3      H2            -30.3306166405       22.9776177139      -24.4551096465  W2        5285            0.0000000000
     15856      5286  TIP3      OH2           -25.6454066405       21.8436477139      -21.5081696465  W2        5286            0.0000000000
     15857      5286  TIP3      H1            -25.2250966405       21.4283577139      -20.7551096465  W2        5286            0.0000000000
     15858      5286  TIP3      H2            -26.5784466405       21.6649777139      -21.3909696465  W2        5286            0.0000000000
     15859      5287  TIP3      OH2           -22.3189166405       25.5991677139      -20.6547196465  W2        5287            0.0000000000
     15860      5287  TIP3      H1            -22.8329666405       25.4733877139      -19.8571196465  W2        5287            0.0000000000
     15861      5287  TIP3      H2            -22.4744466405       26.5114777139      -20.8990996465  W2        5287            0.0000000000
     15862      5288  TIP3      OH2           -21.5564266405       30.4601677139      -34.8934196465  W2        5288            0.0000000000
     15863      5288  TIP3      H1            -21.5143466405       30.2375577139      -35.8234196465  W2        5288            0.0000000000
     15864      5288  TIP3      H2            -20.7072166405       30.8588777139      -34.7034296465  W2        5288            0.0000000000
     15865      5289  TIP3      OH2           -25.9836766405       24.3359877139      -34.2230896465  W2        5289            0.0000000000
     15866      5289  TIP3      H1            -26.2371966405       24.3551477139      -33.3002796465  W2        5289            0.0000000000
     15867      5289  TIP3      H2            -26.2404666405       23.4645277139      -34.5244696465  W2        5289            0.0000000000
     15868      5290  TIP3      OH2           -30.2171766405       27.0870577139      -23.7878496465  W2        5290            0.0000000000
     15869      5290  TIP3      H1            -30.8589666405       27.0467877139      -23.0788396465  W2        5290            0.0000000000
     15870      5290  TIP3      H2            -30.1799766405       28.0135277139      -24.0255496465  W2        5290            0.0000000000
     15871      5291  TIP3      OH2           -30.2202666405       27.3080677139      -28.8758496465  W2        5291            0.0000000000
     15872      5291  TIP3      H1            -31.1129766405       26.9676777139      -28.9344696465  W2        5291            0.0000000000
     15873      5291  TIP3      H2            -29.7696066405       26.9311577139      -29.6315296465  W2        5291            0.0000000000
     15874      5292  TIP3      OH2           -24.6847166405       27.7240977139      -30.0587696465  W2        5292            0.0000000000
     15875      5292  TIP3      H1            -25.0936866405       28.5389577139      -30.3502896465  W2        5292            0.0000000000
     15876      5292  TIP3      H2            -23.9640966405       27.5841077139      -30.6730596465  W2        5292            0.0000000000
     15877      5293  TIP3      OH2           -25.5825566405       27.8997377139      -18.5706996465  W2        5293            0.0000000000
     15878      5293  TIP3      H1            -26.1451766405       27.1948977139      -18.2499196465  W2        5293            0.0000000000
     15879      5293  TIP3      H2            -24.7562166405       27.7789277139      -18.1029396465  W2        5293            0.0000000000
     15880      5294  TIP3      OH2           -23.6799466405       27.1701377139      -27.2447996465  W2        5294            0.0000000000
     15881      5294  TIP3      H1            -23.8754966405       27.7758177139      -27.9597396465  W2        5294            0.0000000000
     15882      5294  TIP3      H2            -23.4986866405       26.3366577139      -27.6791696465  W2        5294            0.0000000000
     15883      5295  TIP3      OH2           -32.4671266405       27.4074077139      -21.9206496465  W2        5295            0.0000000000
     15884      5295  TIP3      H1            -32.5051866405       27.8075677139      -21.0519396465  W2        5295            0.0000000000
     15885      5295  TIP3      H2            -32.9580166405       26.5906477139      -21.8303596465  W2        5295            0.0000000000
     15886      5296  TIP3      OH2           -29.1013866405       24.7816377139      -35.1220496465  W2        5296            0.0000000000
     15887      5296  TIP3      H1            -29.5323166405       24.3366477139      -34.3923096465  W2        5296            0.0000000000
     15888      5296  TIP3      H2            -29.8195166405       25.1532677139      -35.6342996465  W2        5296            0.0000000000
     15889      5297  TIP3      OH2           -35.8590466405       24.5235877139      -28.0701796465  W2        5297            0.0000000000
     15890      5297  TIP3      H1            -35.2282766405       24.4947977139      -27.3507896465  W2        5297            0.0000000000
     15891      5297  TIP3      H2            -35.4096166405       24.0984577139      -28.8005896465  W2        5297            0.0000000000
     15892      5298  TIP3      OH2           -34.5848366405       25.2697877139      -32.6461396465  W2        5298            0.0000000000
     15893      5298  TIP3      H1            -34.1106666405       25.8607777139      -33.2310496465  W2        5298            0.0000000000
     15894      5298  TIP3      H2            -35.3021966405       25.8000777139      -32.2991296465  W2        5298            0.0000000000
     15895      5299  TIP3      OH2           -24.4160266405       28.8082677139      -22.5735596465  W2        5299            0.0000000000
     15896      5299  TIP3      H1            -24.0925466405       28.1772377139      -23.2165096465  W2        5299            0.0000000000
     15897      5299  TIP3      H2            -24.8560966405       28.2734877139      -21.9128196465  W2        5299            0.0000000000
     15898      5300  TIP3      OH2           -27.6387366405       24.7358177139      -27.7894396465  W2        5300            0.0000000000
     15899      5300  TIP3      H1            -28.5496266405       24.7924977139      -27.5008396465  W2        5300            0.0000000000
     15900      5300  TIP3      H2            -27.1334466405       24.6753677139      -26.9787196465  W2        5300            0.0000000000
     15901      5301  TIP3      OH2           -32.8103966405       26.3644477139      -28.9626796465  W2        5301            0.0000000000
     15902      5301  TIP3      H1            -33.6995966405       26.4639977139      -29.3027196465  W2        5301            0.0000000000
     15903      5301  TIP3      H2            -32.5139066405       25.5227477139      -29.3088896465  W2        5301            0.0000000000
     15904      5302  TIP3      OH2           -29.1572166405       26.3647077139      -31.3062196465  W2        5302            0.0000000000
     15905      5302  TIP3      H1            -28.2256666405       26.4937077139      -31.1279096465  W2        5302            0.0000000000
     15906      5302  TIP3      H2            -29.3721866405       27.0341377139      -31.9557496465  W2        5302            0.0000000000
     15907      5303  TIP3      OH2           -23.2335466405       23.9704477139      -24.5252596465  W2        5303            0.0000000000
     15908      5303  TIP3      H1            -23.9103866405       24.1017577139      -23.8612896465  W2        5303            0.0000000000
     15909      5303  TIP3      H2            -23.7190566405       23.8153977139      -25.3354896465  W2        5303            0.0000000000
     15910      5304  TIP3      OH2           -30.4831966405       27.5589277139      -33.7396096465  W2        5304            0.0000000000
     15911      5304  TIP3      H1            -31.0256866405       27.1793077139      -34.4308496465  W2        5304            0.0000000000
     15912      5304  TIP3      H2            -29.6497066405       27.7533977139      -34.1681996465  W2        5304            0.0000000000
     15913      5305  TIP3      OH2           -19.9460366405       39.6419877139      -18.2484996465  W2        5305            0.0000000000
     15914      5305  TIP3      H1            -19.7461666405       40.0661777139      -19.0829696465  W2        5305            0.0000000000
     15915      5305  TIP3      H2            -19.2906666405       39.9858077139      -17.6414596465  W2        5305            0.0000000000
     15916      5306  TIP3      OH2           -32.3480566405       32.1161177139      -18.6404496465  W2        5306            0.0000000000
     15917      5306  TIP3      H1            -31.6158166405       32.3707077139      -18.0789996465  W2        5306            0.0000000000
     15918      5306  TIP3      H2            -33.1281866405       32.3206577139      -18.1249096465  W2        5306            0.0000000000
     15919      5307  TIP3      OH2           -26.3187666405       27.5231177139      -25.9024796465  W2        5307            0.0000000000
     15920      5307  TIP3      H1            -25.7544266405       26.9767777139      -26.4495196465  W2        5307            0.0000000000
     15921      5307  TIP3      H2            -26.4664266405       27.0013077139      -25.1137196465  W2        5307            0.0000000000
     15922      5308  TIP3      OH2           -31.3167966405       23.6597277139      -29.4839996465  W2        5308            0.0000000000
     15923      5308  TIP3      H1            -31.6338466405       22.7572577139      -29.5194596465  W2        5308            0.0000000000
     15924      5308  TIP3      H2            -30.5353866405       23.6614677139      -30.0368396465  W2        5308            0.0000000000
     15925      5309  TIP3      OH2           -27.6921766405       25.9117277139      -23.4884396465  W2        5309            0.0000000000
     15926      5309  TIP3      H1            -28.5276466405       26.3656777139      -23.3781996465  W2        5309            0.0000000000
     15927      5309  TIP3      H2            -27.1681166405       26.1875777139      -22.7364496465  W2        5309            0.0000000000
     15928      5310  TIP3      OH2           -27.1479166405       32.1244977139      -31.8037996465  W2        5310            0.0000000000
     15929      5310  TIP3      H1            -27.8928166405       31.6170277139      -32.1260096465  W2        5310            0.0000000000
     15930      5310  TIP3      H2            -27.2821966405       32.1732977139      -30.8573196465  W2        5310            0.0000000000
     15931      5311  TIP3      OH2           -19.9980266405       31.2573177139      -23.0170396465  W2        5311            0.0000000000
     15932      5311  TIP3      H1            -19.3561466405       31.7139477139      -23.5608196465  W2        5311            0.0000000000
     15933      5311  TIP3      H2            -20.8283366405       31.3705577139      -23.4796296465  W2        5311            0.0000000000
     15934      5312  TIP3      OH2           -23.2502366405       24.9384877139      -33.6045396465  W2        5312            0.0000000000
     15935      5312  TIP3      H1            -24.1888166405       25.0500477139      -33.7556596465  W2        5312            0.0000000000
     15936      5312  TIP3      H2            -22.9530266405       25.7951777139      -33.2979696465  W2        5312            0.0000000000
     15937      5313  TIP3      OH2           -25.6287066405       32.3088277139      -20.5668896465  W2        5313            0.0000000000
     15938      5313  TIP3      H1            -25.9740966405       31.9270677139      -19.7599296465  W2        5313            0.0000000000
     15939      5313  TIP3      H2            -25.8286966405       33.2421877139      -20.4955996465  W2        5313            0.0000000000
     15940      5314  TIP3      OH2           -22.5318866405       26.8057577139      -31.9437996465  W2        5314            0.0000000000
     15941      5314  TIP3      H1            -21.6399866405       26.6682577139      -31.6246796465  W2        5314            0.0000000000
     15942      5314  TIP3      H2            -22.4755266405       27.5963677139      -32.4804496465  W2        5314            0.0000000000
     15943      5315  TIP3      OH2           -32.0230866405       31.4194977139      -26.0340096465  W2        5315            0.0000000000
     15944      5315  TIP3      H1            -31.2783666405       31.4170677139      -26.6353596465  W2        5315            0.0000000000
     15945      5315  TIP3      H2            -31.9454266405       30.5958777139      -25.5524996465  W2        5315            0.0000000000
     15946      5316  TIP3      OH2           -25.0225066405       33.5829277139      -32.7783396465  W2        5316            0.0000000000
     15947      5316  TIP3      H1            -25.3176666405       34.4097177139      -32.3968596465  W2        5316            0.0000000000
     15948      5316  TIP3      H2            -25.7255066405       32.9636177139      -32.5821996465  W2        5316            0.0000000000
     15949      5317  TIP3      OH2           -35.0151166405       29.8801877139      -20.7191596465  W2        5317            0.0000000000
     15950      5317  TIP3      H1            -34.7922566405       29.4621477139      -19.8874096465  W2        5317            0.0000000000
     15951      5317  TIP3      H2            -35.6171066405       29.2676877139      -21.1418796465  W2        5317            0.0000000000
     15952      5318  TIP3      OH2           -27.9986266405       29.3971777139      -18.5061896465  W2        5318            0.0000000000
     15953      5318  TIP3      H1            -28.2945466405       29.2314777139      -19.4012796465  W2        5318            0.0000000000
     15954      5318  TIP3      H2            -27.0671066405       29.1772077139      -18.5167996465  W2        5318            0.0000000000
     15955      5319  TIP3      OH2           -23.3783466405       34.7703777139      -20.6163896465  W2        5319            0.0000000000
     15956      5319  TIP3      H1            -24.2789166405       34.9536377139      -20.8839996465  W2        5319            0.0000000000
     15957      5319  TIP3      H2            -23.3442366405       35.0293077139      -19.6955096465  W2        5319            0.0000000000
     15958      5320  TIP3      OH2           -17.6470166405       27.0151677139      -32.2491296465  W2        5320            0.0000000000
     15959      5320  TIP3      H1            -18.2013866405       26.6189677139      -32.9213796465  W2        5320            0.0000000000
     15960      5320  TIP3      H2            -17.5466566405       27.9256877139      -32.5267996465  W2        5320            0.0000000000
     15961      5321  TIP3      OH2           -17.6838166405       32.8153377139      -19.4119796465  W2        5321            0.0000000000
     15962      5321  TIP3      H1            -18.5349666405       33.0537177139      -19.7793396465  W2        5321            0.0000000000
     15963      5321  TIP3      H2            -17.0934766405       32.7986577139      -20.1652696465  W2        5321            0.0000000000
     15964      5322  TIP3      OH2           -19.3518466405       35.8012077139      -31.7839196465  W2        5322            0.0000000000
     15965      5322  TIP3      H1            -19.7247366405       34.9755877139      -31.4748596465  W2        5322            0.0000000000
     15966      5322  TIP3      H2            -19.0744966405       35.6181477139      -32.6815796465  W2        5322            0.0000000000
     15967      5323  TIP3      OH2           -22.1914566405       30.6091577139      -24.7627296465  W2        5323            0.0000000000
     15968      5323  TIP3      H1            -23.1197666405       30.3773477139      -24.7897996465  W2        5323            0.0000000000
     15969      5323  TIP3      H2            -21.7403466405       29.8321377139      -25.0928496465  W2        5323            0.0000000000
     15970      5324  TIP3      OH2           -29.6481466405       34.9373177139      -28.6298596465  W2        5324            0.0000000000
     15971      5324  TIP3      H1            -29.1209266405       35.7107577139      -28.8299796465  W2        5324            0.0000000000
     15972      5324  TIP3      H2            -30.5282966405       35.1622377139      -28.9314596465  W2        5324            0.0000000000
     15973      5325  TIP3      OH2           -33.8933766405       29.7997277139      -34.0426196465  W2        5325            0.0000000000
     15974      5325  TIP3      H1            -33.2773866405       30.4264477139      -33.6631396465  W2        5325            0.0000000000
     15975      5325  TIP3      H2            -34.7551166405       30.1157077139      -33.7709696465  W2        5325            0.0000000000
     15976      5326  TIP3      OH2           -28.2209166405       32.6003077139      -29.0534296465  W2        5326            0.0000000000
     15977      5326  TIP3      H1            -28.4619166405       33.5257477139      -29.0118996465  W2        5326            0.0000000000
     15978      5326  TIP3      H2            -28.9615566405       32.1414377139      -28.6570396465  W2        5326            0.0000000000
     15979      5327  TIP3      OH2           -27.7062566405       36.7496677139      -22.7383196465  W2        5327            0.0000000000
     15980      5327  TIP3      H1            -27.3437866405       37.6042277139      -22.9718796465  W2        5327            0.0000000000
     15981      5327  TIP3      H2            -27.1747366405       36.4578277139      -21.9976896465  W2        5327            0.0000000000
     15982      5328  TIP3      OH2           -29.5378366405       37.6220677139      -29.5082096465  W2        5328            0.0000000000
     15983      5328  TIP3      H1            -30.4877866405       37.7278077139      -29.4568796465  W2        5328            0.0000000000
     15984      5328  TIP3      H2            -29.1860266405       38.4428077139      -29.1634596465  W2        5328            0.0000000000
     15985      5329  TIP3      OH2           -24.1621766405       32.8487377139      -23.0377596465  W2        5329            0.0000000000
     15986      5329  TIP3      H1            -24.5880466405       32.6209077139      -22.2113596465  W2        5329            0.0000000000
     15987      5329  TIP3      H2            -23.5815966405       32.1099177139      -23.2202296465  W2        5329            0.0000000000
     15988      5330  TIP3      OH2           -21.9592866405       33.7777877139      -33.9638596465  W2        5330            0.0000000000
     15989      5330  TIP3      H1            -21.6059766405       33.3977677139      -33.1595096465  W2        5330            0.0000000000
     15990      5330  TIP3      H2            -22.9079366405       33.6842677139      -33.8769296465  W2        5330            0.0000000000
     15991      5331  TIP3      OH2           -21.5037566405       37.4006877139      -20.5682796465  W2        5331            0.0000000000
     15992      5331  TIP3      H1            -22.1054366405       36.8449777139      -21.0636496465  W2        5331            0.0000000000
     15993      5331  TIP3      H2            -21.2223866405       38.0676677139      -21.1945396465  W2        5331            0.0000000000
     15994      5332  TIP3      OH2           -17.4558466405       38.2570377139      -33.7628396465  W2        5332            0.0000000000
     15995      5332  TIP3      H1            -16.7120566405       38.8430877139      -33.9026796465  W2        5332            0.0000000000
     15996      5332  TIP3      H2            -18.1500366405       38.8256177139      -33.4295996465  W2        5332            0.0000000000
     15997      5333  TIP3      OH2           -33.3811666405       24.6334577139      -21.1610196465  W2        5333            0.0000000000
     15998      5333  TIP3      H1            -34.2739366405       24.9719977139      -21.2286196465  W2        5333            0.0000000000
     15999      5333  TIP3      H2            -33.4798866405       23.7780677139      -20.7429396465  W2        5333            0.0000000000
     16000      5334  TIP3      OH2           -21.0933566405       32.4499877139      -31.7370696465  W2        5334            0.0000000000
     16001      5334  TIP3      H1            -21.3705966405       31.7219177139      -31.1809596465  W2        5334            0.0000000000
     16002      5334  TIP3      H2            -20.1660566405       32.5691877139      -31.5318096465  W2        5334            0.0000000000
     16003      5335  TIP3      OH2           -33.7299666405       36.4378977139      -22.7260796465  W2        5335            0.0000000000
     16004      5335  TIP3      H1            -33.5129366405       35.5061377139      -22.7571096465  W2        5335            0.0000000000
     16005      5335  TIP3      H2            -33.4836166405       36.7123977139      -21.8427996465  W2        5335            0.0000000000
     16006      5336  TIP3      OH2           -27.8685066405       34.8893977139      -35.5168596465  W2        5336            0.0000000000
     16007      5336  TIP3      H1            -27.6295266405       34.1412077139      -36.0639696465  W2        5336            0.0000000000
     16008      5336  TIP3      H2            -28.1373766405       34.5015677139      -34.6840796465  W2        5336            0.0000000000
     16009      5337  TIP3      OH2           -28.9314466405       34.4597777139      -33.0605996465  W2        5337            0.0000000000
     16010      5337  TIP3      H1            -28.7846466405       33.9397577139      -32.2705096465  W2        5337            0.0000000000
     16011      5337  TIP3      H2            -28.9342766405       35.3665377139      -32.7540096465  W2        5337            0.0000000000
     16012      5338  TIP3      OH2           -32.4783366405       31.7121077139      -32.5500596465  W2        5338            0.0000000000
     16013      5338  TIP3      H1            -33.1644066405       32.0643577139      -31.9830896465  W2        5338            0.0000000000
     16014      5338  TIP3      H2            -31.9555466405       32.4750677139      -32.7966296465  W2        5338            0.0000000000
     16015      5339  TIP3      OH2           -24.6468266405       24.3744877139      -22.2711596465  W2        5339            0.0000000000
     16016      5339  TIP3      H1            -23.9480366405       24.4483577139      -21.6211896465  W2        5339            0.0000000000
     16017      5339  TIP3      H2            -25.0276866405       23.5099877139      -22.1168696465  W2        5339            0.0000000000
     16018      5340  TIP3      OH2           -23.8623366405       24.0266577139      -31.1739296465  W2        5340            0.0000000000
     16019      5340  TIP3      H1            -23.6425066405       24.4981977139      -31.9773896465  W2        5340            0.0000000000
     16020      5340  TIP3      H2            -23.3039366405       24.4209177139      -30.5038696465  W2        5340            0.0000000000
     16021      5341  TIP3      OH2           -26.1937266405       36.1571377139      -32.3111796465  W2        5341            0.0000000000
     16022      5341  TIP3      H1            -27.0101166405       36.6541077139      -32.2587496465  W2        5341            0.0000000000
     16023      5341  TIP3      H2            -25.6640966405       36.6324877139      -32.9512996465  W2        5341            0.0000000000
     16024      5342  TIP3      OH2           -26.6623466405       25.7545377139      -30.3390896465  W2        5342            0.0000000000
     16025      5342  TIP3      H1            -25.8500866405       26.2588577139      -30.2929196465  W2        5342            0.0000000000
     16026      5342  TIP3      H2            -26.9070466405       25.6095077139      -29.4251296465  W2        5342            0.0000000000
     16027      5343  TIP3      OH2           -26.1267066405       26.7408077139      -21.1544296465  W2        5343            0.0000000000
     16028      5343  TIP3      H1            -26.0076766405       27.3143477139      -20.3973896465  W2        5343            0.0000000000
     16029      5343  TIP3      H2            -25.4712466405       26.0527477139      -21.0396496465  W2        5343            0.0000000000
     16030      5344  TIP3      OH2           -25.7786766405       22.8358377139      -29.4009796465  W2        5344            0.0000000000
     16031      5344  TIP3      H1            -26.1253266405       23.4528977139      -28.7565496465  W2        5344            0.0000000000
     16032      5344  TIP3      H2            -25.1199866405       23.3364077139      -29.8824296465  W2        5344            0.0000000000
     16033      5345  TIP3      OH2           -28.8554166405       37.2008577139      -32.3294896465  W2        5345            0.0000000000
     16034      5345  TIP3      H1            -28.6945466405       38.0006077139      -32.8302296465  W2        5345            0.0000000000
     16035      5345  TIP3      H2            -29.0526366405       37.5074577139      -31.4444296465  W2        5345            0.0000000000
     16036      5346  TIP3      OH2           -30.1209766405       23.8987777139      -32.7137296465  W2        5346            0.0000000000
     16037      5346  TIP3      H1            -30.2044966405       24.7870877139      -32.3670896465  W2        5346            0.0000000000
     16038      5346  TIP3      H2            -29.2309466405       23.6334477139      -32.4820496465  W2        5346            0.0000000000
     16039      5347  TIP3      OH2           -19.9221266405       24.6478377139      -20.3194596465  W2        5347            0.0000000000
     16040      5347  TIP3      H1            -20.8385466405       24.9100077139      -20.4070896465  W2        5347            0.0000000000
     16041      5347  TIP3      H2            -19.5866266405       24.6447377139      -21.2159296465  W2        5347            0.0000000000
     16042      5348  TIP3      OH2           -21.3200266405       28.3979377139      -26.2237296465  W2        5348            0.0000000000
     16043      5348  TIP3      H1            -22.1175866405       27.9829577139      -26.5522296465  W2        5348            0.0000000000
     16044      5348  TIP3      H2            -20.8749166405       27.7073077139      -25.7326796465  W2        5348            0.0000000000
     16045      5349  TIP3      OH2           -31.8624466405       34.3259977139      -33.6532796465  W2        5349            0.0000000000
     16046      5349  TIP3      H1            -31.2702966405       35.0254777139      -33.3770396465  W2        5349            0.0000000000
     16047      5349  TIP3      H2            -31.4031466405       33.8929477139      -34.3728196465  W2        5349            0.0000000000
     16048      5350  TIP3      OH2           -33.5465266405       26.9902977139      -34.5373396465  W2        5350            0.0000000000
     16049      5350  TIP3      H1            -33.5912666405       27.9296077139      -34.3586396465  W2        5350            0.0000000000
     16050      5350  TIP3      H2            -34.4342066405       26.7547877139      -34.8071296465  W2        5350            0.0000000000
     16051      5351  TIP3      OH2           -20.2335666405       37.6541877139      -24.6013796465  W2        5351            0.0000000000
     16052      5351  TIP3      H1            -20.3891366405       38.3326277139      -25.2584496465  W2        5351            0.0000000000
     16053      5351  TIP3      H2            -19.3009266405       37.7261177139      -24.3983196465  W2        5351            0.0000000000
     16054      5352  TIP3      OH2           -32.7383266405       21.7719577139      -25.8642396465  W2        5352            0.0000000000
     16055      5352  TIP3      H1            -32.9673466405       21.8312077139      -26.7917396465  W2        5352            0.0000000000
     16056      5352  TIP3      H2            -33.1809866405       20.9805077139      -25.5578296465  W2        5352            0.0000000000
     16057      5353  TIP3      OH2           -33.8079966405       35.7126677139      -29.7036596465  W2        5353            0.0000000000
     16058      5353  TIP3      H1            -34.6401366405       36.1849377139      -29.6765196465  W2        5353            0.0000000000
     16059      5353  TIP3      H2            -33.2621666405       36.2224277139      -30.3023496465  W2        5353            0.0000000000
     16060      5354  TIP3      OH2           -34.5196266405       38.3250377139      -18.3738596465  W2        5354            0.0000000000
     16061      5354  TIP3      H1            -33.9794066405       38.1084377139      -17.6139396465  W2        5354            0.0000000000
     16062      5354  TIP3      H2            -35.0008266405       37.5196377139      -18.5636096465  W2        5354            0.0000000000
     16063      5355  TIP3      OH2           -29.9222866405       37.2444777139      -16.7534396465  W2        5355            0.0000000000
     16064      5355  TIP3      H1            -29.1545666405       36.7855577139      -16.4125196465  W2        5355            0.0000000000
     16065      5355  TIP3      H2            -29.9436666405       37.0184577139      -17.6833196465  W2        5355            0.0000000000
     16066      5356  TIP3      OH2           -25.8303266405       36.7525377139      -35.3782596465  W2        5356            0.0000000000
     16067      5356  TIP3      H1            -26.4742266405       36.1213977139      -35.0568896465  W2        5356            0.0000000000
     16068      5356  TIP3      H2            -25.0684966405       36.2213377139      -35.6099096465  W2        5356            0.0000000000
     16069      5357  TIP3      OH2           -23.3454166405       35.6245877139      -18.0242896465  W2        5357            0.0000000000
     16070      5357  TIP3      H1            -23.6964666405       34.7678877139      -17.7812496465  W2        5357            0.0000000000
     16071      5357  TIP3      H2            -22.6190966405       35.7672577139      -17.4173896465  W2        5357            0.0000000000
     16072      5358  TIP3      OH2           -21.2260366405       36.5695277139      -35.1444596465  W2        5358            0.0000000000
     16073      5358  TIP3      H1            -20.9429966405       35.7750477139      -34.6917696465  W2        5358            0.0000000000
     16074      5358  TIP3      H2            -20.4862466405       36.8026277139      -35.7053496465  W2        5358            0.0000000000
     16075      5359  TIP3      OH2           -34.6126766405       32.1354477139      -17.4194296465  W2        5359            0.0000000000
     16076      5359  TIP3      H1            -34.4686266405       31.2335177139      -17.7057596465  W2        5359            0.0000000000
     16077      5359  TIP3      H2            -35.3849366405       32.4216577139      -17.9071996465  W2        5359            0.0000000000
     16078      5360  TIP3      OH2           -30.2713066405       32.4790177139      -35.2869696465  W2        5360            0.0000000000
     16079      5360  TIP3      H1            -30.2068966405       31.6849777139      -34.7563296465  W2        5360            0.0000000000
     16080      5360  TIP3      H2            -29.6183866405       32.3602977139      -35.9767696465  W2        5360            0.0000000000
     16081      5361  TIP3      OH2           -27.9570666405       32.1052577139      -17.9867896465  W2        5361            0.0000000000
     16082      5361  TIP3      H1            -28.2856866405       32.3760677139      -18.8440496465  W2        5361            0.0000000000
     16083      5361  TIP3      H2            -27.8052466405       31.1642377139      -18.0742896465  W2        5361            0.0000000000
     16084      5362  TIP3      OH2           -24.9189666405       33.5261877139      -35.5511696465  W2        5362            0.0000000000
     16085      5362  TIP3      H1            -25.1875566405       33.7063977139      -34.6502796465  W2        5362            0.0000000000
     16086      5362  TIP3      H2            -25.1254066405       32.6008077139      -35.6825896465  W2        5362            0.0000000000
     16087      5363  TIP3      OH2           -22.2225466405       32.0209877139      -20.6035596465  W2        5363            0.0000000000
     16088      5363  TIP3      H1            -21.4770666405       32.6093577139      -20.7231596465  W2        5363            0.0000000000
     16089      5363  TIP3      H2            -22.9798666405       32.6029577139      -20.5402496465  W2        5363            0.0000000000
     16090      5364  TIP3      OH2           -33.7800266405       29.3357777139      -17.9994996465  W2        5364            0.0000000000
     16091      5364  TIP3      H1            -33.3719066405       28.4784377139      -18.1204396465  W2        5364            0.0000000000
     16092      5364  TIP3      H2            -34.0402666405       29.3499077139      -17.0784696465  W2        5364            0.0000000000
     16093      5365  TIP3      OH2           -29.1219266405       30.4516377139      -32.9811696465  W2        5365            0.0000000000
     16094      5365  TIP3      H1            -29.5817266405       29.9674677139      -32.2953196465  W2        5365            0.0000000000
     16095      5365  TIP3      H2            -28.8670566405       29.7831777139      -33.6171196465  W2        5365            0.0000000000
     16096      5366  TIP3      OH2           -29.8329966405       28.3443477139      -20.6252096465  W2        5366            0.0000000000
     16097      5366  TIP3      H1            -30.4513866405       29.0190077139      -20.3447396465  W2        5366            0.0000000000
     16098      5366  TIP3      H2            -29.4888766405       28.6657377139      -21.4585896465  W2        5366            0.0000000000
     16099      5367  TIP3      OH2           -28.0508866405       28.6948177139      -34.7188496465  W2        5367            0.0000000000
     16100      5367  TIP3      H1            -28.2313866405       28.5399377139      -35.6460196465  W2        5367            0.0000000000
     16101      5367  TIP3      H2            -27.1008366405       28.8026877139      -34.6740596465  W2        5367            0.0000000000
     16102      5368  TIP3      OH2           -24.8131766405       30.8158777139      -17.3477296465  W2        5368            0.0000000000
     16103      5368  TIP3      H1            -23.8600566405       30.8997877139      -17.3751296465  W2        5368            0.0000000000
     16104      5368  TIP3      H2            -24.9737166405       30.1040577139      -16.7282396465  W2        5368            0.0000000000
     16105      5369  TIP3      OH2           -18.6610566405       31.0492377139      -35.2730396465  W2        5369            0.0000000000
     16106      5369  TIP3      H1            -18.9345766405       30.6247877139      -36.0862096465  W2        5369            0.0000000000
     16107      5369  TIP3      H2            -18.6216466405       31.9806877139      -35.4899996465  W2        5369            0.0000000000
     16108      5370  TIP3      OH2           -29.4936266405       25.6994277139      -19.5428996465  W2        5370            0.0000000000
     16109      5370  TIP3      H1            -29.3435366405       24.9705577139      -20.1449296465  W2        5370            0.0000000000
     16110      5370  TIP3      H2            -29.4913866405       26.4765977139      -20.1016796465  W2        5370            0.0000000000
     16111      5371  TIP3      OH2           -29.0810566405       24.0690077139      -22.0501596465  W2        5371            0.0000000000
     16112      5371  TIP3      H1            -28.5453066405       24.5206777139      -22.7022296465  W2        5371            0.0000000000
     16113      5371  TIP3      H2            -29.9330966405       23.9609877139      -22.4727496465  W2        5371            0.0000000000
     16114      5372  TIP3      OH2           -27.4992166405       29.5086277139      -21.8106396465  W2        5372            0.0000000000
     16115      5372  TIP3      H1            -26.7487366405       29.3523777139      -22.3838596465  W2        5372            0.0000000000
     16116      5372  TIP3      H2            -27.8383866405       30.3602877139      -22.0860896465  W2        5372            0.0000000000
     16117      5373  TIP3      OH2           -23.0835966405       27.3238077139      -16.7821096465  W2        5373            0.0000000000
     16118      5373  TIP3      H1            -22.8914666405       26.3927477139      -16.8936596465  W2        5373            0.0000000000
     16119      5373  TIP3      H2            -22.2259666405       27.7487577139      -16.7925696465  W2        5373            0.0000000000
     16120      5374  TIP3      OH2           -21.7668766405       30.1123277139      -18.7048396465  W2        5374            0.0000000000
     16121      5374  TIP3      H1            -22.0483766405       30.8217877139      -19.2824596465  W2        5374            0.0000000000
     16122      5374  TIP3      H2            -20.8244466405       30.0396277139      -18.8557196465  W2        5374            0.0000000000
     16123      5375  TIP3      OH2           -31.0149966405       26.8977777139      -17.6313396465  W2        5375            0.0000000000
     16124      5375  TIP3      H1            -31.7820966405       26.3652577139      -17.8415796465  W2        5375            0.0000000000
     16125      5375  TIP3      H2            -30.3360966405       26.5878177139      -18.2307096465  W2        5375            0.0000000000
     16126      5376  TIP3      OH2           -28.2755066405       21.5255777139      -21.6187996465  W2        5376            0.0000000000
     16127      5376  TIP3      H1            -28.3735466405       22.4718977139      -21.7241796465  W2        5376            0.0000000000
     16128      5376  TIP3      H2            -29.0178866405       21.1529577139      -22.0944496465  W2        5376            0.0000000000
     16129      5377  TIP3      OH2           -27.0114566405       25.8471177139      -18.0549596465  W2        5377            0.0000000000
     16130      5377  TIP3      H1            -27.2469166405       25.6277877139      -17.1534696465  W2        5377            0.0000000000
     16131      5377  TIP3      H2            -27.7947666405       25.6402377139      -18.5647096465  W2        5377            0.0000000000
     16132      5378  TIP3      OH2           -24.2957966405       24.9744677139      -18.9796096465  W2        5378            0.0000000000
     16133      5378  TIP3      H1            -25.2432566405       25.0064377139      -18.8472796465  W2        5378            0.0000000000
     16134      5378  TIP3      H2            -23.9831266405       24.3491777139      -18.3257896465  W2        5378            0.0000000000
     16135      5379  TIP3      OH2           -22.6616466405       23.6085777139      -16.9744196465  W2        5379            0.0000000000
     16136      5379  TIP3      H1            -22.7584666405       22.6563077139      -16.9802296465  W2        5379            0.0000000000
     16137      5379  TIP3      H2            -22.9833366405       23.8772577139      -16.1138696465  W2        5379            0.0000000000
     16138      5380  TIP3      OH2           -32.8347166405       24.8181577139      -17.9268696465  W2        5380            0.0000000000
     16139      5380  TIP3      H1            -32.6229766405       24.1117677139      -18.5371196465  W2        5380            0.0000000000
     16140      5380  TIP3      H2            -32.9459666405       24.3807577139      -17.0827496465  W2        5380            0.0000000000
     16141      5381  TIP3      OH2           -28.0536966405       20.8193177139      -18.9475196465  W2        5381            0.0000000000
     16142      5381  TIP3      H1            -27.3418566405       20.1795377139      -18.9616096465  W2        5381            0.0000000000
     16143      5381  TIP3      H2            -28.1546566405       21.0861477139      -19.8612096465  W2        5381            0.0000000000
     16144      5382  TIP3      OH2           -27.6999466405       22.5021577139      -16.8938896465  W2        5382            0.0000000000
     16145      5382  TIP3      H1            -27.8317266405       22.0265377139      -17.7140396465  W2        5382            0.0000000000
     16146      5382  TIP3      H2            -28.2992066405       23.2465177139      -16.9491796465  W2        5382            0.0000000000
     16147      5383  TIP3      OH2           -28.1537166405       39.3851877139      -33.7174896465  W2        5383            0.0000000000
     16148      5383  TIP3      H1            -27.2206466405       39.5430577139      -33.5736496465  W2        5383            0.0000000000
     16149      5383  TIP3      H2            -28.4178366405       40.0604877139      -34.3423396465  W2        5383            0.0000000000
     16150      5384  TIP3      OH2           -34.5852266405       34.0215677139      -34.2346796465  W2        5384            0.0000000000
     16151      5384  TIP3      H1            -33.6713066405       34.1004577139      -33.9612896465  W2        5384            0.0000000000
     16152      5384  TIP3      H2            -34.5779166405       33.3345277139      -34.9011196465  W2        5384            0.0000000000
     16153      5385  TIP3      OH2           -35.9361666405       39.4144177139      -29.1572896465  W2        5385            0.0000000000
     16154      5385  TIP3      H1            -36.5834566405       38.9525877139      -29.6901696465  W2        5385            0.0000000000
     16155      5385  TIP3      H2            -35.5817066405       38.7427477139      -28.5746696465  W2        5385            0.0000000000
     16156      5386  TIP3      OH2           -35.0662466405       37.4951177139      -27.3526696465  W2        5386            0.0000000000
     16157      5386  TIP3      H1            -35.4005666405       36.6148477139      -27.1806496465  W2        5386            0.0000000000
     16158      5386  TIP3      H2            -34.8440066405       37.8406177139      -26.4881096465  W2        5386            0.0000000000
     16159      5387  TIP3      OH2           -17.5177666405       38.3047577139      -24.3721896465  W2        5387            0.0000000000
     16160      5387  TIP3      H1            -17.5390966405       38.4895977139      -23.4332496465  W2        5387            0.0000000000
     16161      5387  TIP3      H2            -16.8271466405       38.8731577139      -24.7130496465  W2        5387            0.0000000000
     16162      5388  TIP3      OH2           -17.9544766405       37.8718677139      -21.4502796465  W2        5388            0.0000000000
     16163      5388  TIP3      H1            -18.4416066405       37.1362777139      -21.8215396465  W2        5388            0.0000000000
     16164      5388  TIP3      H2            -17.4052066405       37.4782577139      -20.7723396465  W2        5388            0.0000000000
     16165      5389  TIP3      OH2           -19.5037466405       33.6616777139      -16.8122496465  W2        5389            0.0000000000
     16166      5389  TIP3      H1            -20.3696366405       33.5566477139      -16.4180196465  W2        5389            0.0000000000
     16167      5389  TIP3      H2            -19.1271566405       34.4200077139      -16.3657796465  W2        5389            0.0000000000
     16168      5390  TIP3      OH2           -18.2027766405       31.9180477139      -31.2979996465  W2        5390            0.0000000000
     16169      5390  TIP3      H1            -17.3526366405       32.3391377139      -31.1708396465  W2        5390            0.0000000000
     16170      5390  TIP3      H2            -18.1972666405       31.1780577139      -30.6908596465  W2        5390            0.0000000000
     16171      5391  TIP3      OH2           -17.8082166405       29.9717877139      -29.4744296465  W2        5391            0.0000000000
     16172      5391  TIP3      H1            -18.5347566405       29.4920477139      -29.0766696465  W2        5391            0.0000000000
     16173      5391  TIP3      H2            -17.2268866405       30.1772577139      -28.7422696465  W2        5391            0.0000000000
     16174      5392  TIP3      OH2           -18.0490966405       32.7565377139      -24.5266696465  W2        5392            0.0000000000
     16175      5392  TIP3      H1            -17.2156766405       32.3785377139      -24.8073096465  W2        5392            0.0000000000
     16176      5392  TIP3      H2            -17.9370666405       33.6996577139      -24.6457596465  W2        5392            0.0000000000
     16177      5393  TIP3      OH2           -19.5628666405       35.6342877139      -22.2198296465  W2        5393            0.0000000000
     16178      5393  TIP3      H1            -20.2103366405       35.9594377139      -21.5943096465  W2        5393            0.0000000000
     16179      5393  TIP3      H2            -20.0804666405       35.1940577139      -22.8939996465  W2        5393            0.0000000000
     16180      5394  TIP3      OH2           -17.5399066405       29.8726377139      -33.0832996465  W2        5394            0.0000000000
     16181      5394  TIP3      H1            -18.0617966405       30.2290477139      -33.8022096465  W2        5394            0.0000000000
     16182      5394  TIP3      H2            -17.5729866405       30.5474177139      -32.4052096465  W2        5394            0.0000000000
     16183      5395  TIP3      OH2           -19.1910066405       27.1121977139      -34.5325896465  W2        5395            0.0000000000
     16184      5395  TIP3      H1            -19.0945666405       27.7788977139      -35.2126196465  W2        5395            0.0000000000
     16185      5395  TIP3      H2            -19.3310466405       26.2968277139      -35.0140396465  W2        5395            0.0000000000
     16186      5396  TIP3      OH2           -20.0215366405       28.4924377139      -28.9115596465  W2        5396            0.0000000000
     16187      5396  TIP3      H1            -20.1716566405       27.5472977139      -28.9317796465  W2        5396            0.0000000000
     16188      5396  TIP3      H2            -20.3750866405       28.7735777139      -28.0676496465  W2        5396            0.0000000000
     16189      5397  TIP3      OH2           -34.9862966405       30.5706577139      -24.9011796465  W2        5397            0.0000000000
     16190      5397  TIP3      H1            -34.8020066405       30.4888277139      -25.8368896465  W2        5397            0.0000000000
     16191      5397  TIP3      H2            -34.1370066405       30.4463577139      -24.4775396465  W2        5397            0.0000000000
     16192      5398  TIP3      OH2           -19.1652466405       30.4627677139      -19.2727296465  W2        5398            0.0000000000
     16193      5398  TIP3      H1            -18.5825166405       29.7279977139      -19.0810096465  W2        5398            0.0000000000
     16194      5398  TIP3      H2            -18.6013166405       31.2347977139      -19.2261496465  W2        5398            0.0000000000
     16195      5399  TIP3      OH2           -17.6685366405       28.3653477139      -18.5881896465  W2        5399            0.0000000000
     16196      5399  TIP3      H1            -18.5318666405       27.9865577139      -18.7537196465  W2        5399            0.0000000000
     16197      5399  TIP3      H2            -17.0641666405       27.6268277139      -18.6626096465  W2        5399            0.0000000000
     16198      5400  TIP3      OH2           -19.9436266405       24.5201777139      -35.4150396465  W2        5400            0.0000000000
     16199      5400  TIP3      H1            -19.3330466405       24.1488577139      -34.7782196465  W2        5400            0.0000000000
     16200      5400  TIP3      H2            -20.7804766405       24.0988677139      -35.2190396465  W2        5400            0.0000000000
     16201      5401  TIP3      OH2           -20.3110566405       26.0750177139      -30.4490496465  W2        5401            0.0000000000
     16202      5401  TIP3      H1            -20.0313466405       25.1680577139      -30.3248796465  W2        5401            0.0000000000
     16203      5401  TIP3      H2            -19.5518866405       26.5091677139      -30.8381296465  W2        5401            0.0000000000
     16204      5402  TIP3      OH2           -19.6992266405       26.6567577139      -25.0131596465  W2        5402            0.0000000000
     16205      5402  TIP3      H1            -18.7664266405       26.8687477139      -25.0475596465  W2        5402            0.0000000000
     16206      5402  TIP3      H2            -19.9344766405       26.7579677139      -24.0908596465  W2        5402            0.0000000000
     16207      5403  TIP3      OH2           -19.6700366405       27.3932877139      -22.2372196465  W2        5403            0.0000000000
     16208      5403  TIP3      H1            -20.5129066405       27.6613277139      -21.8712396465  W2        5403            0.0000000000
     16209      5403  TIP3      H2            -19.2276066405       28.2154777139      -22.4481096465  W2        5403            0.0000000000
     16210      5404  TIP3      OH2           -35.3888166405       25.8411577139      -18.7602996465  W2        5404            0.0000000000
     16211      5404  TIP3      H1            -34.4693266405       25.7189877139      -18.5239896465  W2        5404            0.0000000000
     16212      5404  TIP3      H2            -35.8383666405       25.0911277139      -18.3709496465  W2        5404            0.0000000000
     16213      5405  TIP3      OH2           -17.3868766405       21.3733077139      -16.8837196465  W2        5405            0.0000000000
     16214      5405  TIP3      H1            -17.0371766405       20.7196577139      -17.4892496465  W2        5405            0.0000000000
     16215      5405  TIP3      H2            -17.2399266405       22.2107177139      -17.3234596465  W2        5405            0.0000000000
     16216      5406  TIP3      OH2           -19.6975766405       23.3379477139      -30.4008496465  W2        5406            0.0000000000
     16217      5406  TIP3      H1            -19.5150766405       22.8890977139      -29.5753496465  W2        5406            0.0000000000
     16218      5406  TIP3      H2            -20.2972866405       22.7533877139      -30.8643896465  W2        5406            0.0000000000
     16219      5407  TIP3      OH2           -34.1675666405       24.1533177139      -25.8690096465  W2        5407            0.0000000000
     16220      5407  TIP3      H1            -33.7224066405       23.3615677139      -25.5670396465  W2        5407            0.0000000000
     16221      5407  TIP3      H2            -33.7012666405       24.8698377139      -25.4384496465  W2        5407            0.0000000000
     16222      5408  TIP3      OH2           -35.8635366405       27.1526177139      -24.7999896465  W2        5408            0.0000000000
     16223      5408  TIP3      H1            -35.3715566405       26.9316677139      -25.5907896465  W2        5408            0.0000000000
     16224      5408  TIP3      H2            -35.5014466405       27.9929577139      -24.5190396465  W2        5408            0.0000000000
     16225      5409  TIP3      OH2           -17.8671566405       23.4827677139      -18.5345896465  W2        5409            0.0000000000
     16226      5409  TIP3      H1            -18.7845866405       23.7534777139      -18.5702396465  W2        5409            0.0000000000
     16227      5409  TIP3      H2            -17.7442166405       22.9476077139      -19.3186196465  W2        5409            0.0000000000
     16228      5410  TIP3      OH2           -17.8309566405       23.4057577139      -33.8728196465  W2        5410            0.0000000000
     16229      5410  TIP3      H1            -17.4186966405       22.6843277139      -34.3480196465  W2        5410            0.0000000000
     16230      5410  TIP3      H2            -17.1493066405       24.0752177139      -33.8143896465  W2        5410            0.0000000000
     16231      5411  TIP3      OH2           -35.5498866405       23.4105277139      -30.7457496465  W2        5411            0.0000000000
     16232      5411  TIP3      H1            -36.4750466405       23.6191877139      -30.8751996465  W2        5411            0.0000000000
     16233      5411  TIP3      H2            -35.0958966405       23.8946077139      -31.4355196465  W2        5411            0.0000000000
     16234      5412  TIP3      OH2           -20.7791666405       38.3946977139      -28.8000096465  W2        5412            0.0000000000
     16235      5412  TIP3      H1            -20.1268766405       38.0469077139      -29.4080996465  W2        5412            0.0000000000
     16236      5412  TIP3      H2            -20.2687866405       38.8830177139      -28.1540396465  W2        5412            0.0000000000
     16237      5413  TIP3      OH2           -35.5863466405       22.1484277139      -22.4014996465  W2        5413            0.0000000000
     16238      5413  TIP3      H1            -36.2512966405       21.9024577139      -21.7584096465  W2        5413            0.0000000000
     16239      5413  TIP3      H2            -36.0292166405       22.7704677139      -22.9786996465  W2        5413            0.0000000000
     16240      5414  TIP3      OH2           -33.3944166405       35.3238377139      -18.2569196465  W2        5414            0.0000000000
     16241      5414  TIP3      H1            -34.2151666405       35.4984877139      -18.7174496465  W2        5414            0.0000000000
     16242      5414  TIP3      H2            -33.6466366405       35.2503077139      -17.3364796465  W2        5414            0.0000000000
     16243      5415  TIP3      OH2           -30.4401266405       36.2979577139      -21.9985196465  W2        5415            0.0000000000
     16244      5415  TIP3      H1            -30.8650166405       37.1078077139      -22.2810596465  W2        5415            0.0000000000
     16245      5415  TIP3      H2            -29.5358466405       36.3833677139      -22.3005396465  W2        5415            0.0000000000
     16246      5416  TIP3      OH2           -26.1289866405       37.6969577139      -19.0391496465  W2        5416            0.0000000000
     16247      5416  TIP3      H1            -25.9442366405       37.3635677139      -18.1611196465  W2        5416            0.0000000000
     16248      5416  TIP3      H2            -25.2825366405       38.0068177139      -19.3612296465  W2        5416            0.0000000000
     16249      5417  TIP3      OH2           -23.7839466405       38.9828477139      -19.7950096465  W2        5417            0.0000000000
     16250      5417  TIP3      H1            -23.1070566405       38.3500777139      -20.0350896465  W2        5417            0.0000000000
     16251      5417  TIP3      H2            -23.4620666405       39.3838977139      -18.9876796465  W2        5417            0.0000000000
     16252      5418  TIP3      OH2           -18.8665666405       21.5723977139      -20.7155096465  W2        5418            0.0000000000
     16253      5418  TIP3      H1            -19.6792166405       21.8974277139      -21.1030396465  W2        5418            0.0000000000
     16254      5418  TIP3      H2            -18.6337166405       20.8122477139      -21.2485996465  W2        5418            0.0000000000
     16255      5419  TIP3      OH2           -33.0384566405       39.5543477139      -21.9509896465  W2        5419            0.0000000000
     16256      5419  TIP3      H1            -33.7588166405       39.9944477139      -22.4022196465  W2        5419            0.0000000000
     16257      5419  TIP3      H2            -33.4040566405       39.3038177139      -21.1025896465  W2        5419            0.0000000000
     16258      5420  TIP3      OH2           -30.5711966405       39.1547377139      -22.9212696465  W2        5420            0.0000000000
     16259      5420  TIP3      H1            -31.4359766405       39.2265877139      -22.5172596465  W2        5420            0.0000000000
     16260      5420  TIP3      H2            -30.6262966405       39.7014677139      -23.7050196465  W2        5420            0.0000000000
     16261      5421  TIP3      OH2           -25.8606366405       39.0426277139      -23.7456696465  W2        5421            0.0000000000
     16262      5421  TIP3      H1            -26.3172366405       39.5715977139      -24.3998296465  W2        5421            0.0000000000
     16263      5421  TIP3      H2            -25.6978366405       39.6457677139      -23.0204396465  W2        5421            0.0000000000
     16264      5422  TIP3      OH2           -23.5330066405       37.9205877139      -22.8006396465  W2        5422            0.0000000000
     16265      5422  TIP3      H1            -24.4376366405       38.0856077139      -23.0664296465  W2        5422            0.0000000000
     16266      5422  TIP3      H2            -23.1041466405       38.7738077139      -22.8662996465  W2        5422            0.0000000000
     16267      5423  TIP3      OH2           -20.9288166405       39.4904977139      -22.5058596465  W2        5423            0.0000000000
     16268      5423  TIP3      H1            -21.1106166405       40.4063877139      -22.7163696465  W2        5423            0.0000000000
     16269      5423  TIP3      H2            -20.7520366405       39.0802077139      -23.3523996465  W2        5423            0.0000000000
     16270      5424  TIP3      OH2           -33.6236466405       38.1775977139      -25.0408096465  W2        5424            0.0000000000
     16271      5424  TIP3      H1            -33.6420466405       37.7521077139      -24.1835796465  W2        5424            0.0000000000
     16272      5424  TIP3      H2            -32.8188566405       37.8590977139      -25.4495896465  W2        5424            0.0000000000
     16273      5425  TIP3      OH2           -31.4823366405       36.8874677139      -26.3858196465  W2        5425            0.0000000000
     16274      5425  TIP3      H1            -31.7012666405       35.9712077139      -26.2162196465  W2        5425            0.0000000000
     16275      5425  TIP3      H2            -30.6581166405       37.0275077139      -25.9196796465  W2        5425            0.0000000000
     16276      5426  TIP3      OH2           -28.9450866405       37.3573977139      -25.5370196465  W2        5426            0.0000000000
     16277      5426  TIP3      H1            -28.7325166405       36.4692977139      -25.8239296465  W2        5426            0.0000000000
     16278      5426  TIP3      H2            -28.8805766405       37.3231677139      -24.5826196465  W2        5426            0.0000000000
     16279      5427  TIP3      OH2           -25.4367166405       23.0214577139      -26.3926896465  W2        5427            0.0000000000
     16280      5427  TIP3      H1            -26.1110366405       22.3920177139      -26.1371096465  W2        5427            0.0000000000
     16281      5427  TIP3      H2            -24.8727966405       22.5373477139      -26.9958996465  W2        5427            0.0000000000
     16282      5428  TIP3      OH2           -20.2939966405       21.1288577139      -26.2799796465  W2        5428            0.0000000000
     16283      5428  TIP3      H1            -19.6902366405       21.6763977139      -26.7818796465  W2        5428            0.0000000000
     16284      5428  TIP3      H2            -21.1637966405       21.4478977139      -26.5205696465  W2        5428            0.0000000000
     16285      5429  TIP3      OH2           -18.5669566405       22.2677277139      -27.9468896465  W2        5429            0.0000000000
     16286      5429  TIP3      H1            -17.9552066405       21.7532977139      -28.4735296465  W2        5429            0.0000000000
     16287      5429  TIP3      H2            -18.1846166405       23.1449377139      -27.9234496465  W2        5429            0.0000000000
     16288      5430  TIP3      OH2           -33.1099666405       21.6554877139      -28.5706996465  W2        5430            0.0000000000
     16289      5430  TIP3      H1            -33.8869866405       21.4209777139      -29.0781096465  W2        5430            0.0000000000
     16290      5430  TIP3      H2            -32.5796066405       20.8586977139      -28.5618996465  W2        5430            0.0000000000
     16291      5431  TIP3      OH2           -34.2736266405       21.4532977139      -32.7670896465  W2        5431            0.0000000000
     16292      5431  TIP3      H1            -33.8345566405       22.0643477139      -33.3587396465  W2        5431            0.0000000000
     16293      5431  TIP3      H2            -34.9073866405       21.9917077139      -32.2930896465  W2        5431            0.0000000000
     16294      5432  TIP3      OH2           -28.5307066405       21.5821977139      -28.7573896465  W2        5432            0.0000000000
     16295      5432  TIP3      H1            -27.6563666405       21.9706277139      -28.7869596465  W2        5432            0.0000000000
     16296      5432  TIP3      H2            -28.6666266405       21.3669777139      -27.8346696465  W2        5432            0.0000000000
     16297      5433  TIP3      OH2           -22.9738666405       21.6121777139      -27.1082196465  W2        5433            0.0000000000
     16298      5433  TIP3      H1            -22.8977066405       21.7073377139      -28.0576196465  W2        5433            0.0000000000
     16299      5433  TIP3      H2            -23.2489466405       20.7044677139      -26.9793096465  W2        5433            0.0000000000
     16300      5434  TIP3      OH2           -21.6206066405       21.6379577139      -31.4157196465  W2        5434            0.0000000000
     16301      5434  TIP3      H1            -22.3234966405       22.2528777139      -31.6255796465  W2        5434            0.0000000000
     16302      5434  TIP3      H2            -22.0654666405       20.8006277139      -31.2846296465  W2        5434            0.0000000000
     16303      5435  TIP3      OH2           -34.3726766405       37.4015177139      -31.8695796465  W2        5435            0.0000000000
     16304      5435  TIP3      H1            -35.0576866405       37.3634077139      -32.5370696465  W2        5435            0.0000000000
     16305      5435  TIP3      H2            -34.3689566405       38.3142777139      -31.5813696465  W2        5435            0.0000000000
     16306      5436  TIP3      OH2           -32.4127166405       23.3694477139      -34.3246796465  W2        5436            0.0000000000
     16307      5436  TIP3      H1            -31.9213766405       22.7396877139      -34.8521296465  W2        5436            0.0000000000
     16308      5436  TIP3      H2            -31.7890866405       23.6653877139      -33.6615596465  W2        5436            0.0000000000
     16309      5437  TIP3      OH2           -27.3867066405       23.6625977139      -31.8676296465  W2        5437            0.0000000000
     16310      5437  TIP3      H1            -27.2085766405       23.0159177139      -31.1847696465  W2        5437            0.0000000000
     16311      5437  TIP3      H2            -27.4400866405       24.4963677139      -31.4005196465  W2        5437            0.0000000000
     16312      5438  TIP3      OH2           -25.5083266405       38.6110077139      -33.4719596465  W2        5438            0.0000000000
     16313      5438  TIP3      H1            -24.6423066405       38.9777477139      -33.6501396465  W2        5438            0.0000000000
     16314      5438  TIP3      H2            -25.7550466405       38.1718077139      -34.2858796465  W2        5438            0.0000000000
     16315      5439  TIP3      OH2           -18.7993666405       38.1740377139      -30.7928496465  W2        5439            0.0000000000
     16316      5439  TIP3      H1            -18.9936566405       37.4262477139      -31.3578896465  W2        5439            0.0000000000
     16317      5439  TIP3      H2            -18.8383566405       38.9320477139      -31.3760596465  W2        5439            0.0000000000
     16318      5440  TIP3      OH2           -33.1521666405       22.1696777139      -19.0530796465  W2        5440            0.0000000000
     16319      5440  TIP3      H1            -33.5183466405       21.4039377139      -18.6106096465  W2        5440            0.0000000000
     16320      5440  TIP3      H2            -32.2393166405       22.1986977139      -18.7665696465  W2        5440            0.0000000000
     16321      5441  TIP3      OH2           -31.1790866405       21.5201177139      -17.5173696465  W2        5441            0.0000000000
     16322      5441  TIP3      H1            -30.2807266405       21.2461377139      -17.7020296465  W2        5441            0.0000000000
     16323      5441  TIP3      H2            -31.5657766405       20.7777177139      -17.0531096465  W2        5441            0.0000000000
     16324      5442  TIP3      OH2           -32.5545566405       38.3215977139      -34.8443696465  W2        5442            0.0000000000
     16325      5442  TIP3      H1            -32.8220966405       38.6078877139      -33.9710596465  W2        5442            0.0000000000
     16326      5442  TIP3      H2            -31.7832966405       37.7755177139      -34.6921196465  W2        5442            0.0000000000
     16327      5443  TIP3      OH2           -22.7578566405       20.8526477139      -17.3350896465  W2        5443            0.0000000000
     16328      5443  TIP3      H1            -22.6811366405       20.4267177139      -16.4813196465  W2        5443            0.0000000000
     16329      5443  TIP3      H2            -21.8641966405       20.8661177139      -17.6777396465  W2        5443            0.0000000000
     16330      5444  TIP3      OH2           -19.5817466405       36.9252777139      -18.6426696465  W2        5444            0.0000000000
     16331      5444  TIP3      H1            -20.3635566405       36.7390777139      -19.1626096465  W2        5444            0.0000000000
     16332      5444  TIP3      H2            -19.6537566405       37.8547077139      -18.4254196465  W2        5444            0.0000000000
     16333      5445  TIP3      OH2            -5.1757066405       30.8117177139      -28.6119496465  W2        5445            0.0000000000
     16334      5445  TIP3      H1             -5.0865966405       31.7555377139      -28.7442396465  W2        5445            0.0000000000
     16335      5445  TIP3      H2             -5.8139466405       30.5363577139      -29.2700096465  W2        5445            0.0000000000
     16336      5446  TIP3      OH2            -6.2425766405       30.0667877139      -25.1931296465  W2        5446            0.0000000000
     16337      5446  TIP3      H1             -6.2808266405       29.4204177139      -24.4881696465  W2        5446            0.0000000000
     16338      5446  TIP3      H2             -6.5649266405       29.6002277139      -25.9642596465  W2        5446            0.0000000000
     16339      5447  TIP3      OH2           -13.8740766405       29.6809977139      -23.6001396465  W2        5447            0.0000000000
     16340      5447  TIP3      H1            -13.8328666405       29.0553277139      -22.8768996465  W2        5447            0.0000000000
     16341      5447  TIP3      H2            -13.1713066405       30.3048577139      -23.4180996465  W2        5447            0.0000000000
     16342      5448  TIP3      OH2            -2.5365566405       33.0058277139      -26.8916196465  W2        5448            0.0000000000
     16343      5448  TIP3      H1             -2.9772866405       32.2854277139      -26.4410596465  W2        5448            0.0000000000
     16344      5448  TIP3      H2             -2.5495866405       33.7265477139      -26.2618496465  W2        5448            0.0000000000
     16345      5449  TIP3      OH2           -12.9507666405       34.1308877139      -25.0652296465  W2        5449            0.0000000000
     16346      5449  TIP3      H1            -13.3202466405       33.3289377139      -25.4347996465  W2        5449            0.0000000000
     16347      5449  TIP3      H2            -12.0096566405       33.9623777139      -25.0188896465  W2        5449            0.0000000000
     16348      5450  TIP3      OH2           -16.3407166405       27.7911477139      -29.6723496465  W2        5450            0.0000000000
     16349      5450  TIP3      H1            -16.7883766405       28.6370177139      -29.6906996465  W2        5450            0.0000000000
     16350      5450  TIP3      H2            -16.9015966405       27.2115677139      -30.1878396465  W2        5450            0.0000000000
     16351      5451  TIP3      OH2           -15.6301066405       29.9531077139      -27.5465496465  W2        5451            0.0000000000
     16352      5451  TIP3      H1            -15.4167566405       29.1832677139      -27.0192496465  W2        5451            0.0000000000
     16353      5451  TIP3      H2            -14.8923466405       30.0427777139      -28.1497896465  W2        5451            0.0000000000
     16354      5452  TIP3      OH2            -5.4250066405       38.1099977139      -26.6795796465  W2        5452            0.0000000000
     16355      5452  TIP3      H1             -4.8053666405       37.4334677139      -26.9526596465  W2        5452            0.0000000000
     16356      5452  TIP3      H2             -5.6332666405       37.8920777139      -25.7710896465  W2        5452            0.0000000000
     16357      5453  TIP3      OH2            -7.8531366405       32.4989277139      -24.7870296465  W2        5453            0.0000000000
     16358      5453  TIP3      H1             -7.5493466405       31.8130677139      -25.3816196465  W2        5453            0.0000000000
     16359      5453  TIP3      H2             -7.1317366405       32.6177977139      -24.1692296465  W2        5453            0.0000000000
     16360      5454  TIP3      OH2             0.8098433595       24.1004577139      -23.9264096465  W2        5454            0.0000000000
     16361      5454  TIP3      H1              0.8590633595       24.7105777139      -23.1904996465  W2        5454            0.0000000000
     16362      5454  TIP3      H2              1.2353533595       24.5615477139      -24.6492996465  W2        5454            0.0000000000
     16363      5455  TIP3      OH2            -4.7124366405       26.8931677139      -24.4595496465  W2        5455            0.0000000000
     16364      5455  TIP3      H1             -4.5698466405       25.9468677139      -24.4393896465  W2        5455            0.0000000000
     16365      5455  TIP3      H2             -4.8185366405       27.1001477139      -25.3880596465  W2        5455            0.0000000000
     16366      5456  TIP3      OH2           -11.5576066405       24.9948077139      -27.1870696465  W2        5456            0.0000000000
     16367      5456  TIP3      H1            -11.5144966405       25.8546577139      -27.6054396465  W2        5456            0.0000000000
     16368      5456  TIP3      H2            -12.0151966405       24.4422777139      -27.8207496465  W2        5456            0.0000000000
     16369      5457  TIP3      OH2            -3.8353366405       25.1253677139      -28.7862396465  W2        5457            0.0000000000
     16370      5457  TIP3      H1             -3.1889066405       24.7966877139      -28.1614796465  W2        5457            0.0000000000
     16371      5457  TIP3      H2             -3.3253966405       25.6432677139      -29.4090996465  W2        5457            0.0000000000
     16372      5458  TIP3      OH2           -14.9374566405       27.3913877139      -26.4249296465  W2        5458            0.0000000000
     16373      5458  TIP3      H1            -14.2837966405       26.8415577139      -25.9929196465  W2        5458            0.0000000000
     16374      5458  TIP3      H2            -14.9135266405       27.1172877139      -27.3417296465  W2        5458            0.0000000000
     16375      5459  TIP3      OH2            -9.7810066405       28.9415177139      -27.2097796465  W2        5459            0.0000000000
     16376      5459  TIP3      H1             -9.1649066405       28.4150577139      -26.7003796465  W2        5459            0.0000000000
     16377      5459  TIP3      H2            -10.3671266405       28.3013877139      -27.6134196465  W2        5459            0.0000000000
     16378      5460  TIP3      OH2             1.2013033595       25.5783777139      -21.6904296465  W2        5460            0.0000000000
     16379      5460  TIP3      H1              0.5127633595       26.2364477139      -21.7857696465  W2        5460            0.0000000000
     16380      5460  TIP3      H2              1.2167633595       25.3811677139      -20.7538896465  W2        5460            0.0000000000
     16381      5461  TIP3      OH2           -12.7474166405       23.9126477139      -23.1129896465  W2        5461            0.0000000000
     16382      5461  TIP3      H1            -12.9662466405       24.4427077139      -23.8793896465  W2        5461            0.0000000000
     16383      5461  TIP3      H2            -13.4153266405       24.1391977139      -22.4658496465  W2        5461            0.0000000000
     16384      5462  TIP3      OH2            -5.3784366405       33.4127577139      -29.5690796465  W2        5462            0.0000000000
     16385      5462  TIP3      H1             -5.6739266405       33.0899877139      -30.4203896465  W2        5462            0.0000000000
     16386      5462  TIP3      H2             -5.7026566405       34.3124277139      -29.5278196465  W2        5462            0.0000000000
     16387      5463  TIP3      OH2           -10.1782766405       31.5882177139      -22.8256196465  W2        5463            0.0000000000
     16388      5463  TIP3      H1            -10.9183666405       32.1863677139      -22.7220996465  W2        5463            0.0000000000
     16389      5463  TIP3      H2             -9.4643266405       32.1421777139      -23.1412596465  W2        5463            0.0000000000
     16390      5464  TIP3      OH2            -2.0714966405       24.4162977139      -26.8056496465  W2        5464            0.0000000000
     16391      5464  TIP3      H1             -2.2866966405       23.6506377139      -26.2730496465  W2        5464            0.0000000000
     16392      5464  TIP3      H2             -1.4157566405       24.8887577139      -26.2927996465  W2        5464            0.0000000000
     16393      5465  TIP3      OH2           -13.1536866405       25.8048277139      -25.1607696465  W2        5465            0.0000000000
     16394      5465  TIP3      H1            -12.5400566405       26.4375877139      -24.7875296465  W2        5465            0.0000000000
     16395      5465  TIP3      H2            -12.6416166405       25.3323277139      -25.8170796465  W2        5465            0.0000000000
     16396      5466  TIP3      OH2           -11.7708466405       33.5525177139      -22.0384696465  W2        5466            0.0000000000
     16397      5466  TIP3      H1            -11.7760866405       34.4318677139      -22.4165396465  W2        5466            0.0000000000
     16398      5466  TIP3      H2            -12.6244366405       33.4689277139      -21.6134796465  W2        5466            0.0000000000
     16399      5467  TIP3      OH2           -15.6497566405       33.2233077139      -31.2565396465  W2        5467            0.0000000000
     16400      5467  TIP3      H1            -15.9216666405       33.4524077139      -32.1452496465  W2        5467            0.0000000000
     16401      5467  TIP3      H2            -15.6041866405       34.0611877139      -30.7960096465  W2        5467            0.0000000000
     16402      5468  TIP3      OH2            -2.0247866405       34.8448977139      -24.5436896465  W2        5468            0.0000000000
     16403      5468  TIP3      H1             -2.9664166405       34.9032877139      -24.3819996465  W2        5468            0.0000000000
     16404      5468  TIP3      H2             -1.7481766405       35.7509477139      -24.6807196465  W2        5468            0.0000000000
     16405      5469  TIP3      OH2            -1.7240866405       23.1314277139      -23.1262996465  W2        5469            0.0000000000
     16406      5469  TIP3      H1             -2.4601666405       23.7421377139      -23.1641696465  W2        5469            0.0000000000
     16407      5469  TIP3      H2             -1.0406866405       23.5463277139      -23.6526596465  W2        5469            0.0000000000
     16408      5470  TIP3      OH2            -8.7209466405       21.2181577139      -25.6604996465  W2        5470            0.0000000000
     16409      5470  TIP3      H1             -8.8385266405       20.2697577139      -25.7146696465  W2        5470            0.0000000000
     16410      5470  TIP3      H2             -9.5759366405       21.5507677139      -25.3873896465  W2        5470            0.0000000000
     16411      5471  TIP3      OH2            -3.7726666405       36.6262477139      -27.9185296465  W2        5471            0.0000000000
     16412      5471  TIP3      H1             -3.3474366405       35.9190377139      -28.4035696465  W2        5471            0.0000000000
     16413      5471  TIP3      H2             -3.4556666405       37.4275177139      -28.3353096465  W2        5471            0.0000000000
     16414      5472  TIP3      OH2            -2.6130166405       34.5270977139      -29.4098696465  W2        5472            0.0000000000
     16415      5472  TIP3      H1             -2.8705366405       33.8371077139      -30.0212796465  W2        5472            0.0000000000
     16416      5472  TIP3      H2             -2.5419366405       34.0842177139      -28.5642796465  W2        5472            0.0000000000
     16417      5473  TIP3      OH2            -0.9269966405       33.0937677139      -20.9325196465  W2        5473            0.0000000000
     16418      5473  TIP3      H1             -0.7873666405       32.5020177139      -21.6718196465  W2        5473            0.0000000000
     16419      5473  TIP3      H2             -0.7597166405       33.9663577139      -21.2886396465  W2        5473            0.0000000000
     16420      5474  TIP3      OH2            -6.4544566405       30.0557177139      -31.1599196465  W2        5474            0.0000000000
     16421      5474  TIP3      H1             -7.1659066405       30.5906877139      -31.5118696465  W2        5474            0.0000000000
     16422      5474  TIP3      H2             -5.7634966405       30.1109277139      -31.8200296465  W2        5474            0.0000000000
     16423      5475  TIP3      OH2            -6.4005366405       28.5131477139      -34.1214196465  W2        5475            0.0000000000
     16424      5475  TIP3      H1             -5.6995466405       28.5358377139      -33.4700196465  W2        5475            0.0000000000
     16425      5475  TIP3      H2             -6.0982466405       27.8851177139      -34.7774896465  W2        5475            0.0000000000
     16426      5476  TIP3      OH2             0.9149333595       29.4335677139      -22.8664796465  W2        5476            0.0000000000
     16427      5476  TIP3      H1              0.2623433595       30.1281277139      -22.7773896465  W2        5476            0.0000000000
     16428      5476  TIP3      H2              1.3799633595       29.6436577139      -23.6763196465  W2        5476            0.0000000000
     16429      5477  TIP3      OH2            -3.0486866405       30.2650477139      -30.2083296465  W2        5477            0.0000000000
     16430      5477  TIP3      H1             -3.7805866405       30.4934177139      -29.6352696465  W2        5477            0.0000000000
     16431      5477  TIP3      H2             -2.6014666405       29.5513177139      -29.7535796465  W2        5477            0.0000000000
     16432      5478  TIP3      OH2            -3.1513366405       28.4393077139      -21.1406296465  W2        5478            0.0000000000
     16433      5478  TIP3      H1             -3.0714266405       29.2027477139      -20.5687796465  W2        5478            0.0000000000
     16434      5478  TIP3      H2             -3.7525666405       28.7185477139      -21.8311196465  W2        5478            0.0000000000
     16435      5479  TIP3      OH2           -11.4033166405       30.8956677139      -28.3258296465  W2        5479            0.0000000000
     16436      5479  TIP3      H1            -11.7337966405       30.5250077139      -29.1441296465  W2        5479            0.0000000000
     16437      5479  TIP3      H2            -10.8149066405       30.2250677139      -27.9789996465  W2        5479            0.0000000000
     16438      5480  TIP3      OH2           -10.0365666405       34.3237277139      -25.6446096465  W2        5480            0.0000000000
     16439      5480  TIP3      H1            -10.1314366405       33.7450377139      -26.4011496465  W2        5480            0.0000000000
     16440      5480  TIP3      H2             -9.3072066405       33.9522977139      -25.1483296465  W2        5480            0.0000000000
     16441      5481  TIP3      OH2           -11.0367666405       29.6642277139      -24.6923296465  W2        5481            0.0000000000
     16442      5481  TIP3      H1            -10.4715166405       29.7856477139      -25.4552096465  W2        5481            0.0000000000
     16443      5481  TIP3      H2            -10.7178766405       30.3017277139      -24.0534796465  W2        5481            0.0000000000
     16444      5482  TIP3      OH2            -4.7275466405       35.1674177139      -23.9582796465  W2        5482            0.0000000000
     16445      5482  TIP3      H1             -4.9678866405       35.8297277139      -23.3103596465  W2        5482            0.0000000000
     16446      5482  TIP3      H2             -4.9257266405       34.3329377139      -23.5333196465  W2        5482            0.0000000000
     16447      5483  TIP3      OH2           -10.1566966405       34.0634977139      -19.9751396465  W2        5483            0.0000000000
     16448      5483  TIP3      H1            -10.4679466405       34.8458177139      -19.5198196465  W2        5483            0.0000000000
     16449      5483  TIP3      H2            -10.8066766405       33.9104077139      -20.6609396465  W2        5483            0.0000000000
     16450      5484  TIP3      OH2            -4.1777366405       29.4273377139      -32.5232096465  W2        5484            0.0000000000
     16451      5484  TIP3      H1             -3.5981866405       29.5773677139      -31.7763196465  W2        5484            0.0000000000
     16452      5484  TIP3      H2             -3.7637366405       29.8980777139      -33.2465696465  W2        5484            0.0000000000
     16453      5485  TIP3      OH2           -13.2367066405       30.2616077139      -20.7465696465  W2        5485            0.0000000000
     16454      5485  TIP3      H1            -13.1663866405       30.9122877139      -20.0480696465  W2        5485            0.0000000000
     16455      5485  TIP3      H2            -14.1274866405       30.3643577139      -21.0814796465  W2        5485            0.0000000000
     16456      5486  TIP3      OH2            -6.4512466405       36.1641877139      -29.0878996465  W2        5486            0.0000000000
     16457      5486  TIP3      H1             -5.9774866405       36.4598177139      -28.3104796465  W2        5486            0.0000000000
     16458      5486  TIP3      H2             -7.0143166405       36.9023477139      -29.3209396465  W2        5486            0.0000000000
     16459      5487  TIP3      OH2           -11.9171066405       36.1349977139      -19.2117596465  W2        5487            0.0000000000
     16460      5487  TIP3      H1            -11.9095766405       35.9989677139      -20.1592096465  W2        5487            0.0000000000
     16461      5487  TIP3      H2            -12.8330666405       36.0178077139      -18.9597596465  W2        5487            0.0000000000
     16462      5488  TIP3      OH2            -0.4788966405       21.1773777139      -32.7102396465  W2        5488            0.0000000000
     16463      5488  TIP3      H1             -1.3788266405       21.3162777139      -32.4151796465  W2        5488            0.0000000000
     16464      5488  TIP3      H2             -0.2270566405       22.0088377139      -33.1120696465  W2        5488            0.0000000000
     16465      5489  TIP3      OH2           -12.4130466405       29.9650977139      -30.7365496465  W2        5489            0.0000000000
     16466      5489  TIP3      H1            -12.7049166405       30.7332677139      -31.2274196465  W2        5489            0.0000000000
     16467      5489  TIP3      H2            -13.0875266405       29.3057177139      -30.8994096465  W2        5489            0.0000000000
     16468      5490  TIP3      OH2             0.7102433595       35.5436177139      -34.3338496465  W2        5490            0.0000000000
     16469      5490  TIP3      H1              0.7835933595       36.4826377139      -34.1633196465  W2        5490            0.0000000000
     16470      5490  TIP3      H2              1.6157533595       35.2384777139      -34.3901196465  W2        5490            0.0000000000
     16471      5491  TIP3      OH2           -16.3200366405       32.3280177139      -21.9215696465  W2        5491            0.0000000000
     16472      5491  TIP3      H1            -16.8211966405       32.2999577139      -22.7365996465  W2        5491            0.0000000000
     16473      5491  TIP3      H2            -16.3146666405       31.4223377139      -21.6118396465  W2        5491            0.0000000000
     16474      5492  TIP3      OH2           -16.5697666405       35.1083977139      -25.0375496465  W2        5492            0.0000000000
     16475      5492  TIP3      H1            -15.6237066405       34.9640977139      -25.0565996465  W2        5492            0.0000000000
     16476      5492  TIP3      H2            -16.6821366405       35.8926777139      -24.5004296465  W2        5492            0.0000000000
     16477      5493  TIP3      OH2             1.6280833595       35.7743677139      -19.3551796465  W2        5493            0.0000000000
     16478      5493  TIP3      H1              1.5787633595       34.8191777139      -19.3924196465  W2        5493            0.0000000000
     16479      5493  TIP3      H2              0.8013133595       36.0418977139      -18.9537996465  W2        5493            0.0000000000
     16480      5494  TIP3      OH2            -7.3935166405       35.3482877139      -20.4790396465  W2        5494            0.0000000000
     16481      5494  TIP3      H1             -7.3060566405       36.1747477139      -20.0041296465  W2        5494            0.0000000000
     16482      5494  TIP3      H2             -8.2570066405       35.0186677139      -20.2301096465  W2        5494            0.0000000000
     16483      5495  TIP3      OH2            -6.9789366405       39.1206577139      -30.6729796465  W2        5495            0.0000000000
     16484      5495  TIP3      H1             -7.0543366405       38.9993777139      -31.6194596465  W2        5495            0.0000000000
     16485      5495  TIP3      H2             -6.9460666405       40.0699277139      -30.5545196465  W2        5495            0.0000000000
     16486      5496  TIP3      OH2           -13.3255566405       37.9093577139      -28.8920796465  W2        5496            0.0000000000
     16487      5496  TIP3      H1            -13.1735166405       37.5613977139      -28.0134296465  W2        5496            0.0000000000
     16488      5496  TIP3      H2            -14.1765166405       37.5530877139      -29.1473596465  W2        5496            0.0000000000
     16489      5497  TIP3      OH2            -3.8773366405       38.2746777139      -33.6707396465  W2        5497            0.0000000000
     16490      5497  TIP3      H1             -3.5024966405       37.5302877139      -34.1414796465  W2        5497            0.0000000000
     16491      5497  TIP3      H2             -3.8729666405       38.0047377139      -32.7524096465  W2        5497            0.0000000000
     16492      5498  TIP3      OH2            -4.2085266405       38.2003877139      -30.9215196465  W2        5498            0.0000000000
     16493      5498  TIP3      H1             -5.1435466405       38.3005777139      -30.7428196465  W2        5498            0.0000000000
     16494      5498  TIP3      H2             -3.9283366405       37.4909877139      -30.3431996465  W2        5498            0.0000000000
     16495      5499  TIP3      OH2            -1.2199366405       27.2676177139      -18.8749596465  W2        5499            0.0000000000
     16496      5499  TIP3      H1             -1.6272566405       27.7481777139      -19.5956296465  W2        5499            0.0000000000
     16497      5499  TIP3      H2             -1.1793666405       26.3622177139      -19.1828796465  W2        5499            0.0000000000
     16498      5500  TIP3      OH2           -14.0709866405       33.6515577139      -20.8782896465  W2        5500            0.0000000000
     16499      5500  TIP3      H1            -13.8548566405       33.2901177139      -20.0187096465  W2        5500            0.0000000000
     16500      5500  TIP3      H2            -14.9265166405       33.2769377139      -21.0879396465  W2        5500            0.0000000000
     16501      5501  TIP3      OH2           -11.4521866405       22.1216077139      -24.8828696465  W2        5501            0.0000000000
     16502      5501  TIP3      H1            -12.3138166405       22.0344277139      -25.2905796465  W2        5501            0.0000000000
     16503      5501  TIP3      H2            -11.4746166405       22.9776177139      -24.4551096465  W2        5501            0.0000000000
     16504      5502  TIP3      OH2            -6.7894066405       21.8436477139      -21.5081696465  W2        5502            0.0000000000
     16505      5502  TIP3      H1             -6.3690966405       21.4283577139      -20.7551096465  W2        5502            0.0000000000
     16506      5502  TIP3      H2             -7.7224466405       21.6649777139      -21.3909696465  W2        5502            0.0000000000
     16507      5503  TIP3      OH2            -3.4629166405       25.5991677139      -20.6547196465  W2        5503            0.0000000000
     16508      5503  TIP3      H1             -3.9769666405       25.4733877139      -19.8571196465  W2        5503            0.0000000000
     16509      5503  TIP3      H2             -3.6184466405       26.5114777139      -20.8990996465  W2        5503            0.0000000000
     16510      5504  TIP3      OH2            -2.7004266405       30.4601677139      -34.8934196465  W2        5504            0.0000000000
     16511      5504  TIP3      H1             -2.6583466405       30.2375577139      -35.8234196465  W2        5504            0.0000000000
     16512      5504  TIP3      H2             -1.8512166405       30.8588777139      -34.7034296465  W2        5504            0.0000000000
     16513      5505  TIP3      OH2            -7.1276766405       24.3359877139      -34.2230896465  W2        5505            0.0000000000
     16514      5505  TIP3      H1             -7.3811966405       24.3551477139      -33.3002796465  W2        5505            0.0000000000
     16515      5505  TIP3      H2             -7.3844666405       23.4645277139      -34.5244696465  W2        5505            0.0000000000
     16516      5506  TIP3      OH2           -11.3611766405       27.0870577139      -23.7878496465  W2        5506            0.0000000000
     16517      5506  TIP3      H1            -12.0029666405       27.0467877139      -23.0788396465  W2        5506            0.0000000000
     16518      5506  TIP3      H2            -11.3239766405       28.0135277139      -24.0255496465  W2        5506            0.0000000000
     16519      5507  TIP3      OH2           -11.3642666405       27.3080677139      -28.8758496465  W2        5507            0.0000000000
     16520      5507  TIP3      H1            -12.2569766405       26.9676777139      -28.9344696465  W2        5507            0.0000000000
     16521      5507  TIP3      H2            -10.9136066405       26.9311577139      -29.6315296465  W2        5507            0.0000000000
     16522      5508  TIP3      OH2            -5.8287166405       27.7240977139      -30.0587696465  W2        5508            0.0000000000
     16523      5508  TIP3      H1             -6.2376866405       28.5389577139      -30.3502896465  W2        5508            0.0000000000
     16524      5508  TIP3      H2             -5.1080966405       27.5841077139      -30.6730596465  W2        5508            0.0000000000
     16525      5509  TIP3      OH2            -6.7265566405       27.8997377139      -18.5706996465  W2        5509            0.0000000000
     16526      5509  TIP3      H1             -7.2891766405       27.1948977139      -18.2499196465  W2        5509            0.0000000000
     16527      5509  TIP3      H2             -5.9002166405       27.7789277139      -18.1029396465  W2        5509            0.0000000000
     16528      5510  TIP3      OH2            -4.8239466405       27.1701377139      -27.2447996465  W2        5510            0.0000000000
     16529      5510  TIP3      H1             -5.0194966405       27.7758177139      -27.9597396465  W2        5510            0.0000000000
     16530      5510  TIP3      H2             -4.6426866405       26.3366577139      -27.6791696465  W2        5510            0.0000000000
     16531      5511  TIP3      OH2           -13.6111266405       27.4074077139      -21.9206496465  W2        5511            0.0000000000
     16532      5511  TIP3      H1            -13.6491866405       27.8075677139      -21.0519396465  W2        5511            0.0000000000
     16533      5511  TIP3      H2            -14.1020166405       26.5906477139      -21.8303596465  W2        5511            0.0000000000
     16534      5512  TIP3      OH2           -10.2453866405       24.7816377139      -35.1220496465  W2        5512            0.0000000000
     16535      5512  TIP3      H1            -10.6763166405       24.3366477139      -34.3923096465  W2        5512            0.0000000000
     16536      5512  TIP3      H2            -10.9635166405       25.1532677139      -35.6342996465  W2        5512            0.0000000000
     16537      5513  TIP3      OH2           -17.0030466405       24.5235877139      -28.0701796465  W2        5513            0.0000000000
     16538      5513  TIP3      H1            -16.3722766405       24.4947977139      -27.3507896465  W2        5513            0.0000000000
     16539      5513  TIP3      H2            -16.5536166405       24.0984577139      -28.8005896465  W2        5513            0.0000000000
     16540      5514  TIP3      OH2           -15.7288366405       25.2697877139      -32.6461396465  W2        5514            0.0000000000
     16541      5514  TIP3      H1            -15.2546666405       25.8607777139      -33.2310496465  W2        5514            0.0000000000
     16542      5514  TIP3      H2            -16.4461966405       25.8000777139      -32.2991296465  W2        5514            0.0000000000
     16543      5515  TIP3      OH2            -5.5600266405       28.8082677139      -22.5735596465  W2        5515            0.0000000000
     16544      5515  TIP3      H1             -5.2365466405       28.1772377139      -23.2165096465  W2        5515            0.0000000000
     16545      5515  TIP3      H2             -6.0000966405       28.2734877139      -21.9128196465  W2        5515            0.0000000000
     16546      5516  TIP3      OH2            -8.7827366405       24.7358177139      -27.7894396465  W2        5516            0.0000000000
     16547      5516  TIP3      H1             -9.6936266405       24.7924977139      -27.5008396465  W2        5516            0.0000000000
     16548      5516  TIP3      H2             -8.2774466405       24.6753677139      -26.9787196465  W2        5516            0.0000000000
     16549      5517  TIP3      OH2           -13.9543966405       26.3644477139      -28.9626796465  W2        5517            0.0000000000
     16550      5517  TIP3      H1            -14.8435966405       26.4639977139      -29.3027196465  W2        5517            0.0000000000
     16551      5517  TIP3      H2            -13.6579066405       25.5227477139      -29.3088896465  W2        5517            0.0000000000
     16552      5518  TIP3      OH2           -10.3012166405       26.3647077139      -31.3062196465  W2        5518            0.0000000000
     16553      5518  TIP3      H1             -9.3696666405       26.4937077139      -31.1279096465  W2        5518            0.0000000000
     16554      5518  TIP3      H2            -10.5161866405       27.0341377139      -31.9557496465  W2        5518            0.0000000000
     16555      5519  TIP3      OH2            -4.3775466405       23.9704477139      -24.5252596465  W2        5519            0.0000000000
     16556      5519  TIP3      H1             -5.0543866405       24.1017577139      -23.8612896465  W2        5519            0.0000000000
     16557      5519  TIP3      H2             -4.8630566405       23.8153977139      -25.3354896465  W2        5519            0.0000000000
     16558      5520  TIP3      OH2           -11.6271966405       27.5589277139      -33.7396096465  W2        5520            0.0000000000
     16559      5520  TIP3      H1            -12.1696866405       27.1793077139      -34.4308496465  W2        5520            0.0000000000
     16560      5520  TIP3      H2            -10.7937066405       27.7533977139      -34.1681996465  W2        5520            0.0000000000
     16561      5521  TIP3      OH2            -1.0900366405       39.6419877139      -18.2484996465  W2        5521            0.0000000000
     16562      5521  TIP3      H1             -0.8901666405       40.0661777139      -19.0829696465  W2        5521            0.0000000000
     16563      5521  TIP3      H2             -0.4346666405       39.9858077139      -17.6414596465  W2        5521            0.0000000000
     16564      5522  TIP3      OH2           -13.4920566405       32.1161177139      -18.6404496465  W2        5522            0.0000000000
     16565      5522  TIP3      H1            -12.7598166405       32.3707077139      -18.0789996465  W2        5522            0.0000000000
     16566      5522  TIP3      H2            -14.2721866405       32.3206577139      -18.1249096465  W2        5522            0.0000000000
     16567      5523  TIP3      OH2            -7.4627666405       27.5231177139      -25.9024796465  W2        5523            0.0000000000
     16568      5523  TIP3      H1             -6.8984266405       26.9767777139      -26.4495196465  W2        5523            0.0000000000
     16569      5523  TIP3      H2             -7.6104266405       27.0013077139      -25.1137196465  W2        5523            0.0000000000
     16570      5524  TIP3      OH2           -12.4607966405       23.6597277139      -29.4839996465  W2        5524            0.0000000000
     16571      5524  TIP3      H1            -12.7778466405       22.7572577139      -29.5194596465  W2        5524            0.0000000000
     16572      5524  TIP3      H2            -11.6793866405       23.6614677139      -30.0368396465  W2        5524            0.0000000000
     16573      5525  TIP3      OH2            -8.8361766405       25.9117277139      -23.4884396465  W2        5525            0.0000000000
     16574      5525  TIP3      H1             -9.6716466405       26.3656777139      -23.3781996465  W2        5525            0.0000000000
     16575      5525  TIP3      H2             -8.3121166405       26.1875777139      -22.7364496465  W2        5525            0.0000000000
     16576      5526  TIP3      OH2            -8.2919166405       32.1244977139      -31.8037996465  W2        5526            0.0000000000
     16577      5526  TIP3      H1             -9.0368166405       31.6170277139      -32.1260096465  W2        5526            0.0000000000
     16578      5526  TIP3      H2             -8.4261966405       32.1732977139      -30.8573196465  W2        5526            0.0000000000
     16579      5527  TIP3      OH2            -1.1420266405       31.2573177139      -23.0170396465  W2        5527            0.0000000000
     16580      5527  TIP3      H1             -0.5001466405       31.7139477139      -23.5608196465  W2        5527            0.0000000000
     16581      5527  TIP3      H2             -1.9723366405       31.3705577139      -23.4796296465  W2        5527            0.0000000000
     16582      5528  TIP3      OH2            -4.3942366405       24.9384877139      -33.6045396465  W2        5528            0.0000000000
     16583      5528  TIP3      H1             -5.3328166405       25.0500477139      -33.7556596465  W2        5528            0.0000000000
     16584      5528  TIP3      H2             -4.0970266405       25.7951777139      -33.2979696465  W2        5528            0.0000000000
     16585      5529  TIP3      OH2            -6.7727066405       32.3088277139      -20.5668896465  W2        5529            0.0000000000
     16586      5529  TIP3      H1             -7.1180966405       31.9270677139      -19.7599296465  W2        5529            0.0000000000
     16587      5529  TIP3      H2             -6.9726966405       33.2421877139      -20.4955996465  W2        5529            0.0000000000
     16588      5530  TIP3      OH2            -3.6758866405       26.8057577139      -31.9437996465  W2        5530            0.0000000000
     16589      5530  TIP3      H1             -2.7839866405       26.6682577139      -31.6246796465  W2        5530            0.0000000000
     16590      5530  TIP3      H2             -3.6195266405       27.5963677139      -32.4804496465  W2        5530            0.0000000000
     16591      5531  TIP3      OH2           -13.1670866405       31.4194977139      -26.0340096465  W2        5531            0.0000000000
     16592      5531  TIP3      H1            -12.4223666405       31.4170677139      -26.6353596465  W2        5531            0.0000000000
     16593      5531  TIP3      H2            -13.0894266405       30.5958777139      -25.5524996465  W2        5531            0.0000000000
     16594      5532  TIP3      OH2            -6.1665066405       33.5829277139      -32.7783396465  W2        5532            0.0000000000
     16595      5532  TIP3      H1             -6.4616666405       34.4097177139      -32.3968596465  W2        5532            0.0000000000
     16596      5532  TIP3      H2             -6.8695066405       32.9636177139      -32.5821996465  W2        5532            0.0000000000
     16597      5533  TIP3      OH2           -16.1591166405       29.8801877139      -20.7191596465  W2        5533            0.0000000000
     16598      5533  TIP3      H1            -15.9362566405       29.4621477139      -19.8874096465  W2        5533            0.0000000000
     16599      5533  TIP3      H2            -16.7611066405       29.2676877139      -21.1418796465  W2        5533            0.0000000000
     16600      5534  TIP3      OH2            -9.1426266405       29.3971777139      -18.5061896465  W2        5534            0.0000000000
     16601      5534  TIP3      H1             -9.4385466405       29.2314777139      -19.4012796465  W2        5534            0.0000000000
     16602      5534  TIP3      H2             -8.2111066405       29.1772077139      -18.5167996465  W2        5534            0.0000000000
     16603      5535  TIP3      OH2            -4.5223466405       34.7703777139      -20.6163896465  W2        5535            0.0000000000
     16604      5535  TIP3      H1             -5.4229166405       34.9536377139      -20.8839996465  W2        5535            0.0000000000
     16605      5535  TIP3      H2             -4.4882366405       35.0293077139      -19.6955096465  W2        5535            0.0000000000
     16606      5536  TIP3      OH2             1.2089833595       27.0151677139      -32.2491296465  W2        5536            0.0000000000
     16607      5536  TIP3      H1              0.6546133595       26.6189677139      -32.9213796465  W2        5536            0.0000000000
     16608      5536  TIP3      H2              1.3093433595       27.9256877139      -32.5267996465  W2        5536            0.0000000000
     16609      5537  TIP3      OH2             1.1721833595       32.8153377139      -19.4119796465  W2        5537            0.0000000000
     16610      5537  TIP3      H1              0.3210333595       33.0537177139      -19.7793396465  W2        5537            0.0000000000
     16611      5537  TIP3      H2              1.7625233595       32.7986577139      -20.1652696465  W2        5537            0.0000000000
     16612      5538  TIP3      OH2            -0.4958466405       35.8012077139      -31.7839196465  W2        5538            0.0000000000
     16613      5538  TIP3      H1             -0.8687366405       34.9755877139      -31.4748596465  W2        5538            0.0000000000
     16614      5538  TIP3      H2             -0.2184966405       35.6181477139      -32.6815796465  W2        5538            0.0000000000
     16615      5539  TIP3      OH2            -3.3354566405       30.6091577139      -24.7627296465  W2        5539            0.0000000000
     16616      5539  TIP3      H1             -4.2637666405       30.3773477139      -24.7897996465  W2        5539            0.0000000000
     16617      5539  TIP3      H2             -2.8843466405       29.8321377139      -25.0928496465  W2        5539            0.0000000000
     16618      5540  TIP3      OH2           -10.7921466405       34.9373177139      -28.6298596465  W2        5540            0.0000000000
     16619      5540  TIP3      H1            -10.2649266405       35.7107577139      -28.8299796465  W2        5540            0.0000000000
     16620      5540  TIP3      H2            -11.6722966405       35.1622377139      -28.9314596465  W2        5540            0.0000000000
     16621      5541  TIP3      OH2           -15.0373766405       29.7997277139      -34.0426196465  W2        5541            0.0000000000
     16622      5541  TIP3      H1            -14.4213866405       30.4264477139      -33.6631396465  W2        5541            0.0000000000
     16623      5541  TIP3      H2            -15.8991166405       30.1157077139      -33.7709696465  W2        5541            0.0000000000
     16624      5542  TIP3      OH2            -9.3649166405       32.6003077139      -29.0534296465  W2        5542            0.0000000000
     16625      5542  TIP3      H1             -9.6059166405       33.5257477139      -29.0118996465  W2        5542            0.0000000000
     16626      5542  TIP3      H2            -10.1055566405       32.1414377139      -28.6570396465  W2        5542            0.0000000000
     16627      5543  TIP3      OH2            -8.8502566405       36.7496677139      -22.7383196465  W2        5543            0.0000000000
     16628      5543  TIP3      H1             -8.4877866405       37.6042277139      -22.9718796465  W2        5543            0.0000000000
     16629      5543  TIP3      H2             -8.3187366405       36.4578277139      -21.9976896465  W2        5543            0.0000000000
     16630      5544  TIP3      OH2           -10.6818366405       37.6220677139      -29.5082096465  W2        5544            0.0000000000
     16631      5544  TIP3      H1            -11.6317866405       37.7278077139      -29.4568796465  W2        5544            0.0000000000
     16632      5544  TIP3      H2            -10.3300266405       38.4428077139      -29.1634596465  W2        5544            0.0000000000
     16633      5545  TIP3      OH2            -5.3061766405       32.8487377139      -23.0377596465  W2        5545            0.0000000000
     16634      5545  TIP3      H1             -5.7320466405       32.6209077139      -22.2113596465  W2        5545            0.0000000000
     16635      5545  TIP3      H2             -4.7255966405       32.1099177139      -23.2202296465  W2        5545            0.0000000000
     16636      5546  TIP3      OH2            -3.1032866405       33.7777877139      -33.9638596465  W2        5546            0.0000000000
     16637      5546  TIP3      H1             -2.7499766405       33.3977677139      -33.1595096465  W2        5546            0.0000000000
     16638      5546  TIP3      H2             -4.0519366405       33.6842677139      -33.8769296465  W2        5546            0.0000000000
     16639      5547  TIP3      OH2            -2.6477566405       37.4006877139      -20.5682796465  W2        5547            0.0000000000
     16640      5547  TIP3      H1             -3.2494366405       36.8449777139      -21.0636496465  W2        5547            0.0000000000
     16641      5547  TIP3      H2             -2.3663866405       38.0676677139      -21.1945396465  W2        5547            0.0000000000
     16642      5548  TIP3      OH2             1.4001533595       38.2570377139      -33.7628396465  W2        5548            0.0000000000
     16643      5548  TIP3      H1              2.1439433595       38.8430877139      -33.9026796465  W2        5548            0.0000000000
     16644      5548  TIP3      H2              0.7059633595       38.8256177139      -33.4295996465  W2        5548            0.0000000000
     16645      5549  TIP3      OH2           -14.5251666405       24.6334577139      -21.1610196465  W2        5549            0.0000000000
     16646      5549  TIP3      H1            -15.4179366405       24.9719977139      -21.2286196465  W2        5549            0.0000000000
     16647      5549  TIP3      H2            -14.6238866405       23.7780677139      -20.7429396465  W2        5549            0.0000000000
     16648      5550  TIP3      OH2            -2.2373566405       32.4499877139      -31.7370696465  W2        5550            0.0000000000
     16649      5550  TIP3      H1             -2.5145966405       31.7219177139      -31.1809596465  W2        5550            0.0000000000
     16650      5550  TIP3      H2             -1.3100566405       32.5691877139      -31.5318096465  W2        5550            0.0000000000
     16651      5551  TIP3      OH2           -14.8739666405       36.4378977139      -22.7260796465  W2        5551            0.0000000000
     16652      5551  TIP3      H1            -14.6569366405       35.5061377139      -22.7571096465  W2        5551            0.0000000000
     16653      5551  TIP3      H2            -14.6276166405       36.7123977139      -21.8427996465  W2        5551            0.0000000000
     16654      5552  TIP3      OH2            -9.0125066405       34.8893977139      -35.5168596465  W2        5552            0.0000000000
     16655      5552  TIP3      H1             -8.7735266405       34.1412077139      -36.0639696465  W2        5552            0.0000000000
     16656      5552  TIP3      H2             -9.2813766405       34.5015677139      -34.6840796465  W2        5552            0.0000000000
     16657      5553  TIP3      OH2           -10.0754466405       34.4597777139      -33.0605996465  W2        5553            0.0000000000
     16658      5553  TIP3      H1             -9.9286466405       33.9397577139      -32.2705096465  W2        5553            0.0000000000
     16659      5553  TIP3      H2            -10.0782766405       35.3665377139      -32.7540096465  W2        5553            0.0000000000
     16660      5554  TIP3      OH2           -13.6223366405       31.7121077139      -32.5500596465  W2        5554            0.0000000000
     16661      5554  TIP3      H1            -14.3084066405       32.0643577139      -31.9830896465  W2        5554            0.0000000000
     16662      5554  TIP3      H2            -13.0995466405       32.4750677139      -32.7966296465  W2        5554            0.0000000000
     16663      5555  TIP3      OH2            -5.7908266405       24.3744877139      -22.2711596465  W2        5555            0.0000000000
     16664      5555  TIP3      H1             -5.0920366405       24.4483577139      -21.6211896465  W2        5555            0.0000000000
     16665      5555  TIP3      H2             -6.1716866405       23.5099877139      -22.1168696465  W2        5555            0.0000000000
     16666      5556  TIP3      OH2            -5.0063366405       24.0266577139      -31.1739296465  W2        5556            0.0000000000
     16667      5556  TIP3      H1             -4.7865066405       24.4981977139      -31.9773896465  W2        5556            0.0000000000
     16668      5556  TIP3      H2             -4.4479366405       24.4209177139      -30.5038696465  W2        5556            0.0000000000
     16669      5557  TIP3      OH2            -7.3377266405       36.1571377139      -32.3111796465  W2        5557            0.0000000000
     16670      5557  TIP3      H1             -8.1541166405       36.6541077139      -32.2587496465  W2        5557            0.0000000000
     16671      5557  TIP3      H2             -6.8080966405       36.6324877139      -32.9512996465  W2        5557            0.0000000000
     16672      5558  TIP3      OH2            -7.8063466405       25.7545377139      -30.3390896465  W2        5558            0.0000000000
     16673      5558  TIP3      H1             -6.9940866405       26.2588577139      -30.2929196465  W2        5558            0.0000000000
     16674      5558  TIP3      H2             -8.0510466405       25.6095077139      -29.4251296465  W2        5558            0.0000000000
     16675      5559  TIP3      OH2            -7.2707066405       26.7408077139      -21.1544296465  W2        5559            0.0000000000
     16676      5559  TIP3      H1             -7.1516766405       27.3143477139      -20.3973896465  W2        5559            0.0000000000
     16677      5559  TIP3      H2             -6.6152466405       26.0527477139      -21.0396496465  W2        5559            0.0000000000
     16678      5560  TIP3      OH2            -6.9226766405       22.8358377139      -29.4009796465  W2        5560            0.0000000000
     16679      5560  TIP3      H1             -7.2693266405       23.4528977139      -28.7565496465  W2        5560            0.0000000000
     16680      5560  TIP3      H2             -6.2639866405       23.3364077139      -29.8824296465  W2        5560            0.0000000000
     16681      5561  TIP3      OH2            -9.9994166405       37.2008577139      -32.3294896465  W2        5561            0.0000000000
     16682      5561  TIP3      H1             -9.8385466405       38.0006077139      -32.8302296465  W2        5561            0.0000000000
     16683      5561  TIP3      H2            -10.1966366405       37.5074577139      -31.4444296465  W2        5561            0.0000000000
     16684      5562  TIP3      OH2           -11.2649766405       23.8987777139      -32.7137296465  W2        5562            0.0000000000
     16685      5562  TIP3      H1            -11.3484966405       24.7870877139      -32.3670896465  W2        5562            0.0000000000
     16686      5562  TIP3      H2            -10.3749466405       23.6334477139      -32.4820496465  W2        5562            0.0000000000
     16687      5563  TIP3      OH2            -1.0661266405       24.6478377139      -20.3194596465  W2        5563            0.0000000000
     16688      5563  TIP3      H1             -1.9825466405       24.9100077139      -20.4070896465  W2        5563            0.0000000000
     16689      5563  TIP3      H2             -0.7306266405       24.6447377139      -21.2159296465  W2        5563            0.0000000000
     16690      5564  TIP3      OH2            -2.4640266405       28.3979377139      -26.2237296465  W2        5564            0.0000000000
     16691      5564  TIP3      H1             -3.2615866405       27.9829577139      -26.5522296465  W2        5564            0.0000000000
     16692      5564  TIP3      H2             -2.0189166405       27.7073077139      -25.7326796465  W2        5564            0.0000000000
     16693      5565  TIP3      OH2           -13.0064466405       34.3259977139      -33.6532796465  W2        5565            0.0000000000
     16694      5565  TIP3      H1            -12.4142966405       35.0254777139      -33.3770396465  W2        5565            0.0000000000
     16695      5565  TIP3      H2            -12.5471466405       33.8929477139      -34.3728196465  W2        5565            0.0000000000
     16696      5566  TIP3      OH2           -14.6905266405       26.9902977139      -34.5373396465  W2        5566            0.0000000000
     16697      5566  TIP3      H1            -14.7352666405       27.9296077139      -34.3586396465  W2        5566            0.0000000000
     16698      5566  TIP3      H2            -15.5782066405       26.7547877139      -34.8071296465  W2        5566            0.0000000000
     16699      5567  TIP3      OH2            -1.3775666405       37.6541877139      -24.6013796465  W2        5567            0.0000000000
     16700      5567  TIP3      H1             -1.5331366405       38.3326277139      -25.2584496465  W2        5567            0.0000000000
     16701      5567  TIP3      H2             -0.4449266405       37.7261177139      -24.3983196465  W2        5567            0.0000000000
     16702      5568  TIP3      OH2           -13.8823266405       21.7719577139      -25.8642396465  W2        5568            0.0000000000
     16703      5568  TIP3      H1            -14.1113466405       21.8312077139      -26.7917396465  W2        5568            0.0000000000
     16704      5568  TIP3      H2            -14.3249866405       20.9805077139      -25.5578296465  W2        5568            0.0000000000
     16705      5569  TIP3      OH2           -14.9519966405       35.7126677139      -29.7036596465  W2        5569            0.0000000000
     16706      5569  TIP3      H1            -15.7841366405       36.1849377139      -29.6765196465  W2        5569            0.0000000000
     16707      5569  TIP3      H2            -14.4061666405       36.2224277139      -30.3023496465  W2        5569            0.0000000000
     16708      5570  TIP3      OH2           -15.6636266405       38.3250377139      -18.3738596465  W2        5570            0.0000000000
     16709      5570  TIP3      H1            -15.1234066405       38.1084377139      -17.6139396465  W2        5570            0.0000000000
     16710      5570  TIP3      H2            -16.1448266405       37.5196377139      -18.5636096465  W2        5570            0.0000000000
     16711      5571  TIP3      OH2           -11.0662866405       37.2444777139      -16.7534396465  W2        5571            0.0000000000
     16712      5571  TIP3      H1            -10.2985666405       36.7855577139      -16.4125196465  W2        5571            0.0000000000
     16713      5571  TIP3      H2            -11.0876666405       37.0184577139      -17.6833196465  W2        5571            0.0000000000
     16714      5572  TIP3      OH2            -6.9743266405       36.7525377139      -35.3782596465  W2        5572            0.0000000000
     16715      5572  TIP3      H1             -7.6182266405       36.1213977139      -35.0568896465  W2        5572            0.0000000000
     16716      5572  TIP3      H2             -6.2124966405       36.2213377139      -35.6099096465  W2        5572            0.0000000000
     16717      5573  TIP3      OH2            -4.4894166405       35.6245877139      -18.0242896465  W2        5573            0.0000000000
     16718      5573  TIP3      H1             -4.8404666405       34.7678877139      -17.7812496465  W2        5573            0.0000000000
     16719      5573  TIP3      H2             -3.7630966405       35.7672577139      -17.4173896465  W2        5573            0.0000000000
     16720      5574  TIP3      OH2            -2.3700366405       36.5695277139      -35.1444596465  W2        5574            0.0000000000
     16721      5574  TIP3      H1             -2.0869966405       35.7750477139      -34.6917696465  W2        5574            0.0000000000
     16722      5574  TIP3      H2             -1.6302466405       36.8026277139      -35.7053496465  W2        5574            0.0000000000
     16723      5575  TIP3      OH2           -15.7566766405       32.1354477139      -17.4194296465  W2        5575            0.0000000000
     16724      5575  TIP3      H1            -15.6126266405       31.2335177139      -17.7057596465  W2        5575            0.0000000000
     16725      5575  TIP3      H2            -16.5289366405       32.4216577139      -17.9071996465  W2        5575            0.0000000000
     16726      5576  TIP3      OH2           -11.4153066405       32.4790177139      -35.2869696465  W2        5576            0.0000000000
     16727      5576  TIP3      H1            -11.3508966405       31.6849777139      -34.7563296465  W2        5576            0.0000000000
     16728      5576  TIP3      H2            -10.7623866405       32.3602977139      -35.9767696465  W2        5576            0.0000000000
     16729      5577  TIP3      OH2            -9.1010666405       32.1052577139      -17.9867896465  W2        5577            0.0000000000
     16730      5577  TIP3      H1             -9.4296866405       32.3760677139      -18.8440496465  W2        5577            0.0000000000
     16731      5577  TIP3      H2             -8.9492466405       31.1642377139      -18.0742896465  W2        5577            0.0000000000
     16732      5578  TIP3      OH2            -6.0629666405       33.5261877139      -35.5511696465  W2        5578            0.0000000000
     16733      5578  TIP3      H1             -6.3315566405       33.7063977139      -34.6502796465  W2        5578            0.0000000000
     16734      5578  TIP3      H2             -6.2694066405       32.6008077139      -35.6825896465  W2        5578            0.0000000000
     16735      5579  TIP3      OH2            -3.3665466405       32.0209877139      -20.6035596465  W2        5579            0.0000000000
     16736      5579  TIP3      H1             -2.6210666405       32.6093577139      -20.7231596465  W2        5579            0.0000000000
     16737      5579  TIP3      H2             -4.1238666405       32.6029577139      -20.5402496465  W2        5579            0.0000000000
     16738      5580  TIP3      OH2           -14.9240266405       29.3357777139      -17.9994996465  W2        5580            0.0000000000
     16739      5580  TIP3      H1            -14.5159066405       28.4784377139      -18.1204396465  W2        5580            0.0000000000
     16740      5580  TIP3      H2            -15.1842666405       29.3499077139      -17.0784696465  W2        5580            0.0000000000
     16741      5581  TIP3      OH2           -10.2659266405       30.4516377139      -32.9811696465  W2        5581            0.0000000000
     16742      5581  TIP3      H1            -10.7257266405       29.9674677139      -32.2953196465  W2        5581            0.0000000000
     16743      5581  TIP3      H2            -10.0110566405       29.7831777139      -33.6171196465  W2        5581            0.0000000000
     16744      5582  TIP3      OH2           -10.9769966405       28.3443477139      -20.6252096465  W2        5582            0.0000000000
     16745      5582  TIP3      H1            -11.5953866405       29.0190077139      -20.3447396465  W2        5582            0.0000000000
     16746      5582  TIP3      H2            -10.6328766405       28.6657377139      -21.4585896465  W2        5582            0.0000000000
     16747      5583  TIP3      OH2            -9.1948866405       28.6948177139      -34.7188496465  W2        5583            0.0000000000
     16748      5583  TIP3      H1             -9.3753866405       28.5399377139      -35.6460196465  W2        5583            0.0000000000
     16749      5583  TIP3      H2             -8.2448366405       28.8026877139      -34.6740596465  W2        5583            0.0000000000
     16750      5584  TIP3      OH2            -5.9571766405       30.8158777139      -17.3477296465  W2        5584            0.0000000000
     16751      5584  TIP3      H1             -5.0040566405       30.8997877139      -17.3751296465  W2        5584            0.0000000000
     16752      5584  TIP3      H2             -6.1177166405       30.1040577139      -16.7282396465  W2        5584            0.0000000000
     16753      5585  TIP3      OH2             0.1949433595       31.0492377139      -35.2730396465  W2        5585            0.0000000000
     16754      5585  TIP3      H1             -0.0785766405       30.6247877139      -36.0862096465  W2        5585            0.0000000000
     16755      5585  TIP3      H2              0.2343533595       31.9806877139      -35.4899996465  W2        5585            0.0000000000
     16756      5586  TIP3      OH2           -10.6376266405       25.6994277139      -19.5428996465  W2        5586            0.0000000000
     16757      5586  TIP3      H1            -10.4875366405       24.9705577139      -20.1449296465  W2        5586            0.0000000000
     16758      5586  TIP3      H2            -10.6353866405       26.4765977139      -20.1016796465  W2        5586            0.0000000000
     16759      5587  TIP3      OH2           -10.2250566405       24.0690077139      -22.0501596465  W2        5587            0.0000000000
     16760      5587  TIP3      H1             -9.6893066405       24.5206777139      -22.7022296465  W2        5587            0.0000000000
     16761      5587  TIP3      H2            -11.0770966405       23.9609877139      -22.4727496465  W2        5587            0.0000000000
     16762      5588  TIP3      OH2            -8.6432166405       29.5086277139      -21.8106396465  W2        5588            0.0000000000
     16763      5588  TIP3      H1             -7.8927366405       29.3523777139      -22.3838596465  W2        5588            0.0000000000
     16764      5588  TIP3      H2             -8.9823866405       30.3602877139      -22.0860896465  W2        5588            0.0000000000
     16765      5589  TIP3      OH2            -4.2275966405       27.3238077139      -16.7821096465  W2        5589            0.0000000000
     16766      5589  TIP3      H1             -4.0354666405       26.3927477139      -16.8936596465  W2        5589            0.0000000000
     16767      5589  TIP3      H2             -3.3699666405       27.7487577139      -16.7925696465  W2        5589            0.0000000000
     16768      5590  TIP3      OH2            -2.9108766405       30.1123277139      -18.7048396465  W2        5590            0.0000000000
     16769      5590  TIP3      H1             -3.1923766405       30.8217877139      -19.2824596465  W2        5590            0.0000000000
     16770      5590  TIP3      H2             -1.9684466405       30.0396277139      -18.8557196465  W2        5590            0.0000000000
     16771      5591  TIP3      OH2           -12.1589966405       26.8977777139      -17.6313396465  W2        5591            0.0000000000
     16772      5591  TIP3      H1            -12.9260966405       26.3652577139      -17.8415796465  W2        5591            0.0000000000
     16773      5591  TIP3      H2            -11.4800966405       26.5878177139      -18.2307096465  W2        5591            0.0000000000
     16774      5592  TIP3      OH2            -9.4195066405       21.5255777139      -21.6187996465  W2        5592            0.0000000000
     16775      5592  TIP3      H1             -9.5175466405       22.4718977139      -21.7241796465  W2        5592            0.0000000000
     16776      5592  TIP3      H2            -10.1618866405       21.1529577139      -22.0944496465  W2        5592            0.0000000000
     16777      5593  TIP3      OH2            -8.1554566405       25.8471177139      -18.0549596465  W2        5593            0.0000000000
     16778      5593  TIP3      H1             -8.3909166405       25.6277877139      -17.1534696465  W2        5593            0.0000000000
     16779      5593  TIP3      H2             -8.9387666405       25.6402377139      -18.5647096465  W2        5593            0.0000000000
     16780      5594  TIP3      OH2            -5.4397966405       24.9744677139      -18.9796096465  W2        5594            0.0000000000
     16781      5594  TIP3      H1             -6.3872566405       25.0064377139      -18.8472796465  W2        5594            0.0000000000
     16782      5594  TIP3      H2             -5.1271266405       24.3491777139      -18.3257896465  W2        5594            0.0000000000
     16783      5595  TIP3      OH2            -3.8056466405       23.6085777139      -16.9744196465  W2        5595            0.0000000000
     16784      5595  TIP3      H1             -3.9024666405       22.6563077139      -16.9802296465  W2        5595            0.0000000000
     16785      5595  TIP3      H2             -4.1273366405       23.8772577139      -16.1138696465  W2        5595            0.0000000000
     16786      5596  TIP3      OH2           -13.9787166405       24.8181577139      -17.9268696465  W2        5596            0.0000000000
     16787      5596  TIP3      H1            -13.7669766405       24.1117677139      -18.5371196465  W2        5596            0.0000000000
     16788      5596  TIP3      H2            -14.0899666405       24.3807577139      -17.0827496465  W2        5596            0.0000000000
     16789      5597  TIP3      OH2            -9.1976966405       20.8193177139      -18.9475196465  W2        5597            0.0000000000
     16790      5597  TIP3      H1             -8.4858566405       20.1795377139      -18.9616096465  W2        5597            0.0000000000
     16791      5597  TIP3      H2             -9.2986566405       21.0861477139      -19.8612096465  W2        5597            0.0000000000
     16792      5598  TIP3      OH2            -8.8439466405       22.5021577139      -16.8938896465  W2        5598            0.0000000000
     16793      5598  TIP3      H1             -8.9757266405       22.0265377139      -17.7140396465  W2        5598            0.0000000000
     16794      5598  TIP3      H2             -9.4432066405       23.2465177139      -16.9491796465  W2        5598            0.0000000000
     16795      5599  TIP3      OH2            -9.2977166405       39.3851877139      -33.7174896465  W2        5599            0.0000000000
     16796      5599  TIP3      H1             -8.3646466405       39.5430577139      -33.5736496465  W2        5599            0.0000000000
     16797      5599  TIP3      H2             -9.5618366405       40.0604877139      -34.3423396465  W2        5599            0.0000000000
     16798      5600  TIP3      OH2           -15.7292266405       34.0215677139      -34.2346796465  W2        5600            0.0000000000
     16799      5600  TIP3      H1            -14.8153066405       34.1004577139      -33.9612896465  W2        5600            0.0000000000
     16800      5600  TIP3      H2            -15.7219166405       33.3345277139      -34.9011196465  W2        5600            0.0000000000
     16801      5601  TIP3      OH2           -17.0801666405       39.4144177139      -29.1572896465  W2        5601            0.0000000000
     16802      5601  TIP3      H1            -17.7274566405       38.9525877139      -29.6901696465  W2        5601            0.0000000000
     16803      5601  TIP3      H2            -16.7257066405       38.7427477139      -28.5746696465  W2        5601            0.0000000000
     16804      5602  TIP3      OH2           -16.2102466405       37.4951177139      -27.3526696465  W2        5602            0.0000000000
     16805      5602  TIP3      H1            -16.5445666405       36.6148477139      -27.1806496465  W2        5602            0.0000000000
     16806      5602  TIP3      H2            -15.9880066405       37.8406177139      -26.4881096465  W2        5602            0.0000000000
     16807      5603  TIP3      OH2             1.3382333595       38.3047577139      -24.3721896465  W2        5603            0.0000000000
     16808      5603  TIP3      H1              1.3169033595       38.4895977139      -23.4332496465  W2        5603            0.0000000000
     16809      5603  TIP3      H2              2.0288533595       38.8731577139      -24.7130496465  W2        5603            0.0000000000
     16810      5604  TIP3      OH2             0.9015233595       37.8718677139      -21.4502796465  W2        5604            0.0000000000
     16811      5604  TIP3      H1              0.4143933595       37.1362777139      -21.8215396465  W2        5604            0.0000000000
     16812      5604  TIP3      H2              1.4507933595       37.4782577139      -20.7723396465  W2        5604            0.0000000000
     16813      5605  TIP3      OH2            -0.6477466405       33.6616777139      -16.8122496465  W2        5605            0.0000000000
     16814      5605  TIP3      H1             -1.5136366405       33.5566477139      -16.4180196465  W2        5605            0.0000000000
     16815      5605  TIP3      H2             -0.2711566405       34.4200077139      -16.3657796465  W2        5605            0.0000000000
     16816      5606  TIP3      OH2             0.6532233595       31.9180477139      -31.2979996465  W2        5606            0.0000000000
     16817      5606  TIP3      H1              1.5033633595       32.3391377139      -31.1708396465  W2        5606            0.0000000000
     16818      5606  TIP3      H2              0.6587333595       31.1780577139      -30.6908596465  W2        5606            0.0000000000
     16819      5607  TIP3      OH2             1.0477833595       29.9717877139      -29.4744296465  W2        5607            0.0000000000
     16820      5607  TIP3      H1              0.3212433595       29.4920477139      -29.0766696465  W2        5607            0.0000000000
     16821      5607  TIP3      H2              1.6291133595       30.1772577139      -28.7422696465  W2        5607            0.0000000000
     16822      5608  TIP3      OH2             0.8069033595       32.7565377139      -24.5266696465  W2        5608            0.0000000000
     16823      5608  TIP3      H1              1.6403233595       32.3785377139      -24.8073096465  W2        5608            0.0000000000
     16824      5608  TIP3      H2              0.9189333595       33.6996577139      -24.6457596465  W2        5608            0.0000000000
     16825      5609  TIP3      OH2            -0.7068666405       35.6342877139      -22.2198296465  W2        5609            0.0000000000
     16826      5609  TIP3      H1             -1.3543366405       35.9594377139      -21.5943096465  W2        5609            0.0000000000
     16827      5609  TIP3      H2             -1.2244666405       35.1940577139      -22.8939996465  W2        5609            0.0000000000
     16828      5610  TIP3      OH2             1.3160933595       29.8726377139      -33.0832996465  W2        5610            0.0000000000
     16829      5610  TIP3      H1              0.7942033595       30.2290477139      -33.8022096465  W2        5610            0.0000000000
     16830      5610  TIP3      H2              1.2830133595       30.5474177139      -32.4052096465  W2        5610            0.0000000000
     16831      5611  TIP3      OH2            -0.3350066405       27.1121977139      -34.5325896465  W2        5611            0.0000000000
     16832      5611  TIP3      H1             -0.2385666405       27.7788977139      -35.2126196465  W2        5611            0.0000000000
     16833      5611  TIP3      H2             -0.4750466405       26.2968277139      -35.0140396465  W2        5611            0.0000000000
     16834      5612  TIP3      OH2            -1.1655366405       28.4924377139      -28.9115596465  W2        5612            0.0000000000
     16835      5612  TIP3      H1             -1.3156566405       27.5472977139      -28.9317796465  W2        5612            0.0000000000
     16836      5612  TIP3      H2             -1.5190866405       28.7735777139      -28.0676496465  W2        5612            0.0000000000
     16837      5613  TIP3      OH2           -16.1302966405       30.5706577139      -24.9011796465  W2        5613            0.0000000000
     16838      5613  TIP3      H1            -15.9460066405       30.4888277139      -25.8368896465  W2        5613            0.0000000000
     16839      5613  TIP3      H2            -15.2810066405       30.4463577139      -24.4775396465  W2        5613            0.0000000000
     16840      5614  TIP3      OH2            -0.3092466405       30.4627677139      -19.2727296465  W2        5614            0.0000000000
     16841      5614  TIP3      H1              0.2734833595       29.7279977139      -19.0810096465  W2        5614            0.0000000000
     16842      5614  TIP3      H2              0.2546833595       31.2347977139      -19.2261496465  W2        5614            0.0000000000
     16843      5615  TIP3      OH2             1.1874633595       28.3653477139      -18.5881896465  W2        5615            0.0000000000
     16844      5615  TIP3      H1              0.3241333595       27.9865577139      -18.7537196465  W2        5615            0.0000000000
     16845      5615  TIP3      H2              1.7918333595       27.6268277139      -18.6626096465  W2        5615            0.0000000000
     16846      5616  TIP3      OH2            -1.0876266405       24.5201777139      -35.4150396465  W2        5616            0.0000000000
     16847      5616  TIP3      H1             -0.4770466405       24.1488577139      -34.7782196465  W2        5616            0.0000000000
     16848      5616  TIP3      H2             -1.9244766405       24.0988677139      -35.2190396465  W2        5616            0.0000000000
     16849      5617  TIP3      OH2            -1.4550566405       26.0750177139      -30.4490496465  W2        5617            0.0000000000
     16850      5617  TIP3      H1             -1.1753466405       25.1680577139      -30.3248796465  W2        5617            0.0000000000
     16851      5617  TIP3      H2             -0.6958866405       26.5091677139      -30.8381296465  W2        5617            0.0000000000
     16852      5618  TIP3      OH2            -0.8432266405       26.6567577139      -25.0131596465  W2        5618            0.0000000000
     16853      5618  TIP3      H1              0.0895733595       26.8687477139      -25.0475596465  W2        5618            0.0000000000
     16854      5618  TIP3      H2             -1.0784766405       26.7579677139      -24.0908596465  W2        5618            0.0000000000
     16855      5619  TIP3      OH2            -0.8140366405       27.3932877139      -22.2372196465  W2        5619            0.0000000000
     16856      5619  TIP3      H1             -1.6569066405       27.6613277139      -21.8712396465  W2        5619            0.0000000000
     16857      5619  TIP3      H2             -0.3716066405       28.2154777139      -22.4481096465  W2        5619            0.0000000000
     16858      5620  TIP3      OH2           -16.5328166405       25.8411577139      -18.7602996465  W2        5620            0.0000000000
     16859      5620  TIP3      H1            -15.6133266405       25.7189877139      -18.5239896465  W2        5620            0.0000000000
     16860      5620  TIP3      H2            -16.9823666405       25.0911277139      -18.3709496465  W2        5620            0.0000000000
     16861      5621  TIP3      OH2             1.4691233595       21.3733077139      -16.8837196465  W2        5621            0.0000000000
     16862      5621  TIP3      H1              1.8188233595       20.7196577139      -17.4892496465  W2        5621            0.0000000000
     16863      5621  TIP3      H2              1.6160733595       22.2107177139      -17.3234596465  W2        5621            0.0000000000
     16864      5622  TIP3      OH2            -0.8415766405       23.3379477139      -30.4008496465  W2        5622            0.0000000000
     16865      5622  TIP3      H1             -0.6590766405       22.8890977139      -29.5753496465  W2        5622            0.0000000000
     16866      5622  TIP3      H2             -1.4412866405       22.7533877139      -30.8643896465  W2        5622            0.0000000000
     16867      5623  TIP3      OH2           -15.3115666405       24.1533177139      -25.8690096465  W2        5623            0.0000000000
     16868      5623  TIP3      H1            -14.8664066405       23.3615677139      -25.5670396465  W2        5623            0.0000000000
     16869      5623  TIP3      H2            -14.8452666405       24.8698377139      -25.4384496465  W2        5623            0.0000000000
     16870      5624  TIP3      OH2           -17.0075366405       27.1526177139      -24.7999896465  W2        5624            0.0000000000
     16871      5624  TIP3      H1            -16.5155566405       26.9316677139      -25.5907896465  W2        5624            0.0000000000
     16872      5624  TIP3      H2            -16.6454466405       27.9929577139      -24.5190396465  W2        5624            0.0000000000
     16873      5625  TIP3      OH2             0.9888433595       23.4827677139      -18.5345896465  W2        5625            0.0000000000
     16874      5625  TIP3      H1              0.0714133595       23.7534777139      -18.5702396465  W2        5625            0.0000000000
     16875      5625  TIP3      H2              1.1117833595       22.9476077139      -19.3186196465  W2        5625            0.0000000000
     16876      5626  TIP3      OH2             1.0250433595       23.4057577139      -33.8728196465  W2        5626            0.0000000000
     16877      5626  TIP3      H1              1.4373033595       22.6843277139      -34.3480196465  W2        5626            0.0000000000
     16878      5626  TIP3      H2              1.7066933595       24.0752177139      -33.8143896465  W2        5626            0.0000000000
     16879      5627  TIP3      OH2           -16.6938866405       23.4105277139      -30.7457496465  W2        5627            0.0000000000
     16880      5627  TIP3      H1            -17.6190466405       23.6191877139      -30.8751996465  W2        5627            0.0000000000
     16881      5627  TIP3      H2            -16.2398966405       23.8946077139      -31.4355196465  W2        5627            0.0000000000
     16882      5628  TIP3      OH2            -1.9231666405       38.3946977139      -28.8000096465  W2        5628            0.0000000000
     16883      5628  TIP3      H1             -1.2708766405       38.0469077139      -29.4080996465  W2        5628            0.0000000000
     16884      5628  TIP3      H2             -1.4127866405       38.8830177139      -28.1540396465  W2        5628            0.0000000000
     16885      5629  TIP3      OH2           -16.7303466405       22.1484277139      -22.4014996465  W2        5629            0.0000000000
     16886      5629  TIP3      H1            -17.3952966405       21.9024577139      -21.7584096465  W2        5629            0.0000000000
     16887      5629  TIP3      H2            -17.1732166405       22.7704677139      -22.9786996465  W2        5629            0.0000000000
     16888      5630  TIP3      OH2           -14.5384166405       35.3238377139      -18.2569196465  W2        5630            0.0000000000
     16889      5630  TIP3      H1            -15.3591666405       35.4984877139      -18.7174496465  W2        5630            0.0000000000
     16890      5630  TIP3      H2            -14.7906366405       35.2503077139      -17.3364796465  W2        5630            0.0000000000
     16891      5631  TIP3      OH2           -11.5841266405       36.2979577139      -21.9985196465  W2        5631            0.0000000000
     16892      5631  TIP3      H1            -12.0090166405       37.1078077139      -22.2810596465  W2        5631            0.0000000000
     16893      5631  TIP3      H2            -10.6798466405       36.3833677139      -22.3005396465  W2        5631            0.0000000000
     16894      5632  TIP3      OH2            -7.2729866405       37.6969577139      -19.0391496465  W2        5632            0.0000000000
     16895      5632  TIP3      H1             -7.0882366405       37.3635677139      -18.1611196465  W2        5632            0.0000000000
     16896      5632  TIP3      H2             -6.4265366405       38.0068177139      -19.3612296465  W2        5632            0.0000000000
     16897      5633  TIP3      OH2            -4.9279466405       38.9828477139      -19.7950096465  W2        5633            0.0000000000
     16898      5633  TIP3      H1             -4.2510566405       38.3500777139      -20.0350896465  W2        5633            0.0000000000
     16899      5633  TIP3      H2             -4.6060666405       39.3838977139      -18.9876796465  W2        5633            0.0000000000
     16900      5634  TIP3      OH2            -0.0105666405       21.5723977139      -20.7155096465  W2        5634            0.0000000000
     16901      5634  TIP3      H1             -0.8232166405       21.8974277139      -21.1030396465  W2        5634            0.0000000000
     16902      5634  TIP3      H2              0.2222833595       20.8122477139      -21.2485996465  W2        5634            0.0000000000
     16903      5635  TIP3      OH2           -14.1824566405       39.5543477139      -21.9509896465  W2        5635            0.0000000000
     16904      5635  TIP3      H1            -14.9028166405       39.9944477139      -22.4022196465  W2        5635            0.0000000000
     16905      5635  TIP3      H2            -14.5480566405       39.3038177139      -21.1025896465  W2        5635            0.0000000000
     16906      5636  TIP3      OH2           -11.7151966405       39.1547377139      -22.9212696465  W2        5636            0.0000000000
     16907      5636  TIP3      H1            -12.5799766405       39.2265877139      -22.5172596465  W2        5636            0.0000000000
     16908      5636  TIP3      H2            -11.7702966405       39.7014677139      -23.7050196465  W2        5636            0.0000000000
     16909      5637  TIP3      OH2            -7.0046366405       39.0426277139      -23.7456696465  W2        5637            0.0000000000
     16910      5637  TIP3      H1             -7.4612366405       39.5715977139      -24.3998296465  W2        5637            0.0000000000
     16911      5637  TIP3      H2             -6.8418366405       39.6457677139      -23.0204396465  W2        5637            0.0000000000
     16912      5638  TIP3      OH2            -4.6770066405       37.9205877139      -22.8006396465  W2        5638            0.0000000000
     16913      5638  TIP3      H1             -5.5816366405       38.0856077139      -23.0664296465  W2        5638            0.0000000000
     16914      5638  TIP3      H2             -4.2481466405       38.7738077139      -22.8662996465  W2        5638            0.0000000000
     16915      5639  TIP3      OH2            -2.0728166405       39.4904977139      -22.5058596465  W2        5639            0.0000000000
     16916      5639  TIP3      H1             -2.2546166405       40.4063877139      -22.7163696465  W2        5639            0.0000000000
     16917      5639  TIP3      H2             -1.8960366405       39.0802077139      -23.3523996465  W2        5639            0.0000000000
     16918      5640  TIP3      OH2           -14.7676466405       38.1775977139      -25.0408096465  W2        5640            0.0000000000
     16919      5640  TIP3      H1            -14.7860466405       37.7521077139      -24.1835796465  W2        5640            0.0000000000
     16920      5640  TIP3      H2            -13.9628566405       37.8590977139      -25.4495896465  W2        5640            0.0000000000
     16921      5641  TIP3      OH2           -12.6263366405       36.8874677139      -26.3858196465  W2        5641            0.0000000000
     16922      5641  TIP3      H1            -12.8452666405       35.9712077139      -26.2162196465  W2        5641            0.0000000000
     16923      5641  TIP3      H2            -11.8021166405       37.0275077139      -25.9196796465  W2        5641            0.0000000000
     16924      5642  TIP3      OH2           -10.0890866405       37.3573977139      -25.5370196465  W2        5642            0.0000000000
     16925      5642  TIP3      H1             -9.8765166405       36.4692977139      -25.8239296465  W2        5642            0.0000000000
     16926      5642  TIP3      H2            -10.0245766405       37.3231677139      -24.5826196465  W2        5642            0.0000000000
     16927      5643  TIP3      OH2            -6.5807166405       23.0214577139      -26.3926896465  W2        5643            0.0000000000
     16928      5643  TIP3      H1             -7.2550366405       22.3920177139      -26.1371096465  W2        5643            0.0000000000
     16929      5643  TIP3      H2             -6.0167966405       22.5373477139      -26.9958996465  W2        5643            0.0000000000
     16930      5644  TIP3      OH2            -1.4379966405       21.1288577139      -26.2799796465  W2        5644            0.0000000000
     16931      5644  TIP3      H1             -0.8342366405       21.6763977139      -26.7818796465  W2        5644            0.0000000000
     16932      5644  TIP3      H2             -2.3077966405       21.4478977139      -26.5205696465  W2        5644            0.0000000000
     16933      5645  TIP3      OH2             0.2890433595       22.2677277139      -27.9468896465  W2        5645            0.0000000000
     16934      5645  TIP3      H1              0.9007933595       21.7532977139      -28.4735296465  W2        5645            0.0000000000
     16935      5645  TIP3      H2              0.6713833595       23.1449377139      -27.9234496465  W2        5645            0.0000000000
     16936      5646  TIP3      OH2           -14.2539666405       21.6554877139      -28.5706996465  W2        5646            0.0000000000
     16937      5646  TIP3      H1            -15.0309866405       21.4209777139      -29.0781096465  W2        5646            0.0000000000
     16938      5646  TIP3      H2            -13.7236066405       20.8586977139      -28.5618996465  W2        5646            0.0000000000
     16939      5647  TIP3      OH2           -15.4176266405       21.4532977139      -32.7670896465  W2        5647            0.0000000000
     16940      5647  TIP3      H1            -14.9785566405       22.0643477139      -33.3587396465  W2        5647            0.0000000000
     16941      5647  TIP3      H2            -16.0513866405       21.9917077139      -32.2930896465  W2        5647            0.0000000000
     16942      5648  TIP3      OH2            -9.6747066405       21.5821977139      -28.7573896465  W2        5648            0.0000000000
     16943      5648  TIP3      H1             -8.8003666405       21.9706277139      -28.7869596465  W2        5648            0.0000000000
     16944      5648  TIP3      H2             -9.8106266405       21.3669777139      -27.8346696465  W2        5648            0.0000000000
     16945      5649  TIP3      OH2            -4.1178666405       21.6121777139      -27.1082196465  W2        5649            0.0000000000
     16946      5649  TIP3      H1             -4.0417066405       21.7073377139      -28.0576196465  W2        5649            0.0000000000
     16947      5649  TIP3      H2             -4.3929466405       20.7044677139      -26.9793096465  W2        5649            0.0000000000
     16948      5650  TIP3      OH2            -2.7646066405       21.6379577139      -31.4157196465  W2        5650            0.0000000000
     16949      5650  TIP3      H1             -3.4674966405       22.2528777139      -31.6255796465  W2        5650            0.0000000000
     16950      5650  TIP3      H2             -3.2094666405       20.8006277139      -31.2846296465  W2        5650            0.0000000000
     16951      5651  TIP3      OH2           -15.5166766405       37.4015177139      -31.8695796465  W2        5651            0.0000000000
     16952      5651  TIP3      H1            -16.2016866405       37.3634077139      -32.5370696465  W2        5651            0.0000000000
     16953      5651  TIP3      H2            -15.5129566405       38.3142777139      -31.5813696465  W2        5651            0.0000000000
     16954      5652  TIP3      OH2           -13.5567166405       23.3694477139      -34.3246796465  W2        5652            0.0000000000
     16955      5652  TIP3      H1            -13.0653766405       22.7396877139      -34.8521296465  W2        5652            0.0000000000
     16956      5652  TIP3      H2            -12.9330866405       23.6653877139      -33.6615596465  W2        5652            0.0000000000
     16957      5653  TIP3      OH2            -8.5307066405       23.6625977139      -31.8676296465  W2        5653            0.0000000000
     16958      5653  TIP3      H1             -8.3525766405       23.0159177139      -31.1847696465  W2        5653            0.0000000000
     16959      5653  TIP3      H2             -8.5840866405       24.4963677139      -31.4005196465  W2        5653            0.0000000000
     16960      5654  TIP3      OH2            -6.6523266405       38.6110077139      -33.4719596465  W2        5654            0.0000000000
     16961      5654  TIP3      H1             -5.7863066405       38.9777477139      -33.6501396465  W2        5654            0.0000000000
     16962      5654  TIP3      H2             -6.8990466405       38.1718077139      -34.2858796465  W2        5654            0.0000000000
     16963      5655  TIP3      OH2             0.0566333595       38.1740377139      -30.7928496465  W2        5655            0.0000000000
     16964      5655  TIP3      H1             -0.1376566405       37.4262477139      -31.3578896465  W2        5655            0.0000000000
     16965      5655  TIP3      H2              0.0176433595       38.9320477139      -31.3760596465  W2        5655            0.0000000000
     16966      5656  TIP3      OH2           -14.2961666405       22.1696777139      -19.0530796465  W2        5656            0.0000000000
     16967      5656  TIP3      H1            -14.6623466405       21.4039377139      -18.6106096465  W2        5656            0.0000000000
     16968      5656  TIP3      H2            -13.3833166405       22.1986977139      -18.7665696465  W2        5656            0.0000000000
     16969      5657  TIP3      OH2           -12.3230866405       21.5201177139      -17.5173696465  W2        5657            0.0000000000
     16970      5657  TIP3      H1            -11.4247266405       21.2461377139      -17.7020296465  W2        5657            0.0000000000
     16971      5657  TIP3      H2            -12.7097766405       20.7777177139      -17.0531096465  W2        5657            0.0000000000
     16972      5658  TIP3      OH2           -13.6985566405       38.3215977139      -34.8443696465  W2        5658            0.0000000000
     16973      5658  TIP3      H1            -13.9660966405       38.6078877139      -33.9710596465  W2        5658            0.0000000000
     16974      5658  TIP3      H2            -12.9272966405       37.7755177139      -34.6921196465  W2        5658            0.0000000000
     16975      5659  TIP3      OH2            -3.9018566405       20.8526477139      -17.3350896465  W2        5659            0.0000000000
     16976      5659  TIP3      H1             -3.8251366405       20.4267177139      -16.4813196465  W2        5659            0.0000000000
     16977      5659  TIP3      H2             -3.0081966405       20.8661177139      -17.6777396465  W2        5659            0.0000000000
     16978      5660  TIP3      OH2            -0.7257466405       36.9252777139      -18.6426696465  W2        5660            0.0000000000
     16979      5660  TIP3      H1             -1.5075566405       36.7390777139      -19.1626096465  W2        5660            0.0000000000
     16980      5660  TIP3      H2             -0.7977566405       37.8547077139      -18.4254196465  W2        5660            0.0000000000
     16981      5661  TIP3      OH2            13.6802933595       30.8117177139      -28.6119496465  W2        5661            0.0000000000
     16982      5661  TIP3      H1             13.7694033595       31.7555377139      -28.7442396465  W2        5661            0.0000000000
     16983      5661  TIP3      H2             13.0420533595       30.5363577139      -29.2700096465  W2        5661            0.0000000000
     16984      5662  TIP3      OH2            12.6134233595       30.0667877139      -25.1931296465  W2        5662            0.0000000000
     16985      5662  TIP3      H1             12.5751733595       29.4204177139      -24.4881696465  W2        5662            0.0000000000
     16986      5662  TIP3      H2             12.2910733595       29.6002277139      -25.9642596465  W2        5662            0.0000000000
     16987      5663  TIP3      OH2             4.9819233595       29.6809977139      -23.6001396465  W2        5663            0.0000000000
     16988      5663  TIP3      H1              5.0231333595       29.0553277139      -22.8768996465  W2        5663            0.0000000000
     16989      5663  TIP3      H2              5.6846933595       30.3048577139      -23.4180996465  W2        5663            0.0000000000
     16990      5664  TIP3      OH2            16.3194433595       33.0058277139      -26.8916196465  W2        5664            0.0000000000
     16991      5664  TIP3      H1             15.8787133595       32.2854277139      -26.4410596465  W2        5664            0.0000000000
     16992      5664  TIP3      H2             16.3064133595       33.7265477139      -26.2618496465  W2        5664            0.0000000000
     16993      5665  TIP3      OH2             5.9052333595       34.1308877139      -25.0652296465  W2        5665            0.0000000000
     16994      5665  TIP3      H1              5.5357533595       33.3289377139      -25.4347996465  W2        5665            0.0000000000
     16995      5665  TIP3      H2              6.8463433595       33.9623777139      -25.0188896465  W2        5665            0.0000000000
     16996      5666  TIP3      OH2             2.5152833595       27.7911477139      -29.6723496465  W2        5666            0.0000000000
     16997      5666  TIP3      H1              2.0676233595       28.6370177139      -29.6906996465  W2        5666            0.0000000000
     16998      5666  TIP3      H2              1.9544033595       27.2115677139      -30.1878396465  W2        5666            0.0000000000
     16999      5667  TIP3      OH2             3.2258933595       29.9531077139      -27.5465496465  W2        5667            0.0000000000
     17000      5667  TIP3      H1              3.4392433595       29.1832677139      -27.0192496465  W2        5667            0.0000000000
     17001      5667  TIP3      H2              3.9636533595       30.0427777139      -28.1497896465  W2        5667            0.0000000000
     17002      5668  TIP3      OH2            13.4309933595       38.1099977139      -26.6795796465  W2        5668            0.0000000000
     17003      5668  TIP3      H1             14.0506333595       37.4334677139      -26.9526596465  W2        5668            0.0000000000
     17004      5668  TIP3      H2             13.2227333595       37.8920777139      -25.7710896465  W2        5668            0.0000000000
     17005      5669  TIP3      OH2            11.0028633595       32.4989277139      -24.7870296465  W2        5669            0.0000000000
     17006      5669  TIP3      H1             11.3066533595       31.8130677139      -25.3816196465  W2        5669            0.0000000000
     17007      5669  TIP3      H2             11.7242633595       32.6177977139      -24.1692296465  W2        5669            0.0000000000
     17008      5670  TIP3      OH2            19.6658433595       24.1004577139      -23.9264096465  W2        5670            0.0000000000
     17009      5670  TIP3      H1             19.7150633595       24.7105777139      -23.1904996465  W2        5670            0.0000000000
     17010      5670  TIP3      H2             20.0913533595       24.5615477139      -24.6492996465  W2        5670            0.0000000000
     17011      5671  TIP3      OH2            14.1435633595       26.8931677139      -24.4595496465  W2        5671            0.0000000000
     17012      5671  TIP3      H1             14.2861533595       25.9468677139      -24.4393896465  W2        5671            0.0000000000
     17013      5671  TIP3      H2             14.0374633595       27.1001477139      -25.3880596465  W2        5671            0.0000000000
     17014      5672  TIP3      OH2             7.2983933595       24.9948077139      -27.1870696465  W2        5672            0.0000000000
     17015      5672  TIP3      H1              7.3415033595       25.8546577139      -27.6054396465  W2        5672            0.0000000000
     17016      5672  TIP3      H2              6.8408033595       24.4422777139      -27.8207496465  W2        5672            0.0000000000
     17017      5673  TIP3      OH2            15.0206633595       25.1253677139      -28.7862396465  W2        5673            0.0000000000
     17018      5673  TIP3      H1             15.6670933595       24.7966877139      -28.1614796465  W2        5673            0.0000000000
     17019      5673  TIP3      H2             15.5306033595       25.6432677139      -29.4090996465  W2        5673            0.0000000000
     17020      5674  TIP3      OH2             3.9185433595       27.3913877139      -26.4249296465  W2        5674            0.0000000000
     17021      5674  TIP3      H1              4.5722033595       26.8415577139      -25.9929196465  W2        5674            0.0000000000
     17022      5674  TIP3      H2              3.9424733595       27.1172877139      -27.3417296465  W2        5674            0.0000000000
     17023      5675  TIP3      OH2             9.0749933595       28.9415177139      -27.2097796465  W2        5675            0.0000000000
     17024      5675  TIP3      H1              9.6910933595       28.4150577139      -26.7003796465  W2        5675            0.0000000000
     17025      5675  TIP3      H2              8.4888733595       28.3013877139      -27.6134196465  W2        5675            0.0000000000
     17026      5676  TIP3      OH2            20.0573033595       25.5783777139      -21.6904296465  W2        5676            0.0000000000
     17027      5676  TIP3      H1             19.3687633595       26.2364477139      -21.7857696465  W2        5676            0.0000000000
     17028      5676  TIP3      H2             20.0727633595       25.3811677139      -20.7538896465  W2        5676            0.0000000000
     17029      5677  TIP3      OH2             6.1085833595       23.9126477139      -23.1129896465  W2        5677            0.0000000000
     17030      5677  TIP3      H1              5.8897533595       24.4427077139      -23.8793896465  W2        5677            0.0000000000
     17031      5677  TIP3      H2              5.4406733595       24.1391977139      -22.4658496465  W2        5677            0.0000000000
     17032      5678  TIP3      OH2            13.4775633595       33.4127577139      -29.5690796465  W2        5678            0.0000000000
     17033      5678  TIP3      H1             13.1820733595       33.0899877139      -30.4203896465  W2        5678            0.0000000000
     17034      5678  TIP3      H2             13.1533433595       34.3124277139      -29.5278196465  W2        5678            0.0000000000
     17035      5679  TIP3      OH2             8.6777233595       31.5882177139      -22.8256196465  W2        5679            0.0000000000
     17036      5679  TIP3      H1              7.9376333595       32.1863677139      -22.7220996465  W2        5679            0.0000000000
     17037      5679  TIP3      H2              9.3916733595       32.1421777139      -23.1412596465  W2        5679            0.0000000000
     17038      5680  TIP3      OH2            16.7845033595       24.4162977139      -26.8056496465  W2        5680            0.0000000000
     17039      5680  TIP3      H1             16.5693033595       23.6506377139      -26.2730496465  W2        5680            0.0000000000
     17040      5680  TIP3      H2             17.4402433595       24.8887577139      -26.2927996465  W2        5680            0.0000000000
     17041      5681  TIP3      OH2             5.7023133595       25.8048277139      -25.1607696465  W2        5681            0.0000000000
     17042      5681  TIP3      H1              6.3159433595       26.4375877139      -24.7875296465  W2        5681            0.0000000000
     17043      5681  TIP3      H2              6.2143833595       25.3323277139      -25.8170796465  W2        5681            0.0000000000
     17044      5682  TIP3      OH2             7.0851533595       33.5525177139      -22.0384696465  W2        5682            0.0000000000
     17045      5682  TIP3      H1              7.0799133595       34.4318677139      -22.4165396465  W2        5682            0.0000000000
     17046      5682  TIP3      H2              6.2315633595       33.4689277139      -21.6134796465  W2        5682            0.0000000000
     17047      5683  TIP3      OH2             3.2062433595       33.2233077139      -31.2565396465  W2        5683            0.0000000000
     17048      5683  TIP3      H1              2.9343333595       33.4524077139      -32.1452496465  W2        5683            0.0000000000
     17049      5683  TIP3      H2              3.2518133595       34.0611877139      -30.7960096465  W2        5683            0.0000000000
     17050      5684  TIP3      OH2            16.8312133595       34.8448977139      -24.5436896465  W2        5684            0.0000000000
     17051      5684  TIP3      H1             15.8895833595       34.9032877139      -24.3819996465  W2        5684            0.0000000000
     17052      5684  TIP3      H2             17.1078233595       35.7509477139      -24.6807196465  W2        5684            0.0000000000
     17053      5685  TIP3      OH2            17.1319133595       23.1314277139      -23.1262996465  W2        5685            0.0000000000
     17054      5685  TIP3      H1             16.3958333595       23.7421377139      -23.1641696465  W2        5685            0.0000000000
     17055      5685  TIP3      H2             17.8153133595       23.5463277139      -23.6526596465  W2        5685            0.0000000000
     17056      5686  TIP3      OH2            10.1350533595       21.2181577139      -25.6604996465  W2        5686            0.0000000000
     17057      5686  TIP3      H1             10.0174733595       20.2697577139      -25.7146696465  W2        5686            0.0000000000
     17058      5686  TIP3      H2              9.2800633595       21.5507677139      -25.3873896465  W2        5686            0.0000000000
     17059      5687  TIP3      OH2            15.0833333595       36.6262477139      -27.9185296465  W2        5687            0.0000000000
     17060      5687  TIP3      H1             15.5085633595       35.9190377139      -28.4035696465  W2        5687            0.0000000000
     17061      5687  TIP3      H2             15.4003333595       37.4275177139      -28.3353096465  W2        5687            0.0000000000
     17062      5688  TIP3      OH2            16.2429833595       34.5270977139      -29.4098696465  W2        5688            0.0000000000
     17063      5688  TIP3      H1             15.9854633595       33.8371077139      -30.0212796465  W2        5688            0.0000000000
     17064      5688  TIP3      H2             16.3140633595       34.0842177139      -28.5642796465  W2        5688            0.0000000000
     17065      5689  TIP3      OH2            17.9290033595       33.0937677139      -20.9325196465  W2        5689            0.0000000000
     17066      5689  TIP3      H1             18.0686333595       32.5020177139      -21.6718196465  W2        5689            0.0000000000
     17067      5689  TIP3      H2             18.0962833595       33.9663577139      -21.2886396465  W2        5689            0.0000000000
     17068      5690  TIP3      OH2            12.4015433595       30.0557177139      -31.1599196465  W2        5690            0.0000000000
     17069      5690  TIP3      H1             11.6900933595       30.5906877139      -31.5118696465  W2        5690            0.0000000000
     17070      5690  TIP3      H2             13.0925033595       30.1109277139      -31.8200296465  W2        5690            0.0000000000
     17071      5691  TIP3      OH2            12.4554633595       28.5131477139      -34.1214196465  W2        5691            0.0000000000
     17072      5691  TIP3      H1             13.1564533595       28.5358377139      -33.4700196465  W2        5691            0.0000000000
     17073      5691  TIP3      H2             12.7577533595       27.8851177139      -34.7774896465  W2        5691            0.0000000000
     17074      5692  TIP3      OH2            19.7709333595       29.4335677139      -22.8664796465  W2        5692            0.0000000000
     17075      5692  TIP3      H1             19.1183433595       30.1281277139      -22.7773896465  W2        5692            0.0000000000
     17076      5692  TIP3      H2             20.2359633595       29.6436577139      -23.6763196465  W2        5692            0.0000000000
     17077      5693  TIP3      OH2            15.8073133595       30.2650477139      -30.2083296465  W2        5693            0.0000000000
     17078      5693  TIP3      H1             15.0754133595       30.4934177139      -29.6352696465  W2        5693            0.0000000000
     17079      5693  TIP3      H2             16.2545333595       29.5513177139      -29.7535796465  W2        5693            0.0000000000
     17080      5694  TIP3      OH2            15.7046633595       28.4393077139      -21.1406296465  W2        5694            0.0000000000
     17081      5694  TIP3      H1             15.7845733595       29.2027477139      -20.5687796465  W2        5694            0.0000000000
     17082      5694  TIP3      H2             15.1034333595       28.7185477139      -21.8311196465  W2        5694            0.0000000000
     17083      5695  TIP3      OH2             7.4526833595       30.8956677139      -28.3258296465  W2        5695            0.0000000000
     17084      5695  TIP3      H1              7.1222033595       30.5250077139      -29.1441296465  W2        5695            0.0000000000
     17085      5695  TIP3      H2              8.0410933595       30.2250677139      -27.9789996465  W2        5695            0.0000000000
     17086      5696  TIP3      OH2             8.8194333595       34.3237277139      -25.6446096465  W2        5696            0.0000000000
     17087      5696  TIP3      H1              8.7245633595       33.7450377139      -26.4011496465  W2        5696            0.0000000000
     17088      5696  TIP3      H2              9.5487933595       33.9522977139      -25.1483296465  W2        5696            0.0000000000
     17089      5697  TIP3      OH2             7.8192333595       29.6642277139      -24.6923296465  W2        5697            0.0000000000
     17090      5697  TIP3      H1              8.3844833595       29.7856477139      -25.4552096465  W2        5697            0.0000000000
     17091      5697  TIP3      H2              8.1381233595       30.3017277139      -24.0534796465  W2        5697            0.0000000000
     17092      5698  TIP3      OH2            14.1284533595       35.1674177139      -23.9582796465  W2        5698            0.0000000000
     17093      5698  TIP3      H1             13.8881133595       35.8297277139      -23.3103596465  W2        5698            0.0000000000
     17094      5698  TIP3      H2             13.9302733595       34.3329377139      -23.5333196465  W2        5698            0.0000000000
     17095      5699  TIP3      OH2             8.6993033595       34.0634977139      -19.9751396465  W2        5699            0.0000000000
     17096      5699  TIP3      H1              8.3880533595       34.8458177139      -19.5198196465  W2        5699            0.0000000000
     17097      5699  TIP3      H2              8.0493233595       33.9104077139      -20.6609396465  W2        5699            0.0000000000
     17098      5700  TIP3      OH2            14.6782633595       29.4273377139      -32.5232096465  W2        5700            0.0000000000
     17099      5700  TIP3      H1             15.2578133595       29.5773677139      -31.7763196465  W2        5700            0.0000000000
     17100      5700  TIP3      H2             15.0922633595       29.8980777139      -33.2465696465  W2        5700            0.0000000000
     17101      5701  TIP3      OH2             5.6192933595       30.2616077139      -20.7465696465  W2        5701            0.0000000000
     17102      5701  TIP3      H1              5.6896133595       30.9122877139      -20.0480696465  W2        5701            0.0000000000
     17103      5701  TIP3      H2              4.7285133595       30.3643577139      -21.0814796465  W2        5701            0.0000000000
     17104      5702  TIP3      OH2            12.4047533595       36.1641877139      -29.0878996465  W2        5702            0.0000000000
     17105      5702  TIP3      H1             12.8785133595       36.4598177139      -28.3104796465  W2        5702            0.0000000000
     17106      5702  TIP3      H2             11.8416833595       36.9023477139      -29.3209396465  W2        5702            0.0000000000
     17107      5703  TIP3      OH2             6.9388933595       36.1349977139      -19.2117596465  W2        5703            0.0000000000
     17108      5703  TIP3      H1              6.9464233595       35.9989677139      -20.1592096465  W2        5703            0.0000000000
     17109      5703  TIP3      H2              6.0229333595       36.0178077139      -18.9597596465  W2        5703            0.0000000000
     17110      5704  TIP3      OH2            18.3771033595       21.1773777139      -32.7102396465  W2        5704            0.0000000000
     17111      5704  TIP3      H1             17.4771733595       21.3162777139      -32.4151796465  W2        5704            0.0000000000
     17112      5704  TIP3      H2             18.6289433595       22.0088377139      -33.1120696465  W2        5704            0.0000000000
     17113      5705  TIP3      OH2             6.4429533595       29.9650977139      -30.7365496465  W2        5705            0.0000000000
     17114      5705  TIP3      H1              6.1510833595       30.7332677139      -31.2274196465  W2        5705            0.0000000000
     17115      5705  TIP3      H2              5.7684733595       29.3057177139      -30.8994096465  W2        5705            0.0000000000
     17116      5706  TIP3      OH2            19.5662433595       35.5436177139      -34.3338496465  W2        5706            0.0000000000
     17117      5706  TIP3      H1             19.6395933595       36.4826377139      -34.1633196465  W2        5706            0.0000000000
     17118      5706  TIP3      H2             20.4717533595       35.2384777139      -34.3901196465  W2        5706            0.0000000000
     17119      5707  TIP3      OH2             2.5359633595       32.3280177139      -21.9215696465  W2        5707            0.0000000000
     17120      5707  TIP3      H1              2.0348033595       32.2999577139      -22.7365996465  W2        5707            0.0000000000
     17121      5707  TIP3      H2              2.5413333595       31.4223377139      -21.6118396465  W2        5707            0.0000000000
     17122      5708  TIP3      OH2             2.2862333595       35.1083977139      -25.0375496465  W2        5708            0.0000000000
     17123      5708  TIP3      H1              3.2322933595       34.9640977139      -25.0565996465  W2        5708            0.0000000000
     17124      5708  TIP3      H2              2.1738633595       35.8926777139      -24.5004296465  W2        5708            0.0000000000
     17125      5709  TIP3      OH2            20.4840833595       35.7743677139      -19.3551796465  W2        5709            0.0000000000
     17126      5709  TIP3      H1             20.4347633595       34.8191777139      -19.3924196465  W2        5709            0.0000000000
     17127      5709  TIP3      H2             19.6573133595       36.0418977139      -18.9537996465  W2        5709            0.0000000000
     17128      5710  TIP3      OH2            11.4624833595       35.3482877139      -20.4790396465  W2        5710            0.0000000000
     17129      5710  TIP3      H1             11.5499433595       36.1747477139      -20.0041296465  W2        5710            0.0000000000
     17130      5710  TIP3      H2             10.5989933595       35.0186677139      -20.2301096465  W2        5710            0.0000000000
     17131      5711  TIP3      OH2            11.8770633595       39.1206577139      -30.6729796465  W2        5711            0.0000000000
     17132      5711  TIP3      H1             11.8016633595       38.9993777139      -31.6194596465  W2        5711            0.0000000000
     17133      5711  TIP3      H2             11.9099333595       40.0699277139      -30.5545196465  W2        5711            0.0000000000
     17134      5712  TIP3      OH2             5.5304433595       37.9093577139      -28.8920796465  W2        5712            0.0000000000
     17135      5712  TIP3      H1              5.6824833595       37.5613977139      -28.0134296465  W2        5712            0.0000000000
     17136      5712  TIP3      H2              4.6794833595       37.5530877139      -29.1473596465  W2        5712            0.0000000000
     17137      5713  TIP3      OH2            14.9786633595       38.2746777139      -33.6707396465  W2        5713            0.0000000000
     17138      5713  TIP3      H1             15.3535033595       37.5302877139      -34.1414796465  W2        5713            0.0000000000
     17139      5713  TIP3      H2             14.9830333595       38.0047377139      -32.7524096465  W2        5713            0.0000000000
     17140      5714  TIP3      OH2            14.6474733595       38.2003877139      -30.9215196465  W2        5714            0.0000000000
     17141      5714  TIP3      H1             13.7124533595       38.3005777139      -30.7428196465  W2        5714            0.0000000000
     17142      5714  TIP3      H2             14.9276633595       37.4909877139      -30.3431996465  W2        5714            0.0000000000
     17143      5715  TIP3      OH2            17.6360633595       27.2676177139      -18.8749596465  W2        5715            0.0000000000
     17144      5715  TIP3      H1             17.2287433595       27.7481777139      -19.5956296465  W2        5715            0.0000000000
     17145      5715  TIP3      H2             17.6766333595       26.3622177139      -19.1828796465  W2        5715            0.0000000000
     17146      5716  TIP3      OH2             4.7850133595       33.6515577139      -20.8782896465  W2        5716            0.0000000000
     17147      5716  TIP3      H1              5.0011433595       33.2901177139      -20.0187096465  W2        5716            0.0000000000
     17148      5716  TIP3      H2              3.9294833595       33.2769377139      -21.0879396465  W2        5716            0.0000000000
     17149      5717  TIP3      OH2             7.4038133595       22.1216077139      -24.8828696465  W2        5717            0.0000000000
     17150      5717  TIP3      H1              6.5421833595       22.0344277139      -25.2905796465  W2        5717            0.0000000000
     17151      5717  TIP3      H2              7.3813833595       22.9776177139      -24.4551096465  W2        5717            0.0000000000
     17152      5718  TIP3      OH2            12.0665933595       21.8436477139      -21.5081696465  W2        5718            0.0000000000
     17153      5718  TIP3      H1             12.4869033595       21.4283577139      -20.7551096465  W2        5718            0.0000000000
     17154      5718  TIP3      H2             11.1335533595       21.6649777139      -21.3909696465  W2        5718            0.0000000000
     17155      5719  TIP3      OH2            15.3930833595       25.5991677139      -20.6547196465  W2        5719            0.0000000000
     17156      5719  TIP3      H1             14.8790333595       25.4733877139      -19.8571196465  W2        5719            0.0000000000
     17157      5719  TIP3      H2             15.2375533595       26.5114777139      -20.8990996465  W2        5719            0.0000000000
     17158      5720  TIP3      OH2            16.1555733595       30.4601677139      -34.8934196465  W2        5720            0.0000000000
     17159      5720  TIP3      H1             16.1976533595       30.2375577139      -35.8234196465  W2        5720            0.0000000000
     17160      5720  TIP3      H2             17.0047833595       30.8588777139      -34.7034296465  W2        5720            0.0000000000
     17161      5721  TIP3      OH2            11.7283233595       24.3359877139      -34.2230896465  W2        5721            0.0000000000
     17162      5721  TIP3      H1             11.4748033595       24.3551477139      -33.3002796465  W2        5721            0.0000000000
     17163      5721  TIP3      H2             11.4715333595       23.4645277139      -34.5244696465  W2        5721            0.0000000000
     17164      5722  TIP3      OH2             7.4948233595       27.0870577139      -23.7878496465  W2        5722            0.0000000000
     17165      5722  TIP3      H1              6.8530333595       27.0467877139      -23.0788396465  W2        5722            0.0000000000
     17166      5722  TIP3      H2              7.5320233595       28.0135277139      -24.0255496465  W2        5722            0.0000000000
     17167      5723  TIP3      OH2             7.4917333595       27.3080677139      -28.8758496465  W2        5723            0.0000000000
     17168      5723  TIP3      H1              6.5990233595       26.9676777139      -28.9344696465  W2        5723            0.0000000000
     17169      5723  TIP3      H2              7.9423933595       26.9311577139      -29.6315296465  W2        5723            0.0000000000
     17170      5724  TIP3      OH2            13.0272833595       27.7240977139      -30.0587696465  W2        5724            0.0000000000
     17171      5724  TIP3      H1             12.6183133595       28.5389577139      -30.3502896465  W2        5724            0.0000000000
     17172      5724  TIP3      H2             13.7479033595       27.5841077139      -30.6730596465  W2        5724            0.0000000000
     17173      5725  TIP3      OH2            12.1294433595       27.8997377139      -18.5706996465  W2        5725            0.0000000000
     17174      5725  TIP3      H1             11.5668233595       27.1948977139      -18.2499196465  W2        5725            0.0000000000
     17175      5725  TIP3      H2             12.9557833595       27.7789277139      -18.1029396465  W2        5725            0.0000000000
     17176      5726  TIP3      OH2            14.0320533595       27.1701377139      -27.2447996465  W2        5726            0.0000000000
     17177      5726  TIP3      H1             13.8365033595       27.7758177139      -27.9597396465  W2        5726            0.0000000000
     17178      5726  TIP3      H2             14.2133133595       26.3366577139      -27.6791696465  W2        5726            0.0000000000
     17179      5727  TIP3      OH2             5.2448733595       27.4074077139      -21.9206496465  W2        5727            0.0000000000
     17180      5727  TIP3      H1              5.2068133595       27.8075677139      -21.0519396465  W2        5727            0.0000000000
     17181      5727  TIP3      H2              4.7539833595       26.5906477139      -21.8303596465  W2        5727            0.0000000000
     17182      5728  TIP3      OH2             8.6106133595       24.7816377139      -35.1220496465  W2        5728            0.0000000000
     17183      5728  TIP3      H1              8.1796833595       24.3366477139      -34.3923096465  W2        5728            0.0000000000
     17184      5728  TIP3      H2              7.8924833595       25.1532677139      -35.6342996465  W2        5728            0.0000000000
     17185      5729  TIP3      OH2             1.8529533595       24.5235877139      -28.0701796465  W2        5729            0.0000000000
     17186      5729  TIP3      H1              2.4837233595       24.4947977139      -27.3507896465  W2        5729            0.0000000000
     17187      5729  TIP3      H2              2.3023833595       24.0984577139      -28.8005896465  W2        5729            0.0000000000
     17188      5730  TIP3      OH2             3.1271633595       25.2697877139      -32.6461396465  W2        5730            0.0000000000
     17189      5730  TIP3      H1              3.6013333595       25.8607777139      -33.2310496465  W2        5730            0.0000000000
     17190      5730  TIP3      H2              2.4098033595       25.8000777139      -32.2991296465  W2        5730            0.0000000000
     17191      5731  TIP3      OH2            13.2959733595       28.8082677139      -22.5735596465  W2        5731            0.0000000000
     17192      5731  TIP3      H1             13.6194533595       28.1772377139      -23.2165096465  W2        5731            0.0000000000
     17193      5731  TIP3      H2             12.8559033595       28.2734877139      -21.9128196465  W2        5731            0.0000000000
     17194      5732  TIP3      OH2            10.0732633595       24.7358177139      -27.7894396465  W2        5732            0.0000000000
     17195      5732  TIP3      H1              9.1623733595       24.7924977139      -27.5008396465  W2        5732            0.0000000000
     17196      5732  TIP3      H2             10.5785533595       24.6753677139      -26.9787196465  W2        5732            0.0000000000
     17197      5733  TIP3      OH2             4.9016033595       26.3644477139      -28.9626796465  W2        5733            0.0000000000
     17198      5733  TIP3      H1              4.0124033595       26.4639977139      -29.3027196465  W2        5733            0.0000000000
     17199      5733  TIP3      H2              5.1980933595       25.5227477139      -29.3088896465  W2        5733            0.0000000000
     17200      5734  TIP3      OH2             8.5547833595       26.3647077139      -31.3062196465  W2        5734            0.0000000000
     17201      5734  TIP3      H1              9.4863333595       26.4937077139      -31.1279096465  W2        5734            0.0000000000
     17202      5734  TIP3      H2              8.3398133595       27.0341377139      -31.9557496465  W2        5734            0.0000000000
     17203      5735  TIP3      OH2            14.4784533595       23.9704477139      -24.5252596465  W2        5735            0.0000000000
     17204      5735  TIP3      H1             13.8016133595       24.1017577139      -23.8612896465  W2        5735            0.0000000000
     17205      5735  TIP3      H2             13.9929433595       23.8153977139      -25.3354896465  W2        5735            0.0000000000
     17206      5736  TIP3      OH2             7.2288033595       27.5589277139      -33.7396096465  W2        5736            0.0000000000
     17207      5736  TIP3      H1              6.6863133595       27.1793077139      -34.4308496465  W2        5736            0.0000000000
     17208      5736  TIP3      H2              8.0622933595       27.7533977139      -34.1681996465  W2        5736            0.0000000000
     17209      5737  TIP3      OH2            17.7659633595       39.6419877139      -18.2484996465  W2        5737            0.0000000000
     17210      5737  TIP3      H1             17.9658333595       40.0661777139      -19.0829696465  W2        5737            0.0000000000
     17211      5737  TIP3      H2             18.4213333595       39.9858077139      -17.6414596465  W2        5737            0.0000000000
     17212      5738  TIP3      OH2             5.3639433595       32.1161177139      -18.6404496465  W2        5738            0.0000000000
     17213      5738  TIP3      H1              6.0961833595       32.3707077139      -18.0789996465  W2        5738            0.0000000000
     17214      5738  TIP3      H2              4.5838133595       32.3206577139      -18.1249096465  W2        5738            0.0000000000
     17215      5739  TIP3      OH2            11.3932333595       27.5231177139      -25.9024796465  W2        5739            0.0000000000
     17216      5739  TIP3      H1             11.9575733595       26.9767777139      -26.4495196465  W2        5739            0.0000000000
     17217      5739  TIP3      H2             11.2455733595       27.0013077139      -25.1137196465  W2        5739            0.0000000000
     17218      5740  TIP3      OH2             6.3952033595       23.6597277139      -29.4839996465  W2        5740            0.0000000000
     17219      5740  TIP3      H1              6.0781533595       22.7572577139      -29.5194596465  W2        5740            0.0000000000
     17220      5740  TIP3      H2              7.1766133595       23.6614677139      -30.0368396465  W2        5740            0.0000000000
     17221      5741  TIP3      OH2            10.0198233595       25.9117277139      -23.4884396465  W2        5741            0.0000000000
     17222      5741  TIP3      H1              9.1843533595       26.3656777139      -23.3781996465  W2        5741            0.0000000000
     17223      5741  TIP3      H2             10.5438833595       26.1875777139      -22.7364496465  W2        5741            0.0000000000
     17224      5742  TIP3      OH2            10.5640833595       32.1244977139      -31.8037996465  W2        5742            0.0000000000
     17225      5742  TIP3      H1              9.8191833595       31.6170277139      -32.1260096465  W2        5742            0.0000000000
     17226      5742  TIP3      H2             10.4298033595       32.1732977139      -30.8573196465  W2        5742            0.0000000000
     17227      5743  TIP3      OH2            17.7139733595       31.2573177139      -23.0170396465  W2        5743            0.0000000000
     17228      5743  TIP3      H1             18.3558533595       31.7139477139      -23.5608196465  W2        5743            0.0000000000
     17229      5743  TIP3      H2             16.8836633595       31.3705577139      -23.4796296465  W2        5743            0.0000000000
     17230      5744  TIP3      OH2            14.4617633595       24.9384877139      -33.6045396465  W2        5744            0.0000000000
     17231      5744  TIP3      H1             13.5231833595       25.0500477139      -33.7556596465  W2        5744            0.0000000000
     17232      5744  TIP3      H2             14.7589733595       25.7951777139      -33.2979696465  W2        5744            0.0000000000
     17233      5745  TIP3      OH2            12.0832933595       32.3088277139      -20.5668896465  W2        5745            0.0000000000
     17234      5745  TIP3      H1             11.7379033595       31.9270677139      -19.7599296465  W2        5745            0.0000000000
     17235      5745  TIP3      H2             11.8833033595       33.2421877139      -20.4955996465  W2        5745            0.0000000000
     17236      5746  TIP3      OH2            15.1801133595       26.8057577139      -31.9437996465  W2        5746            0.0000000000
     17237      5746  TIP3      H1             16.0720133595       26.6682577139      -31.6246796465  W2        5746            0.0000000000
     17238      5746  TIP3      H2             15.2364733595       27.5963677139      -32.4804496465  W2        5746            0.0000000000
     17239      5747  TIP3      OH2             5.6889133595       31.4194977139      -26.0340096465  W2        5747            0.0000000000
     17240      5747  TIP3      H1              6.4336333595       31.4170677139      -26.6353596465  W2        5747            0.0000000000
     17241      5747  TIP3      H2              5.7665733595       30.5958777139      -25.5524996465  W2        5747            0.0000000000
     17242      5748  TIP3      OH2            12.6894933595       33.5829277139      -32.7783396465  W2        5748            0.0000000000
     17243      5748  TIP3      H1             12.3943333595       34.4097177139      -32.3968596465  W2        5748            0.0000000000
     17244      5748  TIP3      H2             11.9864933595       32.9636177139      -32.5821996465  W2        5748            0.0000000000
     17245      5749  TIP3      OH2             2.6968833595       29.8801877139      -20.7191596465  W2        5749            0.0000000000
     17246      5749  TIP3      H1              2.9197433595       29.4621477139      -19.8874096465  W2        5749            0.0000000000
     17247      5749  TIP3      H2              2.0948933595       29.2676877139      -21.1418796465  W2        5749            0.0000000000
     17248      5750  TIP3      OH2             9.7133733595       29.3971777139      -18.5061896465  W2        5750            0.0000000000
     17249      5750  TIP3      H1              9.4174533595       29.2314777139      -19.4012796465  W2        5750            0.0000000000
     17250      5750  TIP3      H2             10.6448933595       29.1772077139      -18.5167996465  W2        5750            0.0000000000
     17251      5751  TIP3      OH2            14.3336533595       34.7703777139      -20.6163896465  W2        5751            0.0000000000
     17252      5751  TIP3      H1             13.4330833595       34.9536377139      -20.8839996465  W2        5751            0.0000000000
     17253      5751  TIP3      H2             14.3677633595       35.0293077139      -19.6955096465  W2        5751            0.0000000000
     17254      5752  TIP3      OH2            20.0649833595       27.0151677139      -32.2491296465  W2        5752            0.0000000000
     17255      5752  TIP3      H1             19.5106133595       26.6189677139      -32.9213796465  W2        5752            0.0000000000
     17256      5752  TIP3      H2             20.1653433595       27.9256877139      -32.5267996465  W2        5752            0.0000000000
     17257      5753  TIP3      OH2            20.0281833595       32.8153377139      -19.4119796465  W2        5753            0.0000000000
     17258      5753  TIP3      H1             19.1770333595       33.0537177139      -19.7793396465  W2        5753            0.0000000000
     17259      5753  TIP3      H2             20.6185233595       32.7986577139      -20.1652696465  W2        5753            0.0000000000
     17260      5754  TIP3      OH2            18.3601533595       35.8012077139      -31.7839196465  W2        5754            0.0000000000
     17261      5754  TIP3      H1             17.9872633595       34.9755877139      -31.4748596465  W2        5754            0.0000000000
     17262      5754  TIP3      H2             18.6375033595       35.6181477139      -32.6815796465  W2        5754            0.0000000000
     17263      5755  TIP3      OH2            15.5205433595       30.6091577139      -24.7627296465  W2        5755            0.0000000000
     17264      5755  TIP3      H1             14.5922333595       30.3773477139      -24.7897996465  W2        5755            0.0000000000
     17265      5755  TIP3      H2             15.9716533595       29.8321377139      -25.0928496465  W2        5755            0.0000000000
     17266      5756  TIP3      OH2             8.0638533595       34.9373177139      -28.6298596465  W2        5756            0.0000000000
     17267      5756  TIP3      H1              8.5910733595       35.7107577139      -28.8299796465  W2        5756            0.0000000000
     17268      5756  TIP3      H2              7.1837033595       35.1622377139      -28.9314596465  W2        5756            0.0000000000
     17269      5757  TIP3      OH2             3.8186233595       29.7997277139      -34.0426196465  W2        5757            0.0000000000
     17270      5757  TIP3      H1              4.4346133595       30.4264477139      -33.6631396465  W2        5757            0.0000000000
     17271      5757  TIP3      H2              2.9568833595       30.1157077139      -33.7709696465  W2        5757            0.0000000000
     17272      5758  TIP3      OH2             9.4910833595       32.6003077139      -29.0534296465  W2        5758            0.0000000000
     17273      5758  TIP3      H1              9.2500833595       33.5257477139      -29.0118996465  W2        5758            0.0000000000
     17274      5758  TIP3      H2              8.7504433595       32.1414377139      -28.6570396465  W2        5758            0.0000000000
     17275      5759  TIP3      OH2            10.0057433595       36.7496677139      -22.7383196465  W2        5759            0.0000000000
     17276      5759  TIP3      H1             10.3682133595       37.6042277139      -22.9718796465  W2        5759            0.0000000000
     17277      5759  TIP3      H2             10.5372633595       36.4578277139      -21.9976896465  W2        5759            0.0000000000
     17278      5760  TIP3      OH2             8.1741633595       37.6220677139      -29.5082096465  W2        5760            0.0000000000
     17279      5760  TIP3      H1              7.2242133595       37.7278077139      -29.4568796465  W2        5760            0.0000000000
     17280      5760  TIP3      H2              8.5259733595       38.4428077139      -29.1634596465  W2        5760            0.0000000000
     17281      5761  TIP3      OH2            13.5498233595       32.8487377139      -23.0377596465  W2        5761            0.0000000000
     17282      5761  TIP3      H1             13.1239533595       32.6209077139      -22.2113596465  W2        5761            0.0000000000
     17283      5761  TIP3      H2             14.1304033595       32.1099177139      -23.2202296465  W2        5761            0.0000000000
     17284      5762  TIP3      OH2            15.7527133595       33.7777877139      -33.9638596465  W2        5762            0.0000000000
     17285      5762  TIP3      H1             16.1060233595       33.3977677139      -33.1595096465  W2        5762            0.0000000000
     17286      5762  TIP3      H2             14.8040633595       33.6842677139      -33.8769296465  W2        5762            0.0000000000
     17287      5763  TIP3      OH2            16.2082433595       37.4006877139      -20.5682796465  W2        5763            0.0000000000
     17288      5763  TIP3      H1             15.6065633595       36.8449777139      -21.0636496465  W2        5763            0.0000000000
     17289      5763  TIP3      H2             16.4896133595       38.0676677139      -21.1945396465  W2        5763            0.0000000000
     17290      5764  TIP3      OH2            20.2561533595       38.2570377139      -33.7628396465  W2        5764            0.0000000000
     17291      5764  TIP3      H1             20.9999433595       38.8430877139      -33.9026796465  W2        5764            0.0000000000
     17292      5764  TIP3      H2             19.5619633595       38.8256177139      -33.4295996465  W2        5764            0.0000000000
     17293      5765  TIP3      OH2             4.3308333595       24.6334577139      -21.1610196465  W2        5765            0.0000000000
     17294      5765  TIP3      H1              3.4380633595       24.9719977139      -21.2286196465  W2        5765            0.0000000000
     17295      5765  TIP3      H2              4.2321133595       23.7780677139      -20.7429396465  W2        5765            0.0000000000
     17296      5766  TIP3      OH2            16.6186433595       32.4499877139      -31.7370696465  W2        5766            0.0000000000
     17297      5766  TIP3      H1             16.3414033595       31.7219177139      -31.1809596465  W2        5766            0.0000000000
     17298      5766  TIP3      H2             17.5459433595       32.5691877139      -31.5318096465  W2        5766            0.0000000000
     17299      5767  TIP3      OH2             3.9820333595       36.4378977139      -22.7260796465  W2        5767            0.0000000000
     17300      5767  TIP3      H1              4.1990633595       35.5061377139      -22.7571096465  W2        5767            0.0000000000
     17301      5767  TIP3      H2              4.2283833595       36.7123977139      -21.8427996465  W2        5767            0.0000000000
     17302      5768  TIP3      OH2             9.8434933595       34.8893977139      -35.5168596465  W2        5768            0.0000000000
     17303      5768  TIP3      H1             10.0824733595       34.1412077139      -36.0639696465  W2        5768            0.0000000000
     17304      5768  TIP3      H2              9.5746233595       34.5015677139      -34.6840796465  W2        5768            0.0000000000
     17305      5769  TIP3      OH2             8.7805533595       34.4597777139      -33.0605996465  W2        5769            0.0000000000
     17306      5769  TIP3      H1              8.9273533595       33.9397577139      -32.2705096465  W2        5769            0.0000000000
     17307      5769  TIP3      H2              8.7777233595       35.3665377139      -32.7540096465  W2        5769            0.0000000000
     17308      5770  TIP3      OH2             5.2336633595       31.7121077139      -32.5500596465  W2        5770            0.0000000000
     17309      5770  TIP3      H1              4.5475933595       32.0643577139      -31.9830896465  W2        5770            0.0000000000
     17310      5770  TIP3      H2              5.7564533595       32.4750677139      -32.7966296465  W2        5770            0.0000000000
     17311      5771  TIP3      OH2            13.0651733595       24.3744877139      -22.2711596465  W2        5771            0.0000000000
     17312      5771  TIP3      H1             13.7639633595       24.4483577139      -21.6211896465  W2        5771            0.0000000000
     17313      5771  TIP3      H2             12.6843133595       23.5099877139      -22.1168696465  W2        5771            0.0000000000
     17314      5772  TIP3      OH2            13.8496633595       24.0266577139      -31.1739296465  W2        5772            0.0000000000
     17315      5772  TIP3      H1             14.0694933595       24.4981977139      -31.9773896465  W2        5772            0.0000000000
     17316      5772  TIP3      H2             14.4080633595       24.4209177139      -30.5038696465  W2        5772            0.0000000000
     17317      5773  TIP3      OH2            11.5182733595       36.1571377139      -32.3111796465  W2        5773            0.0000000000
     17318      5773  TIP3      H1             10.7018833595       36.6541077139      -32.2587496465  W2        5773            0.0000000000
     17319      5773  TIP3      H2             12.0479033595       36.6324877139      -32.9512996465  W2        5773            0.0000000000
     17320      5774  TIP3      OH2            11.0496533595       25.7545377139      -30.3390896465  W2        5774            0.0000000000
     17321      5774  TIP3      H1             11.8619133595       26.2588577139      -30.2929196465  W2        5774            0.0000000000
     17322      5774  TIP3      H2             10.8049533595       25.6095077139      -29.4251296465  W2        5774            0.0000000000
     17323      5775  TIP3      OH2            11.5852933595       26.7408077139      -21.1544296465  W2        5775            0.0000000000
     17324      5775  TIP3      H1             11.7043233595       27.3143477139      -20.3973896465  W2        5775            0.0000000000
     17325      5775  TIP3      H2             12.2407533595       26.0527477139      -21.0396496465  W2        5775            0.0000000000
     17326      5776  TIP3      OH2            11.9333233595       22.8358377139      -29.4009796465  W2        5776            0.0000000000
     17327      5776  TIP3      H1             11.5866733595       23.4528977139      -28.7565496465  W2        5776            0.0000000000
     17328      5776  TIP3      H2             12.5920133595       23.3364077139      -29.8824296465  W2        5776            0.0000000000
     17329      5777  TIP3      OH2             8.8565833595       37.2008577139      -32.3294896465  W2        5777            0.0000000000
     17330      5777  TIP3      H1              9.0174533595       38.0006077139      -32.8302296465  W2        5777            0.0000000000
     17331      5777  TIP3      H2              8.6593633595       37.5074577139      -31.4444296465  W2        5777            0.0000000000
     17332      5778  TIP3      OH2             7.5910233595       23.8987777139      -32.7137296465  W2        5778            0.0000000000
     17333      5778  TIP3      H1              7.5075033595       24.7870877139      -32.3670896465  W2        5778            0.0000000000
     17334      5778  TIP3      H2              8.4810533595       23.6334477139      -32.4820496465  W2        5778            0.0000000000
     17335      5779  TIP3      OH2            17.7898733595       24.6478377139      -20.3194596465  W2        5779            0.0000000000
     17336      5779  TIP3      H1             16.8734533595       24.9100077139      -20.4070896465  W2        5779            0.0000000000
     17337      5779  TIP3      H2             18.1253733595       24.6447377139      -21.2159296465  W2        5779            0.0000000000
     17338      5780  TIP3      OH2            16.3919733595       28.3979377139      -26.2237296465  W2        5780            0.0000000000
     17339      5780  TIP3      H1             15.5944133595       27.9829577139      -26.5522296465  W2        5780            0.0000000000
     17340      5780  TIP3      H2             16.8370833595       27.7073077139      -25.7326796465  W2        5780            0.0000000000
     17341      5781  TIP3      OH2             5.8495533595       34.3259977139      -33.6532796465  W2        5781            0.0000000000
     17342      5781  TIP3      H1              6.4417033595       35.0254777139      -33.3770396465  W2        5781            0.0000000000
     17343      5781  TIP3      H2              6.3088533595       33.8929477139      -34.3728196465  W2        5781            0.0000000000
     17344      5782  TIP3      OH2             4.1654733595       26.9902977139      -34.5373396465  W2        5782            0.0000000000
     17345      5782  TIP3      H1              4.1207333595       27.9296077139      -34.3586396465  W2        5782            0.0000000000
     17346      5782  TIP3      H2              3.2777933595       26.7547877139      -34.8071296465  W2        5782            0.0000000000
     17347      5783  TIP3      OH2            17.4784333595       37.6541877139      -24.6013796465  W2        5783            0.0000000000
     17348      5783  TIP3      H1             17.3228633595       38.3326277139      -25.2584496465  W2        5783            0.0000000000
     17349      5783  TIP3      H2             18.4110733595       37.7261177139      -24.3983196465  W2        5783            0.0000000000
     17350      5784  TIP3      OH2             4.9736733595       21.7719577139      -25.8642396465  W2        5784            0.0000000000
     17351      5784  TIP3      H1              4.7446533595       21.8312077139      -26.7917396465  W2        5784            0.0000000000
     17352      5784  TIP3      H2              4.5310133595       20.9805077139      -25.5578296465  W2        5784            0.0000000000
     17353      5785  TIP3      OH2             3.9040033595       35.7126677139      -29.7036596465  W2        5785            0.0000000000
     17354      5785  TIP3      H1              3.0718633595       36.1849377139      -29.6765196465  W2        5785            0.0000000000
     17355      5785  TIP3      H2              4.4498333595       36.2224277139      -30.3023496465  W2        5785            0.0000000000
     17356      5786  TIP3      OH2             3.1923733595       38.3250377139      -18.3738596465  W2        5786            0.0000000000
     17357      5786  TIP3      H1              3.7325933595       38.1084377139      -17.6139396465  W2        5786            0.0000000000
     17358      5786  TIP3      H2              2.7111733595       37.5196377139      -18.5636096465  W2        5786            0.0000000000
     17359      5787  TIP3      OH2             7.7897133595       37.2444777139      -16.7534396465  W2        5787            0.0000000000
     17360      5787  TIP3      H1              8.5574333595       36.7855577139      -16.4125196465  W2        5787            0.0000000000
     17361      5787  TIP3      H2              7.7683333595       37.0184577139      -17.6833196465  W2        5787            0.0000000000
     17362      5788  TIP3      OH2            11.8816733595       36.7525377139      -35.3782596465  W2        5788            0.0000000000
     17363      5788  TIP3      H1             11.2377733595       36.1213977139      -35.0568896465  W2        5788            0.0000000000
     17364      5788  TIP3      H2             12.6435033595       36.2213377139      -35.6099096465  W2        5788            0.0000000000
     17365      5789  TIP3      OH2            14.3665833595       35.6245877139      -18.0242896465  W2        5789            0.0000000000
     17366      5789  TIP3      H1             14.0155333595       34.7678877139      -17.7812496465  W2        5789            0.0000000000
     17367      5789  TIP3      H2             15.0929033595       35.7672577139      -17.4173896465  W2        5789            0.0000000000
     17368      5790  TIP3      OH2            16.4859633595       36.5695277139      -35.1444596465  W2        5790            0.0000000000
     17369      5790  TIP3      H1             16.7690033595       35.7750477139      -34.6917696465  W2        5790            0.0000000000
     17370      5790  TIP3      H2             17.2257533595       36.8026277139      -35.7053496465  W2        5790            0.0000000000
     17371      5791  TIP3      OH2             3.0993233595       32.1354477139      -17.4194296465  W2        5791            0.0000000000
     17372      5791  TIP3      H1              3.2433733595       31.2335177139      -17.7057596465  W2        5791            0.0000000000
     17373      5791  TIP3      H2              2.3270633595       32.4216577139      -17.9071996465  W2        5791            0.0000000000
     17374      5792  TIP3      OH2             7.4406933595       32.4790177139      -35.2869696465  W2        5792            0.0000000000
     17375      5792  TIP3      H1              7.5051033595       31.6849777139      -34.7563296465  W2        5792            0.0000000000
     17376      5792  TIP3      H2              8.0936133595       32.3602977139      -35.9767696465  W2        5792            0.0000000000
     17377      5793  TIP3      OH2             9.7549333595       32.1052577139      -17.9867896465  W2        5793            0.0000000000
     17378      5793  TIP3      H1              9.4263133595       32.3760677139      -18.8440496465  W2        5793            0.0000000000
     17379      5793  TIP3      H2              9.9067533595       31.1642377139      -18.0742896465  W2        5793            0.0000000000
     17380      5794  TIP3      OH2            12.7930333595       33.5261877139      -35.5511696465  W2        5794            0.0000000000
     17381      5794  TIP3      H1             12.5244433595       33.7063977139      -34.6502796465  W2        5794            0.0000000000
     17382      5794  TIP3      H2             12.5865933595       32.6008077139      -35.6825896465  W2        5794            0.0000000000
     17383      5795  TIP3      OH2            15.4894533595       32.0209877139      -20.6035596465  W2        5795            0.0000000000
     17384      5795  TIP3      H1             16.2349333595       32.6093577139      -20.7231596465  W2        5795            0.0000000000
     17385      5795  TIP3      H2             14.7321333595       32.6029577139      -20.5402496465  W2        5795            0.0000000000
     17386      5796  TIP3      OH2             3.9319733595       29.3357777139      -17.9994996465  W2        5796            0.0000000000
     17387      5796  TIP3      H1              4.3400933595       28.4784377139      -18.1204396465  W2        5796            0.0000000000
     17388      5796  TIP3      H2              3.6717333595       29.3499077139      -17.0784696465  W2        5796            0.0000000000
     17389      5797  TIP3      OH2             8.5900733595       30.4516377139      -32.9811696465  W2        5797            0.0000000000
     17390      5797  TIP3      H1              8.1302733595       29.9674677139      -32.2953196465  W2        5797            0.0000000000
     17391      5797  TIP3      H2              8.8449433595       29.7831777139      -33.6171196465  W2        5797            0.0000000000
     17392      5798  TIP3      OH2             7.8790033595       28.3443477139      -20.6252096465  W2        5798            0.0000000000
     17393      5798  TIP3      H1              7.2606133595       29.0190077139      -20.3447396465  W2        5798            0.0000000000
     17394      5798  TIP3      H2              8.2231233595       28.6657377139      -21.4585896465  W2        5798            0.0000000000
     17395      5799  TIP3      OH2             9.6611133595       28.6948177139      -34.7188496465  W2        5799            0.0000000000
     17396      5799  TIP3      H1              9.4806133595       28.5399377139      -35.6460196465  W2        5799            0.0000000000
     17397      5799  TIP3      H2             10.6111633595       28.8026877139      -34.6740596465  W2        5799            0.0000000000
     17398      5800  TIP3      OH2            12.8988233595       30.8158777139      -17.3477296465  W2        5800            0.0000000000
     17399      5800  TIP3      H1             13.8519433595       30.8997877139      -17.3751296465  W2        5800            0.0000000000
     17400      5800  TIP3      H2             12.7382833595       30.1040577139      -16.7282396465  W2        5800            0.0000000000
     17401      5801  TIP3      OH2            19.0509433595       31.0492377139      -35.2730396465  W2        5801            0.0000000000
     17402      5801  TIP3      H1             18.7774233595       30.6247877139      -36.0862096465  W2        5801            0.0000000000
     17403      5801  TIP3      H2             19.0903533595       31.9806877139      -35.4899996465  W2        5801            0.0000000000
     17404      5802  TIP3      OH2             8.2183733595       25.6994277139      -19.5428996465  W2        5802            0.0000000000
     17405      5802  TIP3      H1              8.3684633595       24.9705577139      -20.1449296465  W2        5802            0.0000000000
     17406      5802  TIP3      H2              8.2206133595       26.4765977139      -20.1016796465  W2        5802            0.0000000000
     17407      5803  TIP3      OH2             8.6309433595       24.0690077139      -22.0501596465  W2        5803            0.0000000000
     17408      5803  TIP3      H1              9.1666933595       24.5206777139      -22.7022296465  W2        5803            0.0000000000
     17409      5803  TIP3      H2              7.7789033595       23.9609877139      -22.4727496465  W2        5803            0.0000000000
     17410      5804  TIP3      OH2            10.2127833595       29.5086277139      -21.8106396465  W2        5804            0.0000000000
     17411      5804  TIP3      H1             10.9632633595       29.3523777139      -22.3838596465  W2        5804            0.0000000000
     17412      5804  TIP3      H2              9.8736133595       30.3602877139      -22.0860896465  W2        5804            0.0000000000
     17413      5805  TIP3      OH2            14.6284033595       27.3238077139      -16.7821096465  W2        5805            0.0000000000
     17414      5805  TIP3      H1             14.8205333595       26.3927477139      -16.8936596465  W2        5805            0.0000000000
     17415      5805  TIP3      H2             15.4860333595       27.7487577139      -16.7925696465  W2        5805            0.0000000000
     17416      5806  TIP3      OH2            15.9451233595       30.1123277139      -18.7048396465  W2        5806            0.0000000000
     17417      5806  TIP3      H1             15.6636233595       30.8217877139      -19.2824596465  W2        5806            0.0000000000
     17418      5806  TIP3      H2             16.8875533595       30.0396277139      -18.8557196465  W2        5806            0.0000000000
     17419      5807  TIP3      OH2             6.6970033595       26.8977777139      -17.6313396465  W2        5807            0.0000000000
     17420      5807  TIP3      H1              5.9299033595       26.3652577139      -17.8415796465  W2        5807            0.0000000000
     17421      5807  TIP3      H2              7.3759033595       26.5878177139      -18.2307096465  W2        5807            0.0000000000
     17422      5808  TIP3      OH2             9.4364933595       21.5255777139      -21.6187996465  W2        5808            0.0000000000
     17423      5808  TIP3      H1              9.3384533595       22.4718977139      -21.7241796465  W2        5808            0.0000000000
     17424      5808  TIP3      H2              8.6941133595       21.1529577139      -22.0944496465  W2        5808            0.0000000000
     17425      5809  TIP3      OH2            10.7005433595       25.8471177139      -18.0549596465  W2        5809            0.0000000000
     17426      5809  TIP3      H1             10.4650833595       25.6277877139      -17.1534696465  W2        5809            0.0000000000
     17427      5809  TIP3      H2              9.9172333595       25.6402377139      -18.5647096465  W2        5809            0.0000000000
     17428      5810  TIP3      OH2            13.4162033595       24.9744677139      -18.9796096465  W2        5810            0.0000000000
     17429      5810  TIP3      H1             12.4687433595       25.0064377139      -18.8472796465  W2        5810            0.0000000000
     17430      5810  TIP3      H2             13.7288733595       24.3491777139      -18.3257896465  W2        5810            0.0000000000
     17431      5811  TIP3      OH2            15.0503533595       23.6085777139      -16.9744196465  W2        5811            0.0000000000
     17432      5811  TIP3      H1             14.9535333595       22.6563077139      -16.9802296465  W2        5811            0.0000000000
     17433      5811  TIP3      H2             14.7286633595       23.8772577139      -16.1138696465  W2        5811            0.0000000000
     17434      5812  TIP3      OH2             4.8772833595       24.8181577139      -17.9268696465  W2        5812            0.0000000000
     17435      5812  TIP3      H1              5.0890233595       24.1117677139      -18.5371196465  W2        5812            0.0000000000
     17436      5812  TIP3      H2              4.7660333595       24.3807577139      -17.0827496465  W2        5812            0.0000000000
     17437      5813  TIP3      OH2             9.6583033595       20.8193177139      -18.9475196465  W2        5813            0.0000000000
     17438      5813  TIP3      H1             10.3701433595       20.1795377139      -18.9616096465  W2        5813            0.0000000000
     17439      5813  TIP3      H2              9.5573433595       21.0861477139      -19.8612096465  W2        5813            0.0000000000
     17440      5814  TIP3      OH2            10.0120533595       22.5021577139      -16.8938896465  W2        5814            0.0000000000
     17441      5814  TIP3      H1              9.8802733595       22.0265377139      -17.7140396465  W2        5814            0.0000000000
     17442      5814  TIP3      H2              9.4127933595       23.2465177139      -16.9491796465  W2        5814            0.0000000000
     17443      5815  TIP3      OH2             9.5582833595       39.3851877139      -33.7174896465  W2        5815            0.0000000000
     17444      5815  TIP3      H1             10.4913533595       39.5430577139      -33.5736496465  W2        5815            0.0000000000
     17445      5815  TIP3      H2              9.2941633595       40.0604877139      -34.3423396465  W2        5815            0.0000000000
     17446      5816  TIP3      OH2             3.1267733595       34.0215677139      -34.2346796465  W2        5816            0.0000000000
     17447      5816  TIP3      H1              4.0406933595       34.1004577139      -33.9612896465  W2        5816            0.0000000000
     17448      5816  TIP3      H2              3.1340833595       33.3345277139      -34.9011196465  W2        5816            0.0000000000
     17449      5817  TIP3      OH2             1.7758333595       39.4144177139      -29.1572896465  W2        5817            0.0000000000
     17450      5817  TIP3      H1              1.1285433595       38.9525877139      -29.6901696465  W2        5817            0.0000000000
     17451      5817  TIP3      H2              2.1302933595       38.7427477139      -28.5746696465  W2        5817            0.0000000000
     17452      5818  TIP3      OH2             2.6457533595       37.4951177139      -27.3526696465  W2        5818            0.0000000000
     17453      5818  TIP3      H1              2.3114333595       36.6148477139      -27.1806496465  W2        5818            0.0000000000
     17454      5818  TIP3      H2              2.8679933595       37.8406177139      -26.4881096465  W2        5818            0.0000000000
     17455      5819  TIP3      OH2            20.1942333595       38.3047577139      -24.3721896465  W2        5819            0.0000000000
     17456      5819  TIP3      H1             20.1729033595       38.4895977139      -23.4332496465  W2        5819            0.0000000000
     17457      5819  TIP3      H2             20.8848533595       38.8731577139      -24.7130496465  W2        5819            0.0000000000
     17458      5820  TIP3      OH2            19.7575233595       37.8718677139      -21.4502796465  W2        5820            0.0000000000
     17459      5820  TIP3      H1             19.2703933595       37.1362777139      -21.8215396465  W2        5820            0.0000000000
     17460      5820  TIP3      H2             20.3067933595       37.4782577139      -20.7723396465  W2        5820            0.0000000000
     17461      5821  TIP3      OH2            18.2082533595       33.6616777139      -16.8122496465  W2        5821            0.0000000000
     17462      5821  TIP3      H1             17.3423633595       33.5566477139      -16.4180196465  W2        5821            0.0000000000
     17463      5821  TIP3      H2             18.5848433595       34.4200077139      -16.3657796465  W2        5821            0.0000000000
     17464      5822  TIP3      OH2            19.5092233595       31.9180477139      -31.2979996465  W2        5822            0.0000000000
     17465      5822  TIP3      H1             20.3593633595       32.3391377139      -31.1708396465  W2        5822            0.0000000000
     17466      5822  TIP3      H2             19.5147333595       31.1780577139      -30.6908596465  W2        5822            0.0000000000
     17467      5823  TIP3      OH2            19.9037833595       29.9717877139      -29.4744296465  W2        5823            0.0000000000
     17468      5823  TIP3      H1             19.1772433595       29.4920477139      -29.0766696465  W2        5823            0.0000000000
     17469      5823  TIP3      H2             20.4851133595       30.1772577139      -28.7422696465  W2        5823            0.0000000000
     17470      5824  TIP3      OH2            19.6629033595       32.7565377139      -24.5266696465  W2        5824            0.0000000000
     17471      5824  TIP3      H1             20.4963233595       32.3785377139      -24.8073096465  W2        5824            0.0000000000
     17472      5824  TIP3      H2             19.7749333595       33.6996577139      -24.6457596465  W2        5824            0.0000000000
     17473      5825  TIP3      OH2            18.1491333595       35.6342877139      -22.2198296465  W2        5825            0.0000000000
     17474      5825  TIP3      H1             17.5016633595       35.9594377139      -21.5943096465  W2        5825            0.0000000000
     17475      5825  TIP3      H2             17.6315333595       35.1940577139      -22.8939996465  W2        5825            0.0000000000
     17476      5826  TIP3      OH2            20.1720933595       29.8726377139      -33.0832996465  W2        5826            0.0000000000
     17477      5826  TIP3      H1             19.6502033595       30.2290477139      -33.8022096465  W2        5826            0.0000000000
     17478      5826  TIP3      H2             20.1390133595       30.5474177139      -32.4052096465  W2        5826            0.0000000000
     17479      5827  TIP3      OH2            18.5209933595       27.1121977139      -34.5325896465  W2        5827            0.0000000000
     17480      5827  TIP3      H1             18.6174333595       27.7788977139      -35.2126196465  W2        5827            0.0000000000
     17481      5827  TIP3      H2             18.3809533595       26.2968277139      -35.0140396465  W2        5827            0.0000000000
     17482      5828  TIP3      OH2            17.6904633595       28.4924377139      -28.9115596465  W2        5828            0.0000000000
     17483      5828  TIP3      H1             17.5403433595       27.5472977139      -28.9317796465  W2        5828            0.0000000000
     17484      5828  TIP3      H2             17.3369133595       28.7735777139      -28.0676496465  W2        5828            0.0000000000
     17485      5829  TIP3      OH2             2.7257033595       30.5706577139      -24.9011796465  W2        5829            0.0000000000
     17486      5829  TIP3      H1              2.9099933595       30.4888277139      -25.8368896465  W2        5829            0.0000000000
     17487      5829  TIP3      H2              3.5749933595       30.4463577139      -24.4775396465  W2        5829            0.0000000000
     17488      5830  TIP3      OH2            18.5467533595       30.4627677139      -19.2727296465  W2        5830            0.0000000000
     17489      5830  TIP3      H1             19.1294833595       29.7279977139      -19.0810096465  W2        5830            0.0000000000
     17490      5830  TIP3      H2             19.1106833595       31.2347977139      -19.2261496465  W2        5830            0.0000000000
     17491      5831  TIP3      OH2            20.0434633595       28.3653477139      -18.5881896465  W2        5831            0.0000000000
     17492      5831  TIP3      H1             19.1801333595       27.9865577139      -18.7537196465  W2        5831            0.0000000000
     17493      5831  TIP3      H2             20.6478333595       27.6268277139      -18.6626096465  W2        5831            0.0000000000
     17494      5832  TIP3      OH2            17.7683733595       24.5201777139      -35.4150396465  W2        5832            0.0000000000
     17495      5832  TIP3      H1             18.3789533595       24.1488577139      -34.7782196465  W2        5832            0.0000000000
     17496      5832  TIP3      H2             16.9315233595       24.0988677139      -35.2190396465  W2        5832            0.0000000000
     17497      5833  TIP3      OH2            17.4009433595       26.0750177139      -30.4490496465  W2        5833            0.0000000000
     17498      5833  TIP3      H1             17.6806533595       25.1680577139      -30.3248796465  W2        5833            0.0000000000
     17499      5833  TIP3      H2             18.1601133595       26.5091677139      -30.8381296465  W2        5833            0.0000000000
     17500      5834  TIP3      OH2            18.0127733595       26.6567577139      -25.0131596465  W2        5834            0.0000000000
     17501      5834  TIP3      H1             18.9455733595       26.8687477139      -25.0475596465  W2        5834            0.0000000000
     17502      5834  TIP3      H2             17.7775233595       26.7579677139      -24.0908596465  W2        5834            0.0000000000
     17503      5835  TIP3      OH2            18.0419633595       27.3932877139      -22.2372196465  W2        5835            0.0000000000
     17504      5835  TIP3      H1             17.1990933595       27.6613277139      -21.8712396465  W2        5835            0.0000000000
     17505      5835  TIP3      H2             18.4843933595       28.2154777139      -22.4481096465  W2        5835            0.0000000000
     17506      5836  TIP3      OH2             2.3231833595       25.8411577139      -18.7602996465  W2        5836            0.0000000000
     17507      5836  TIP3      H1              3.2426733595       25.7189877139      -18.5239896465  W2        5836            0.0000000000
     17508      5836  TIP3      H2              1.8736333595       25.0911277139      -18.3709496465  W2        5836            0.0000000000
     17509      5837  TIP3      OH2            20.3251233595       21.3733077139      -16.8837196465  W2        5837            0.0000000000
     17510      5837  TIP3      H1             20.6748233595       20.7196577139      -17.4892496465  W2        5837            0.0000000000
     17511      5837  TIP3      H2             20.4720733595       22.2107177139      -17.3234596465  W2        5837            0.0000000000
     17512      5838  TIP3      OH2            18.0144233595       23.3379477139      -30.4008496465  W2        5838            0.0000000000
     17513      5838  TIP3      H1             18.1969233595       22.8890977139      -29.5753496465  W2        5838            0.0000000000
     17514      5838  TIP3      H2             17.4147133595       22.7533877139      -30.8643896465  W2        5838            0.0000000000
     17515      5839  TIP3      OH2             3.5444333595       24.1533177139      -25.8690096465  W2        5839            0.0000000000
     17516      5839  TIP3      H1              3.9895933595       23.3615677139      -25.5670396465  W2        5839            0.0000000000
     17517      5839  TIP3      H2              4.0107333595       24.8698377139      -25.4384496465  W2        5839            0.0000000000
     17518      5840  TIP3      OH2             1.8484633595       27.1526177139      -24.7999896465  W2        5840            0.0000000000
     17519      5840  TIP3      H1              2.3404433595       26.9316677139      -25.5907896465  W2        5840            0.0000000000
     17520      5840  TIP3      H2              2.2105533595       27.9929577139      -24.5190396465  W2        5840            0.0000000000
     17521      5841  TIP3      OH2            19.8448433595       23.4827677139      -18.5345896465  W2        5841            0.0000000000
     17522      5841  TIP3      H1             18.9274133595       23.7534777139      -18.5702396465  W2        5841            0.0000000000
     17523      5841  TIP3      H2             19.9677833595       22.9476077139      -19.3186196465  W2        5841            0.0000000000
     17524      5842  TIP3      OH2            19.8810433595       23.4057577139      -33.8728196465  W2        5842            0.0000000000
     17525      5842  TIP3      H1             20.2933033595       22.6843277139      -34.3480196465  W2        5842            0.0000000000
     17526      5842  TIP3      H2             20.5626933595       24.0752177139      -33.8143896465  W2        5842            0.0000000000
     17527      5843  TIP3      OH2             2.1621133595       23.4105277139      -30.7457496465  W2        5843            0.0000000000
     17528      5843  TIP3      H1              1.2369533595       23.6191877139      -30.8751996465  W2        5843            0.0000000000
     17529      5843  TIP3      H2              2.6161033595       23.8946077139      -31.4355196465  W2        5843            0.0000000000
     17530      5844  TIP3      OH2            16.9328333595       38.3946977139      -28.8000096465  W2        5844            0.0000000000
     17531      5844  TIP3      H1             17.5851233595       38.0469077139      -29.4080996465  W2        5844            0.0000000000
     17532      5844  TIP3      H2             17.4432133595       38.8830177139      -28.1540396465  W2        5844            0.0000000000
     17533      5845  TIP3      OH2             2.1256533595       22.1484277139      -22.4014996465  W2        5845            0.0000000000
     17534      5845  TIP3      H1              1.4607033595       21.9024577139      -21.7584096465  W2        5845            0.0000000000
     17535      5845  TIP3      H2              1.6827833595       22.7704677139      -22.9786996465  W2        5845            0.0000000000
     17536      5846  TIP3      OH2             4.3175833595       35.3238377139      -18.2569196465  W2        5846            0.0000000000
     17537      5846  TIP3      H1              3.4968333595       35.4984877139      -18.7174496465  W2        5846            0.0000000000
     17538      5846  TIP3      H2              4.0653633595       35.2503077139      -17.3364796465  W2        5846            0.0000000000
     17539      5847  TIP3      OH2             7.2718733595       36.2979577139      -21.9985196465  W2        5847            0.0000000000
     17540      5847  TIP3      H1              6.8469833595       37.1078077139      -22.2810596465  W2        5847            0.0000000000
     17541      5847  TIP3      H2              8.1761533595       36.3833677139      -22.3005396465  W2        5847            0.0000000000
     17542      5848  TIP3      OH2            11.5830133595       37.6969577139      -19.0391496465  W2        5848            0.0000000000
     17543      5848  TIP3      H1             11.7677633595       37.3635677139      -18.1611196465  W2        5848            0.0000000000
     17544      5848  TIP3      H2             12.4294633595       38.0068177139      -19.3612296465  W2        5848            0.0000000000
     17545      5849  TIP3      OH2            13.9280533595       38.9828477139      -19.7950096465  W2        5849            0.0000000000
     17546      5849  TIP3      H1             14.6049433595       38.3500777139      -20.0350896465  W2        5849            0.0000000000
     17547      5849  TIP3      H2             14.2499333595       39.3838977139      -18.9876796465  W2        5849            0.0000000000
     17548      5850  TIP3      OH2            18.8454333595       21.5723977139      -20.7155096465  W2        5850            0.0000000000
     17549      5850  TIP3      H1             18.0327833595       21.8974277139      -21.1030396465  W2        5850            0.0000000000
     17550      5850  TIP3      H2             19.0782833595       20.8122477139      -21.2485996465  W2        5850            0.0000000000
     17551      5851  TIP3      OH2             4.6735433595       39.5543477139      -21.9509896465  W2        5851            0.0000000000
     17552      5851  TIP3      H1              3.9531833595       39.9944477139      -22.4022196465  W2        5851            0.0000000000
     17553      5851  TIP3      H2              4.3079433595       39.3038177139      -21.1025896465  W2        5851            0.0000000000
     17554      5852  TIP3      OH2             7.1408033595       39.1547377139      -22.9212696465  W2        5852            0.0000000000
     17555      5852  TIP3      H1              6.2760233595       39.2265877139      -22.5172596465  W2        5852            0.0000000000
     17556      5852  TIP3      H2              7.0857033595       39.7014677139      -23.7050196465  W2        5852            0.0000000000
     17557      5853  TIP3      OH2            11.8513633595       39.0426277139      -23.7456696465  W2        5853            0.0000000000
     17558      5853  TIP3      H1             11.3947633595       39.5715977139      -24.3998296465  W2        5853            0.0000000000
     17559      5853  TIP3      H2             12.0141633595       39.6457677139      -23.0204396465  W2        5853            0.0000000000
     17560      5854  TIP3      OH2            14.1789933595       37.9205877139      -22.8006396465  W2        5854            0.0000000000
     17561      5854  TIP3      H1             13.2743633595       38.0856077139      -23.0664296465  W2        5854            0.0000000000
     17562      5854  TIP3      H2             14.6078533595       38.7738077139      -22.8662996465  W2        5854            0.0000000000
     17563      5855  TIP3      OH2            16.7831833595       39.4904977139      -22.5058596465  W2        5855            0.0000000000
     17564      5855  TIP3      H1             16.6013833595       40.4063877139      -22.7163696465  W2        5855            0.0000000000
     17565      5855  TIP3      H2             16.9599633595       39.0802077139      -23.3523996465  W2        5855            0.0000000000
     17566      5856  TIP3      OH2             4.0883533595       38.1775977139      -25.0408096465  W2        5856            0.0000000000
     17567      5856  TIP3      H1              4.0699533595       37.7521077139      -24.1835796465  W2        5856            0.0000000000
     17568      5856  TIP3      H2              4.8931433595       37.8590977139      -25.4495896465  W2        5856            0.0000000000
     17569      5857  TIP3      OH2             6.2296633595       36.8874677139      -26.3858196465  W2        5857            0.0000000000
     17570      5857  TIP3      H1              6.0107333595       35.9712077139      -26.2162196465  W2        5857            0.0000000000
     17571      5857  TIP3      H2              7.0538833595       37.0275077139      -25.9196796465  W2        5857            0.0000000000
     17572      5858  TIP3      OH2             8.7669133595       37.3573977139      -25.5370196465  W2        5858            0.0000000000
     17573      5858  TIP3      H1              8.9794833595       36.4692977139      -25.8239296465  W2        5858            0.0000000000
     17574      5858  TIP3      H2              8.8314233595       37.3231677139      -24.5826196465  W2        5858            0.0000000000
     17575      5859  TIP3      OH2            12.2752833595       23.0214577139      -26.3926896465  W2        5859            0.0000000000
     17576      5859  TIP3      H1             11.6009633595       22.3920177139      -26.1371096465  W2        5859            0.0000000000
     17577      5859  TIP3      H2             12.8392033595       22.5373477139      -26.9958996465  W2        5859            0.0000000000
     17578      5860  TIP3      OH2            17.4180033595       21.1288577139      -26.2799796465  W2        5860            0.0000000000
     17579      5860  TIP3      H1             18.0217633595       21.6763977139      -26.7818796465  W2        5860            0.0000000000
     17580      5860  TIP3      H2             16.5482033595       21.4478977139      -26.5205696465  W2        5860            0.0000000000
     17581      5861  TIP3      OH2            19.1450433595       22.2677277139      -27.9468896465  W2        5861            0.0000000000
     17582      5861  TIP3      H1             19.7567933595       21.7532977139      -28.4735296465  W2        5861            0.0000000000
     17583      5861  TIP3      H2             19.5273833595       23.1449377139      -27.9234496465  W2        5861            0.0000000000
     17584      5862  TIP3      OH2             4.6020333595       21.6554877139      -28.5706996465  W2        5862            0.0000000000
     17585      5862  TIP3      H1              3.8250133595       21.4209777139      -29.0781096465  W2        5862            0.0000000000
     17586      5862  TIP3      H2              5.1323933595       20.8586977139      -28.5618996465  W2        5862            0.0000000000
     17587      5863  TIP3      OH2             3.4383733595       21.4532977139      -32.7670896465  W2        5863            0.0000000000
     17588      5863  TIP3      H1              3.8774433595       22.0643477139      -33.3587396465  W2        5863            0.0000000000
     17589      5863  TIP3      H2              2.8046133595       21.9917077139      -32.2930896465  W2        5863            0.0000000000
     17590      5864  TIP3      OH2             9.1812933595       21.5821977139      -28.7573896465  W2        5864            0.0000000000
     17591      5864  TIP3      H1             10.0556333595       21.9706277139      -28.7869596465  W2        5864            0.0000000000
     17592      5864  TIP3      H2              9.0453733595       21.3669777139      -27.8346696465  W2        5864            0.0000000000
     17593      5865  TIP3      OH2            14.7381333595       21.6121777139      -27.1082196465  W2        5865            0.0000000000
     17594      5865  TIP3      H1             14.8142933595       21.7073377139      -28.0576196465  W2        5865            0.0000000000
     17595      5865  TIP3      H2             14.4630533595       20.7044677139      -26.9793096465  W2        5865            0.0000000000
     17596      5866  TIP3      OH2            16.0913933595       21.6379577139      -31.4157196465  W2        5866            0.0000000000
     17597      5866  TIP3      H1             15.3885033595       22.2528777139      -31.6255796465  W2        5866            0.0000000000
     17598      5866  TIP3      H2             15.6465333595       20.8006277139      -31.2846296465  W2        5866            0.0000000000
     17599      5867  TIP3      OH2             3.3393233595       37.4015177139      -31.8695796465  W2        5867            0.0000000000
     17600      5867  TIP3      H1              2.6543133595       37.3634077139      -32.5370696465  W2        5867            0.0000000000
     17601      5867  TIP3      H2              3.3430433595       38.3142777139      -31.5813696465  W2        5867            0.0000000000
     17602      5868  TIP3      OH2             5.2992833595       23.3694477139      -34.3246796465  W2        5868            0.0000000000
     17603      5868  TIP3      H1              5.7906233595       22.7396877139      -34.8521296465  W2        5868            0.0000000000
     17604      5868  TIP3      H2              5.9229133595       23.6653877139      -33.6615596465  W2        5868            0.0000000000
     17605      5869  TIP3      OH2            10.3252933595       23.6625977139      -31.8676296465  W2        5869            0.0000000000
     17606      5869  TIP3      H1             10.5034233595       23.0159177139      -31.1847696465  W2        5869            0.0000000000
     17607      5869  TIP3      H2             10.2719133595       24.4963677139      -31.4005196465  W2        5869            0.0000000000
     17608      5870  TIP3      OH2            12.2036733595       38.6110077139      -33.4719596465  W2        5870            0.0000000000
     17609      5870  TIP3      H1             13.0696933595       38.9777477139      -33.6501396465  W2        5870            0.0000000000
     17610      5870  TIP3      H2             11.9569533595       38.1718077139      -34.2858796465  W2        5870            0.0000000000
     17611      5871  TIP3      OH2            18.9126333595       38.1740377139      -30.7928496465  W2        5871            0.0000000000
     17612      5871  TIP3      H1             18.7183433595       37.4262477139      -31.3578896465  W2        5871            0.0000000000
     17613      5871  TIP3      H2             18.8736433595       38.9320477139      -31.3760596465  W2        5871            0.0000000000
     17614      5872  TIP3      OH2             4.5598333595       22.1696777139      -19.0530796465  W2        5872            0.0000000000
     17615      5872  TIP3      H1              4.1936533595       21.4039377139      -18.6106096465  W2        5872            0.0000000000
     17616      5872  TIP3      H2              5.4726833595       22.1986977139      -18.7665696465  W2        5872            0.0000000000
     17617      5873  TIP3      OH2             6.5329133595       21.5201177139      -17.5173696465  W2        5873            0.0000000000
     17618      5873  TIP3      H1              7.4312733595       21.2461377139      -17.7020296465  W2        5873            0.0000000000
     17619      5873  TIP3      H2              6.1462233595       20.7777177139      -17.0531096465  W2        5873            0.0000000000
     17620      5874  TIP3      OH2             5.1574433595       38.3215977139      -34.8443696465  W2        5874            0.0000000000
     17621      5874  TIP3      H1              4.8899033595       38.6078877139      -33.9710596465  W2        5874            0.0000000000
     17622      5874  TIP3      H2              5.9287033595       37.7755177139      -34.6921196465  W2        5874            0.0000000000
     17623      5875  TIP3      OH2            14.9541433595       20.8526477139      -17.3350896465  W2        5875            0.0000000000
     17624      5875  TIP3      H1             15.0308633595       20.4267177139      -16.4813196465  W2        5875            0.0000000000
     17625      5875  TIP3      H2             15.8478033595       20.8661177139      -17.6777396465  W2        5875            0.0000000000
     17626      5876  TIP3      OH2            18.1302533595       36.9252777139      -18.6426696465  W2        5876            0.0000000000
     17627      5876  TIP3      H1             17.3484433595       36.7390777139      -19.1626096465  W2        5876            0.0000000000
     17628      5876  TIP3      H2             18.0582433595       37.8547077139      -18.4254196465  W2        5876            0.0000000000
     17629      5877  TIP3      OH2            32.5362933595       30.8117177139      -28.6119496465  W2        5877            0.0000000000
     17630      5877  TIP3      H1             32.6254033595       31.7555377139      -28.7442396465  W2        5877            0.0000000000
     17631      5877  TIP3      H2             31.8980533595       30.5363577139      -29.2700096465  W2        5877            0.0000000000
     17632      5878  TIP3      OH2            31.4694233595       30.0667877139      -25.1931296465  W2        5878            0.0000000000
     17633      5878  TIP3      H1             31.4311733595       29.4204177139      -24.4881696465  W2        5878            0.0000000000
     17634      5878  TIP3      H2             31.1470733595       29.6002277139      -25.9642596465  W2        5878            0.0000000000
     17635      5879  TIP3      OH2            23.8379233595       29.6809977139      -23.6001396465  W2        5879            0.0000000000
     17636      5879  TIP3      H1             23.8791333595       29.0553277139      -22.8768996465  W2        5879            0.0000000000
     17637      5879  TIP3      H2             24.5406933595       30.3048577139      -23.4180996465  W2        5879            0.0000000000
     17638      5880  TIP3      OH2            35.1754433595       33.0058277139      -26.8916196465  W2        5880            0.0000000000
     17639      5880  TIP3      H1             34.7347133595       32.2854277139      -26.4410596465  W2        5880            0.0000000000
     17640      5880  TIP3      H2             35.1624133595       33.7265477139      -26.2618496465  W2        5880            0.0000000000
     17641      5881  TIP3      OH2            24.7612333595       34.1308877139      -25.0652296465  W2        5881            0.0000000000
     17642      5881  TIP3      H1             24.3917533595       33.3289377139      -25.4347996465  W2        5881            0.0000000000
     17643      5881  TIP3      H2             25.7023433595       33.9623777139      -25.0188896465  W2        5881            0.0000000000
     17644      5882  TIP3      OH2            21.3712833595       27.7911477139      -29.6723496465  W2        5882            0.0000000000
     17645      5882  TIP3      H1             20.9236233595       28.6370177139      -29.6906996465  W2        5882            0.0000000000
     17646      5882  TIP3      H2             20.8104033595       27.2115677139      -30.1878396465  W2        5882            0.0000000000
     17647      5883  TIP3      OH2            22.0818933595       29.9531077139      -27.5465496465  W2        5883            0.0000000000
     17648      5883  TIP3      H1             22.2952433595       29.1832677139      -27.0192496465  W2        5883            0.0000000000
     17649      5883  TIP3      H2             22.8196533595       30.0427777139      -28.1497896465  W2        5883            0.0000000000
     17650      5884  TIP3      OH2            32.2869933595       38.1099977139      -26.6795796465  W2        5884            0.0000000000
     17651      5884  TIP3      H1             32.9066333595       37.4334677139      -26.9526596465  W2        5884            0.0000000000
     17652      5884  TIP3      H2             32.0787333595       37.8920777139      -25.7710896465  W2        5884            0.0000000000
     17653      5885  TIP3      OH2            29.8588633595       32.4989277139      -24.7870296465  W2        5885            0.0000000000
     17654      5885  TIP3      H1             30.1626533595       31.8130677139      -25.3816196465  W2        5885            0.0000000000
     17655      5885  TIP3      H2             30.5802633595       32.6177977139      -24.1692296465  W2        5885            0.0000000000
     17656      5886  TIP3      OH2            38.5218433595       24.1004577139      -23.9264096465  W2        5886            0.0000000000
     17657      5886  TIP3      H1             38.5710633595       24.7105777139      -23.1904996465  W2        5886            0.0000000000
     17658      5886  TIP3      H2             38.9473533595       24.5615477139      -24.6492996465  W2        5886            0.0000000000
     17659      5887  TIP3      OH2            32.9995633595       26.8931677139      -24.4595496465  W2        5887            0.0000000000
     17660      5887  TIP3      H1             33.1421533595       25.9468677139      -24.4393896465  W2        5887            0.0000000000
     17661      5887  TIP3      H2             32.8934633595       27.1001477139      -25.3880596465  W2        5887            0.0000000000
     17662      5888  TIP3      OH2            26.1543933595       24.9948077139      -27.1870696465  W2        5888            0.0000000000
     17663      5888  TIP3      H1             26.1975033595       25.8546577139      -27.6054396465  W2        5888            0.0000000000
     17664      5888  TIP3      H2             25.6968033595       24.4422777139      -27.8207496465  W2        5888            0.0000000000
     17665      5889  TIP3      OH2            33.8766633595       25.1253677139      -28.7862396465  W2        5889            0.0000000000
     17666      5889  TIP3      H1             34.5230933595       24.7966877139      -28.1614796465  W2        5889            0.0000000000
     17667      5889  TIP3      H2             34.3866033595       25.6432677139      -29.4090996465  W2        5889            0.0000000000
     17668      5890  TIP3      OH2            22.7745433595       27.3913877139      -26.4249296465  W2        5890            0.0000000000
     17669      5890  TIP3      H1             23.4282033595       26.8415577139      -25.9929196465  W2        5890            0.0000000000
     17670      5890  TIP3      H2             22.7984733595       27.1172877139      -27.3417296465  W2        5890            0.0000000000
     17671      5891  TIP3      OH2            27.9309933595       28.9415177139      -27.2097796465  W2        5891            0.0000000000
     17672      5891  TIP3      H1             28.5470933595       28.4150577139      -26.7003796465  W2        5891            0.0000000000
     17673      5891  TIP3      H2             27.3448733595       28.3013877139      -27.6134196465  W2        5891            0.0000000000
     17674      5892  TIP3      OH2            38.9133033595       25.5783777139      -21.6904296465  W2        5892            0.0000000000
     17675      5892  TIP3      H1             38.2247633595       26.2364477139      -21.7857696465  W2        5892            0.0000000000
     17676      5892  TIP3      H2             38.9287633595       25.3811677139      -20.7538896465  W2        5892            0.0000000000
     17677      5893  TIP3      OH2            24.9645833595       23.9126477139      -23.1129896465  W2        5893            0.0000000000
     17678      5893  TIP3      H1             24.7457533595       24.4427077139      -23.8793896465  W2        5893            0.0000000000
     17679      5893  TIP3      H2             24.2966733595       24.1391977139      -22.4658496465  W2        5893            0.0000000000
     17680      5894  TIP3      OH2            32.3335633595       33.4127577139      -29.5690796465  W2        5894            0.0000000000
     17681      5894  TIP3      H1             32.0380733595       33.0899877139      -30.4203896465  W2        5894            0.0000000000
     17682      5894  TIP3      H2             32.0093433595       34.3124277139      -29.5278196465  W2        5894            0.0000000000
     17683      5895  TIP3      OH2            27.5337233595       31.5882177139      -22.8256196465  W2        5895            0.0000000000
     17684      5895  TIP3      H1             26.7936333595       32.1863677139      -22.7220996465  W2        5895            0.0000000000
     17685      5895  TIP3      H2             28.2476733595       32.1421777139      -23.1412596465  W2        5895            0.0000000000
     17686      5896  TIP3      OH2            35.6405033595       24.4162977139      -26.8056496465  W2        5896            0.0000000000
     17687      5896  TIP3      H1             35.4253033595       23.6506377139      -26.2730496465  W2        5896            0.0000000000
     17688      5896  TIP3      H2             36.2962433595       24.8887577139      -26.2927996465  W2        5896            0.0000000000
     17689      5897  TIP3      OH2            24.5583133595       25.8048277139      -25.1607696465  W2        5897            0.0000000000
     17690      5897  TIP3      H1             25.1719433595       26.4375877139      -24.7875296465  W2        5897            0.0000000000
     17691      5897  TIP3      H2             25.0703833595       25.3323277139      -25.8170796465  W2        5897            0.0000000000
     17692      5898  TIP3      OH2            25.9411533595       33.5525177139      -22.0384696465  W2        5898            0.0000000000
     17693      5898  TIP3      H1             25.9359133595       34.4318677139      -22.4165396465  W2        5898            0.0000000000
     17694      5898  TIP3      H2             25.0875633595       33.4689277139      -21.6134796465  W2        5898            0.0000000000
     17695      5899  TIP3      OH2            22.0622433595       33.2233077139      -31.2565396465  W2        5899            0.0000000000
     17696      5899  TIP3      H1             21.7903333595       33.4524077139      -32.1452496465  W2        5899            0.0000000000
     17697      5899  TIP3      H2             22.1078133595       34.0611877139      -30.7960096465  W2        5899            0.0000000000
     17698      5900  TIP3      OH2            35.6872133595       34.8448977139      -24.5436896465  W2        5900            0.0000000000
     17699      5900  TIP3      H1             34.7455833595       34.9032877139      -24.3819996465  W2        5900            0.0000000000
     17700      5900  TIP3      H2             35.9638233595       35.7509477139      -24.6807196465  W2        5900            0.0000000000
     17701      5901  TIP3      OH2            35.9879133595       23.1314277139      -23.1262996465  W2        5901            0.0000000000
     17702      5901  TIP3      H1             35.2518333595       23.7421377139      -23.1641696465  W2        5901            0.0000000000
     17703      5901  TIP3      H2             36.6713133595       23.5463277139      -23.6526596465  W2        5901            0.0000000000
     17704      5902  TIP3      OH2            28.9910533595       21.2181577139      -25.6604996465  W2        5902            0.0000000000
     17705      5902  TIP3      H1             28.8734733595       20.2697577139      -25.7146696465  W2        5902            0.0000000000
     17706      5902  TIP3      H2             28.1360633595       21.5507677139      -25.3873896465  W2        5902            0.0000000000
     17707      5903  TIP3      OH2            33.9393333595       36.6262477139      -27.9185296465  W2        5903            0.0000000000
     17708      5903  TIP3      H1             34.3645633595       35.9190377139      -28.4035696465  W2        5903            0.0000000000
     17709      5903  TIP3      H2             34.2563333595       37.4275177139      -28.3353096465  W2        5903            0.0000000000
     17710      5904  TIP3      OH2            35.0989833595       34.5270977139      -29.4098696465  W2        5904            0.0000000000
     17711      5904  TIP3      H1             34.8414633595       33.8371077139      -30.0212796465  W2        5904            0.0000000000
     17712      5904  TIP3      H2             35.1700633595       34.0842177139      -28.5642796465  W2        5904            0.0000000000
     17713      5905  TIP3      OH2            36.7850033595       33.0937677139      -20.9325196465  W2        5905            0.0000000000
     17714      5905  TIP3      H1             36.9246333595       32.5020177139      -21.6718196465  W2        5905            0.0000000000
     17715      5905  TIP3      H2             36.9522833595       33.9663577139      -21.2886396465  W2        5905            0.0000000000
     17716      5906  TIP3      OH2            31.2575433595       30.0557177139      -31.1599196465  W2        5906            0.0000000000
     17717      5906  TIP3      H1             30.5460933595       30.5906877139      -31.5118696465  W2        5906            0.0000000000
     17718      5906  TIP3      H2             31.9485033595       30.1109277139      -31.8200296465  W2        5906            0.0000000000
     17719      5907  TIP3      OH2            31.3114633595       28.5131477139      -34.1214196465  W2        5907            0.0000000000
     17720      5907  TIP3      H1             32.0124533595       28.5358377139      -33.4700196465  W2        5907            0.0000000000
     17721      5907  TIP3      H2             31.6137533595       27.8851177139      -34.7774896465  W2        5907            0.0000000000
     17722      5908  TIP3      OH2            38.6269333595       29.4335677139      -22.8664796465  W2        5908            0.0000000000
     17723      5908  TIP3      H1             37.9743433595       30.1281277139      -22.7773896465  W2        5908            0.0000000000
     17724      5908  TIP3      H2             39.0919633595       29.6436577139      -23.6763196465  W2        5908            0.0000000000
     17725      5909  TIP3      OH2            34.6633133595       30.2650477139      -30.2083296465  W2        5909            0.0000000000
     17726      5909  TIP3      H1             33.9314133595       30.4934177139      -29.6352696465  W2        5909            0.0000000000
     17727      5909  TIP3      H2             35.1105333595       29.5513177139      -29.7535796465  W2        5909            0.0000000000
     17728      5910  TIP3      OH2            34.5606633595       28.4393077139      -21.1406296465  W2        5910            0.0000000000
     17729      5910  TIP3      H1             34.6405733595       29.2027477139      -20.5687796465  W2        5910            0.0000000000
     17730      5910  TIP3      H2             33.9594333595       28.7185477139      -21.8311196465  W2        5910            0.0000000000
     17731      5911  TIP3      OH2            26.3086833595       30.8956677139      -28.3258296465  W2        5911            0.0000000000
     17732      5911  TIP3      H1             25.9782033595       30.5250077139      -29.1441296465  W2        5911            0.0000000000
     17733      5911  TIP3      H2             26.8970933595       30.2250677139      -27.9789996465  W2        5911            0.0000000000
     17734      5912  TIP3      OH2            27.6754333595       34.3237277139      -25.6446096465  W2        5912            0.0000000000
     17735      5912  TIP3      H1             27.5805633595       33.7450377139      -26.4011496465  W2        5912            0.0000000000
     17736      5912  TIP3      H2             28.4047933595       33.9522977139      -25.1483296465  W2        5912            0.0000000000
     17737      5913  TIP3      OH2            26.6752333595       29.6642277139      -24.6923296465  W2        5913            0.0000000000
     17738      5913  TIP3      H1             27.2404833595       29.7856477139      -25.4552096465  W2        5913            0.0000000000
     17739      5913  TIP3      H2             26.9941233595       30.3017277139      -24.0534796465  W2        5913            0.0000000000
     17740      5914  TIP3      OH2            32.9844533595       35.1674177139      -23.9582796465  W2        5914            0.0000000000
     17741      5914  TIP3      H1             32.7441133595       35.8297277139      -23.3103596465  W2        5914            0.0000000000
     17742      5914  TIP3      H2             32.7862733595       34.3329377139      -23.5333196465  W2        5914            0.0000000000
     17743      5915  TIP3      OH2            27.5553033595       34.0634977139      -19.9751396465  W2        5915            0.0000000000
     17744      5915  TIP3      H1             27.2440533595       34.8458177139      -19.5198196465  W2        5915            0.0000000000
     17745      5915  TIP3      H2             26.9053233595       33.9104077139      -20.6609396465  W2        5915            0.0000000000
     17746      5916  TIP3      OH2            33.5342633595       29.4273377139      -32.5232096465  W2        5916            0.0000000000
     17747      5916  TIP3      H1             34.1138133595       29.5773677139      -31.7763196465  W2        5916            0.0000000000
     17748      5916  TIP3      H2             33.9482633595       29.8980777139      -33.2465696465  W2        5916            0.0000000000
     17749      5917  TIP3      OH2            24.4752933595       30.2616077139      -20.7465696465  W2        5917            0.0000000000
     17750      5917  TIP3      H1             24.5456133595       30.9122877139      -20.0480696465  W2        5917            0.0000000000
     17751      5917  TIP3      H2             23.5845133595       30.3643577139      -21.0814796465  W2        5917            0.0000000000
     17752      5918  TIP3      OH2            31.2607533595       36.1641877139      -29.0878996465  W2        5918            0.0000000000
     17753      5918  TIP3      H1             31.7345133595       36.4598177139      -28.3104796465  W2        5918            0.0000000000
     17754      5918  TIP3      H2             30.6976833595       36.9023477139      -29.3209396465  W2        5918            0.0000000000
     17755      5919  TIP3      OH2            25.7948933595       36.1349977139      -19.2117596465  W2        5919            0.0000000000
     17756      5919  TIP3      H1             25.8024233595       35.9989677139      -20.1592096465  W2        5919            0.0000000000
     17757      5919  TIP3      H2             24.8789333595       36.0178077139      -18.9597596465  W2        5919            0.0000000000
     17758      5920  TIP3      OH2            37.2331033595       21.1773777139      -32.7102396465  W2        5920            0.0000000000
     17759      5920  TIP3      H1             36.3331733595       21.3162777139      -32.4151796465  W2        5920            0.0000000000
     17760      5920  TIP3      H2             37.4849433595       22.0088377139      -33.1120696465  W2        5920            0.0000000000
     17761      5921  TIP3      OH2            25.2989533595       29.9650977139      -30.7365496465  W2        5921            0.0000000000
     17762      5921  TIP3      H1             25.0070833595       30.7332677139      -31.2274196465  W2        5921            0.0000000000
     17763      5921  TIP3      H2             24.6244733595       29.3057177139      -30.8994096465  W2        5921            0.0000000000
     17764      5922  TIP3      OH2            38.4222433595       35.5436177139      -34.3338496465  W2        5922            0.0000000000
     17765      5922  TIP3      H1             38.4955933595       36.4826377139      -34.1633196465  W2        5922            0.0000000000
     17766      5922  TIP3      H2             39.3277533595       35.2384777139      -34.3901196465  W2        5922            0.0000000000
     17767      5923  TIP3      OH2            21.3919633595       32.3280177139      -21.9215696465  W2        5923            0.0000000000
     17768      5923  TIP3      H1             20.8908033595       32.2999577139      -22.7365996465  W2        5923            0.0000000000
     17769      5923  TIP3      H2             21.3973333595       31.4223377139      -21.6118396465  W2        5923            0.0000000000
     17770      5924  TIP3      OH2            21.1422333595       35.1083977139      -25.0375496465  W2        5924            0.0000000000
     17771      5924  TIP3      H1             22.0882933595       34.9640977139      -25.0565996465  W2        5924            0.0000000000
     17772      5924  TIP3      H2             21.0298633595       35.8926777139      -24.5004296465  W2        5924            0.0000000000
     17773      5925  TIP3      OH2            39.3400833595       35.7743677139      -19.3551796465  W2        5925            0.0000000000
     17774      5925  TIP3      H1             39.2907633595       34.8191777139      -19.3924196465  W2        5925            0.0000000000
     17775      5925  TIP3      H2             38.5133133595       36.0418977139      -18.9537996465  W2        5925            0.0000000000
     17776      5926  TIP3      OH2            30.3184833595       35.3482877139      -20.4790396465  W2        5926            0.0000000000
     17777      5926  TIP3      H1             30.4059433595       36.1747477139      -20.0041296465  W2        5926            0.0000000000
     17778      5926  TIP3      H2             29.4549933595       35.0186677139      -20.2301096465  W2        5926            0.0000000000
     17779      5927  TIP3      OH2            30.7330633595       39.1206577139      -30.6729796465  W2        5927            0.0000000000
     17780      5927  TIP3      H1             30.6576633595       38.9993777139      -31.6194596465  W2        5927            0.0000000000
     17781      5927  TIP3      H2             30.7659333595       40.0699277139      -30.5545196465  W2        5927            0.0000000000
     17782      5928  TIP3      OH2            24.3864433595       37.9093577139      -28.8920796465  W2        5928            0.0000000000
     17783      5928  TIP3      H1             24.5384833595       37.5613977139      -28.0134296465  W2        5928            0.0000000000
     17784      5928  TIP3      H2             23.5354833595       37.5530877139      -29.1473596465  W2        5928            0.0000000000
     17785      5929  TIP3      OH2            33.8346633595       38.2746777139      -33.6707396465  W2        5929            0.0000000000
     17786      5929  TIP3      H1             34.2095033595       37.5302877139      -34.1414796465  W2        5929            0.0000000000
     17787      5929  TIP3      H2             33.8390333595       38.0047377139      -32.7524096465  W2        5929            0.0000000000
     17788      5930  TIP3      OH2            33.5034733595       38.2003877139      -30.9215196465  W2        5930            0.0000000000
     17789      5930  TIP3      H1             32.5684533595       38.3005777139      -30.7428196465  W2        5930            0.0000000000
     17790      5930  TIP3      H2             33.7836633595       37.4909877139      -30.3431996465  W2        5930            0.0000000000
     17791      5931  TIP3      OH2            36.4920633595       27.2676177139      -18.8749596465  W2        5931            0.0000000000
     17792      5931  TIP3      H1             36.0847433595       27.7481777139      -19.5956296465  W2        5931            0.0000000000
     17793      5931  TIP3      H2             36.5326333595       26.3622177139      -19.1828796465  W2        5931            0.0000000000
     17794      5932  TIP3      OH2            23.6410133595       33.6515577139      -20.8782896465  W2        5932            0.0000000000
     17795      5932  TIP3      H1             23.8571433595       33.2901177139      -20.0187096465  W2        5932            0.0000000000
     17796      5932  TIP3      H2             22.7854833595       33.2769377139      -21.0879396465  W2        5932            0.0000000000
     17797      5933  TIP3      OH2            26.2598133595       22.1216077139      -24.8828696465  W2        5933            0.0000000000
     17798      5933  TIP3      H1             25.3981833595       22.0344277139      -25.2905796465  W2        5933            0.0000000000
     17799      5933  TIP3      H2             26.2373833595       22.9776177139      -24.4551096465  W2        5933            0.0000000000
     17800      5934  TIP3      OH2            30.9225933595       21.8436477139      -21.5081696465  W2        5934            0.0000000000
     17801      5934  TIP3      H1             31.3429033595       21.4283577139      -20.7551096465  W2        5934            0.0000000000
     17802      5934  TIP3      H2             29.9895533595       21.6649777139      -21.3909696465  W2        5934            0.0000000000
     17803      5935  TIP3      OH2            34.2490833595       25.5991677139      -20.6547196465  W2        5935            0.0000000000
     17804      5935  TIP3      H1             33.7350333595       25.4733877139      -19.8571196465  W2        5935            0.0000000000
     17805      5935  TIP3      H2             34.0935533595       26.5114777139      -20.8990996465  W2        5935            0.0000000000
     17806      5936  TIP3      OH2            35.0115733595       30.4601677139      -34.8934196465  W2        5936            0.0000000000
     17807      5936  TIP3      H1             35.0536533595       30.2375577139      -35.8234196465  W2        5936            0.0000000000
     17808      5936  TIP3      H2             35.8607833595       30.8588777139      -34.7034296465  W2        5936            0.0000000000
     17809      5937  TIP3      OH2            30.5843233595       24.3359877139      -34.2230896465  W2        5937            0.0000000000
     17810      5937  TIP3      H1             30.3308033595       24.3551477139      -33.3002796465  W2        5937            0.0000000000
     17811      5937  TIP3      H2             30.3275333595       23.4645277139      -34.5244696465  W2        5937            0.0000000000
     17812      5938  TIP3      OH2            26.3508233595       27.0870577139      -23.7878496465  W2        5938            0.0000000000
     17813      5938  TIP3      H1             25.7090333595       27.0467877139      -23.0788396465  W2        5938            0.0000000000
     17814      5938  TIP3      H2             26.3880233595       28.0135277139      -24.0255496465  W2        5938            0.0000000000
     17815      5939  TIP3      OH2            26.3477333595       27.3080677139      -28.8758496465  W2        5939            0.0000000000
     17816      5939  TIP3      H1             25.4550233595       26.9676777139      -28.9344696465  W2        5939            0.0000000000
     17817      5939  TIP3      H2             26.7983933595       26.9311577139      -29.6315296465  W2        5939            0.0000000000
     17818      5940  TIP3      OH2            31.8832833595       27.7240977139      -30.0587696465  W2        5940            0.0000000000
     17819      5940  TIP3      H1             31.4743133595       28.5389577139      -30.3502896465  W2        5940            0.0000000000
     17820      5940  TIP3      H2             32.6039033595       27.5841077139      -30.6730596465  W2        5940            0.0000000000
     17821      5941  TIP3      OH2            30.9854433595       27.8997377139      -18.5706996465  W2        5941            0.0000000000
     17822      5941  TIP3      H1             30.4228233595       27.1948977139      -18.2499196465  W2        5941            0.0000000000
     17823      5941  TIP3      H2             31.8117833595       27.7789277139      -18.1029396465  W2        5941            0.0000000000
     17824      5942  TIP3      OH2            32.8880533595       27.1701377139      -27.2447996465  W2        5942            0.0000000000
     17825      5942  TIP3      H1             32.6925033595       27.7758177139      -27.9597396465  W2        5942            0.0000000000
     17826      5942  TIP3      H2             33.0693133595       26.3366577139      -27.6791696465  W2        5942            0.0000000000
     17827      5943  TIP3      OH2            24.1008733595       27.4074077139      -21.9206496465  W2        5943            0.0000000000
     17828      5943  TIP3      H1             24.0628133595       27.8075677139      -21.0519396465  W2        5943            0.0000000000
     17829      5943  TIP3      H2             23.6099833595       26.5906477139      -21.8303596465  W2        5943            0.0000000000
     17830      5944  TIP3      OH2            27.4666133595       24.7816377139      -35.1220496465  W2        5944            0.0000000000
     17831      5944  TIP3      H1             27.0356833595       24.3366477139      -34.3923096465  W2        5944            0.0000000000
     17832      5944  TIP3      H2             26.7484833595       25.1532677139      -35.6342996465  W2        5944            0.0000000000
     17833      5945  TIP3      OH2            20.7089533595       24.5235877139      -28.0701796465  W2        5945            0.0000000000
     17834      5945  TIP3      H1             21.3397233595       24.4947977139      -27.3507896465  W2        5945            0.0000000000
     17835      5945  TIP3      H2             21.1583833595       24.0984577139      -28.8005896465  W2        5945            0.0000000000
     17836      5946  TIP3      OH2            21.9831633595       25.2697877139      -32.6461396465  W2        5946            0.0000000000
     17837      5946  TIP3      H1             22.4573333595       25.8607777139      -33.2310496465  W2        5946            0.0000000000
     17838      5946  TIP3      H2             21.2658033595       25.8000777139      -32.2991296465  W2        5946            0.0000000000
     17839      5947  TIP3      OH2            32.1519733595       28.8082677139      -22.5735596465  W2        5947            0.0000000000
     17840      5947  TIP3      H1             32.4754533595       28.1772377139      -23.2165096465  W2        5947            0.0000000000
     17841      5947  TIP3      H2             31.7119033595       28.2734877139      -21.9128196465  W2        5947            0.0000000000
     17842      5948  TIP3      OH2            28.9292633595       24.7358177139      -27.7894396465  W2        5948            0.0000000000
     17843      5948  TIP3      H1             28.0183733595       24.7924977139      -27.5008396465  W2        5948            0.0000000000
     17844      5948  TIP3      H2             29.4345533595       24.6753677139      -26.9787196465  W2        5948            0.0000000000
     17845      5949  TIP3      OH2            23.7576033595       26.3644477139      -28.9626796465  W2        5949            0.0000000000
     17846      5949  TIP3      H1             22.8684033595       26.4639977139      -29.3027196465  W2        5949            0.0000000000
     17847      5949  TIP3      H2             24.0540933595       25.5227477139      -29.3088896465  W2        5949            0.0000000000
     17848      5950  TIP3      OH2            27.4107833595       26.3647077139      -31.3062196465  W2        5950            0.0000000000
     17849      5950  TIP3      H1             28.3423333595       26.4937077139      -31.1279096465  W2        5950            0.0000000000
     17850      5950  TIP3      H2             27.1958133595       27.0341377139      -31.9557496465  W2        5950            0.0000000000
     17851      5951  TIP3      OH2            33.3344533595       23.9704477139      -24.5252596465  W2        5951            0.0000000000
     17852      5951  TIP3      H1             32.6576133595       24.1017577139      -23.8612896465  W2        5951            0.0000000000
     17853      5951  TIP3      H2             32.8489433595       23.8153977139      -25.3354896465  W2        5951            0.0000000000
     17854      5952  TIP3      OH2            26.0848033595       27.5589277139      -33.7396096465  W2        5952            0.0000000000
     17855      5952  TIP3      H1             25.5423133595       27.1793077139      -34.4308496465  W2        5952            0.0000000000
     17856      5952  TIP3      H2             26.9182933595       27.7533977139      -34.1681996465  W2        5952            0.0000000000
     17857      5953  TIP3      OH2            36.6219633595       39.6419877139      -18.2484996465  W2        5953            0.0000000000
     17858      5953  TIP3      H1             36.8218333595       40.0661777139      -19.0829696465  W2        5953            0.0000000000
     17859      5953  TIP3      H2             37.2773333595       39.9858077139      -17.6414596465  W2        5953            0.0000000000
     17860      5954  TIP3      OH2            24.2199433595       32.1161177139      -18.6404496465  W2        5954            0.0000000000
     17861      5954  TIP3      H1             24.9521833595       32.3707077139      -18.0789996465  W2        5954            0.0000000000
     17862      5954  TIP3      H2             23.4398133595       32.3206577139      -18.1249096465  W2        5954            0.0000000000
     17863      5955  TIP3      OH2            30.2492333595       27.5231177139      -25.9024796465  W2        5955            0.0000000000
     17864      5955  TIP3      H1             30.8135733595       26.9767777139      -26.4495196465  W2        5955            0.0000000000
     17865      5955  TIP3      H2             30.1015733595       27.0013077139      -25.1137196465  W2        5955            0.0000000000
     17866      5956  TIP3      OH2            25.2512033595       23.6597277139      -29.4839996465  W2        5956            0.0000000000
     17867      5956  TIP3      H1             24.9341533595       22.7572577139      -29.5194596465  W2        5956            0.0000000000
     17868      5956  TIP3      H2             26.0326133595       23.6614677139      -30.0368396465  W2        5956            0.0000000000
     17869      5957  TIP3      OH2            28.8758233595       25.9117277139      -23.4884396465  W2        5957            0.0000000000
     17870      5957  TIP3      H1             28.0403533595       26.3656777139      -23.3781996465  W2        5957            0.0000000000
     17871      5957  TIP3      H2             29.3998833595       26.1875777139      -22.7364496465  W2        5957            0.0000000000
     17872      5958  TIP3      OH2            29.4200833595       32.1244977139      -31.8037996465  W2        5958            0.0000000000
     17873      5958  TIP3      H1             28.6751833595       31.6170277139      -32.1260096465  W2        5958            0.0000000000
     17874      5958  TIP3      H2             29.2858033595       32.1732977139      -30.8573196465  W2        5958            0.0000000000
     17875      5959  TIP3      OH2            36.5699733595       31.2573177139      -23.0170396465  W2        5959            0.0000000000
     17876      5959  TIP3      H1             37.2118533595       31.7139477139      -23.5608196465  W2        5959            0.0000000000
     17877      5959  TIP3      H2             35.7396633595       31.3705577139      -23.4796296465  W2        5959            0.0000000000
     17878      5960  TIP3      OH2            33.3177633595       24.9384877139      -33.6045396465  W2        5960            0.0000000000
     17879      5960  TIP3      H1             32.3791833595       25.0500477139      -33.7556596465  W2        5960            0.0000000000
     17880      5960  TIP3      H2             33.6149733595       25.7951777139      -33.2979696465  W2        5960            0.0000000000
     17881      5961  TIP3      OH2            30.9392933595       32.3088277139      -20.5668896465  W2        5961            0.0000000000
     17882      5961  TIP3      H1             30.5939033595       31.9270677139      -19.7599296465  W2        5961            0.0000000000
     17883      5961  TIP3      H2             30.7393033595       33.2421877139      -20.4955996465  W2        5961            0.0000000000
     17884      5962  TIP3      OH2            34.0361133595       26.8057577139      -31.9437996465  W2        5962            0.0000000000
     17885      5962  TIP3      H1             34.9280133595       26.6682577139      -31.6246796465  W2        5962            0.0000000000
     17886      5962  TIP3      H2             34.0924733595       27.5963677139      -32.4804496465  W2        5962            0.0000000000
     17887      5963  TIP3      OH2            24.5449133595       31.4194977139      -26.0340096465  W2        5963            0.0000000000
     17888      5963  TIP3      H1             25.2896333595       31.4170677139      -26.6353596465  W2        5963            0.0000000000
     17889      5963  TIP3      H2             24.6225733595       30.5958777139      -25.5524996465  W2        5963            0.0000000000
     17890      5964  TIP3      OH2            31.5454933595       33.5829277139      -32.7783396465  W2        5964            0.0000000000
     17891      5964  TIP3      H1             31.2503333595       34.4097177139      -32.3968596465  W2        5964            0.0000000000
     17892      5964  TIP3      H2             30.8424933595       32.9636177139      -32.5821996465  W2        5964            0.0000000000
     17893      5965  TIP3      OH2            21.5528833595       29.8801877139      -20.7191596465  W2        5965            0.0000000000
     17894      5965  TIP3      H1             21.7757433595       29.4621477139      -19.8874096465  W2        5965            0.0000000000
     17895      5965  TIP3      H2             20.9508933595       29.2676877139      -21.1418796465  W2        5965            0.0000000000
     17896      5966  TIP3      OH2            28.5693733595       29.3971777139      -18.5061896465  W2        5966            0.0000000000
     17897      5966  TIP3      H1             28.2734533595       29.2314777139      -19.4012796465  W2        5966            0.0000000000
     17898      5966  TIP3      H2             29.5008933595       29.1772077139      -18.5167996465  W2        5966            0.0000000000
     17899      5967  TIP3      OH2            33.1896533595       34.7703777139      -20.6163896465  W2        5967            0.0000000000
     17900      5967  TIP3      H1             32.2890833595       34.9536377139      -20.8839996465  W2        5967            0.0000000000
     17901      5967  TIP3      H2             33.2237633595       35.0293077139      -19.6955096465  W2        5967            0.0000000000
     17902      5968  TIP3      OH2            38.9209833595       27.0151677139      -32.2491296465  W2        5968            0.0000000000
     17903      5968  TIP3      H1             38.3666133595       26.6189677139      -32.9213796465  W2        5968            0.0000000000
     17904      5968  TIP3      H2             39.0213433595       27.9256877139      -32.5267996465  W2        5968            0.0000000000
     17905      5969  TIP3      OH2            38.8841833595       32.8153377139      -19.4119796465  W2        5969            0.0000000000
     17906      5969  TIP3      H1             38.0330333595       33.0537177139      -19.7793396465  W2        5969            0.0000000000
     17907      5969  TIP3      H2             39.4745233595       32.7986577139      -20.1652696465  W2        5969            0.0000000000
     17908      5970  TIP3      OH2            37.2161533595       35.8012077139      -31.7839196465  W2        5970            0.0000000000
     17909      5970  TIP3      H1             36.8432633595       34.9755877139      -31.4748596465  W2        5970            0.0000000000
     17910      5970  TIP3      H2             37.4935033595       35.6181477139      -32.6815796465  W2        5970            0.0000000000
     17911      5971  TIP3      OH2            34.3765433595       30.6091577139      -24.7627296465  W2        5971            0.0000000000
     17912      5971  TIP3      H1             33.4482333595       30.3773477139      -24.7897996465  W2        5971            0.0000000000
     17913      5971  TIP3      H2             34.8276533595       29.8321377139      -25.0928496465  W2        5971            0.0000000000
     17914      5972  TIP3      OH2            26.9198533595       34.9373177139      -28.6298596465  W2        5972            0.0000000000
     17915      5972  TIP3      H1             27.4470733595       35.7107577139      -28.8299796465  W2        5972            0.0000000000
     17916      5972  TIP3      H2             26.0397033595       35.1622377139      -28.9314596465  W2        5972            0.0000000000
     17917      5973  TIP3      OH2            22.6746233595       29.7997277139      -34.0426196465  W2        5973            0.0000000000
     17918      5973  TIP3      H1             23.2906133595       30.4264477139      -33.6631396465  W2        5973            0.0000000000
     17919      5973  TIP3      H2             21.8128833595       30.1157077139      -33.7709696465  W2        5973            0.0000000000
     17920      5974  TIP3      OH2            28.3470833595       32.6003077139      -29.0534296465  W2        5974            0.0000000000
     17921      5974  TIP3      H1             28.1060833595       33.5257477139      -29.0118996465  W2        5974            0.0000000000
     17922      5974  TIP3      H2             27.6064433595       32.1414377139      -28.6570396465  W2        5974            0.0000000000
     17923      5975  TIP3      OH2            28.8617433595       36.7496677139      -22.7383196465  W2        5975            0.0000000000
     17924      5975  TIP3      H1             29.2242133595       37.6042277139      -22.9718796465  W2        5975            0.0000000000
     17925      5975  TIP3      H2             29.3932633595       36.4578277139      -21.9976896465  W2        5975            0.0000000000
     17926      5976  TIP3      OH2            27.0301633595       37.6220677139      -29.5082096465  W2        5976            0.0000000000
     17927      5976  TIP3      H1             26.0802133595       37.7278077139      -29.4568796465  W2        5976            0.0000000000
     17928      5976  TIP3      H2             27.3819733595       38.4428077139      -29.1634596465  W2        5976            0.0000000000
     17929      5977  TIP3      OH2            32.4058233595       32.8487377139      -23.0377596465  W2        5977            0.0000000000
     17930      5977  TIP3      H1             31.9799533595       32.6209077139      -22.2113596465  W2        5977            0.0000000000
     17931      5977  TIP3      H2             32.9864033595       32.1099177139      -23.2202296465  W2        5977            0.0000000000
     17932      5978  TIP3      OH2            34.6087133595       33.7777877139      -33.9638596465  W2        5978            0.0000000000
     17933      5978  TIP3      H1             34.9620233595       33.3977677139      -33.1595096465  W2        5978            0.0000000000
     17934      5978  TIP3      H2             33.6600633595       33.6842677139      -33.8769296465  W2        5978            0.0000000000
     17935      5979  TIP3      OH2            35.0642433595       37.4006877139      -20.5682796465  W2        5979            0.0000000000
     17936      5979  TIP3      H1             34.4625633595       36.8449777139      -21.0636496465  W2        5979            0.0000000000
     17937      5979  TIP3      H2             35.3456133595       38.0676677139      -21.1945396465  W2        5979            0.0000000000
     17938      5980  TIP3      OH2            39.1121533595       38.2570377139      -33.7628396465  W2        5980            0.0000000000
     17939      5980  TIP3      H1             39.8559433595       38.8430877139      -33.9026796465  W2        5980            0.0000000000
     17940      5980  TIP3      H2             38.4179633595       38.8256177139      -33.4295996465  W2        5980            0.0000000000
     17941      5981  TIP3      OH2            23.1868333595       24.6334577139      -21.1610196465  W2        5981            0.0000000000
     17942      5981  TIP3      H1             22.2940633595       24.9719977139      -21.2286196465  W2        5981            0.0000000000
     17943      5981  TIP3      H2             23.0881133595       23.7780677139      -20.7429396465  W2        5981            0.0000000000
     17944      5982  TIP3      OH2            35.4746433595       32.4499877139      -31.7370696465  W2        5982            0.0000000000
     17945      5982  TIP3      H1             35.1974033595       31.7219177139      -31.1809596465  W2        5982            0.0000000000
     17946      5982  TIP3      H2             36.4019433595       32.5691877139      -31.5318096465  W2        5982            0.0000000000
     17947      5983  TIP3      OH2            22.8380333595       36.4378977139      -22.7260796465  W2        5983            0.0000000000
     17948      5983  TIP3      H1             23.0550633595       35.5061377139      -22.7571096465  W2        5983            0.0000000000
     17949      5983  TIP3      H2             23.0843833595       36.7123977139      -21.8427996465  W2        5983            0.0000000000
     17950      5984  TIP3      OH2            28.6994933595       34.8893977139      -35.5168596465  W2        5984            0.0000000000
     17951      5984  TIP3      H1             28.9384733595       34.1412077139      -36.0639696465  W2        5984            0.0000000000
     17952      5984  TIP3      H2             28.4306233595       34.5015677139      -34.6840796465  W2        5984            0.0000000000
     17953      5985  TIP3      OH2            27.6365533595       34.4597777139      -33.0605996465  W2        5985            0.0000000000
     17954      5985  TIP3      H1             27.7833533595       33.9397577139      -32.2705096465  W2        5985            0.0000000000
     17955      5985  TIP3      H2             27.6337233595       35.3665377139      -32.7540096465  W2        5985            0.0000000000
     17956      5986  TIP3      OH2            24.0896633595       31.7121077139      -32.5500596465  W2        5986            0.0000000000
     17957      5986  TIP3      H1             23.4035933595       32.0643577139      -31.9830896465  W2        5986            0.0000000000
     17958      5986  TIP3      H2             24.6124533595       32.4750677139      -32.7966296465  W2        5986            0.0000000000
     17959      5987  TIP3      OH2            31.9211733595       24.3744877139      -22.2711596465  W2        5987            0.0000000000
     17960      5987  TIP3      H1             32.6199633595       24.4483577139      -21.6211896465  W2        5987            0.0000000000
     17961      5987  TIP3      H2             31.5403133595       23.5099877139      -22.1168696465  W2        5987            0.0000000000
     17962      5988  TIP3      OH2            32.7056633595       24.0266577139      -31.1739296465  W2        5988            0.0000000000
     17963      5988  TIP3      H1             32.9254933595       24.4981977139      -31.9773896465  W2        5988            0.0000000000
     17964      5988  TIP3      H2             33.2640633595       24.4209177139      -30.5038696465  W2        5988            0.0000000000
     17965      5989  TIP3      OH2            30.3742733595       36.1571377139      -32.3111796465  W2        5989            0.0000000000
     17966      5989  TIP3      H1             29.5578833595       36.6541077139      -32.2587496465  W2        5989            0.0000000000
     17967      5989  TIP3      H2             30.9039033595       36.6324877139      -32.9512996465  W2        5989            0.0000000000
     17968      5990  TIP3      OH2            29.9056533595       25.7545377139      -30.3390896465  W2        5990            0.0000000000
     17969      5990  TIP3      H1             30.7179133595       26.2588577139      -30.2929196465  W2        5990            0.0000000000
     17970      5990  TIP3      H2             29.6609533595       25.6095077139      -29.4251296465  W2        5990            0.0000000000
     17971      5991  TIP3      OH2            30.4412933595       26.7408077139      -21.1544296465  W2        5991            0.0000000000
     17972      5991  TIP3      H1             30.5603233595       27.3143477139      -20.3973896465  W2        5991            0.0000000000
     17973      5991  TIP3      H2             31.0967533595       26.0527477139      -21.0396496465  W2        5991            0.0000000000
     17974      5992  TIP3      OH2            30.7893233595       22.8358377139      -29.4009796465  W2        5992            0.0000000000
     17975      5992  TIP3      H1             30.4426733595       23.4528977139      -28.7565496465  W2        5992            0.0000000000
     17976      5992  TIP3      H2             31.4480133595       23.3364077139      -29.8824296465  W2        5992            0.0000000000
     17977      5993  TIP3      OH2            27.7125833595       37.2008577139      -32.3294896465  W2        5993            0.0000000000
     17978      5993  TIP3      H1             27.8734533595       38.0006077139      -32.8302296465  W2        5993            0.0000000000
     17979      5993  TIP3      H2             27.5153633595       37.5074577139      -31.4444296465  W2        5993            0.0000000000
     17980      5994  TIP3      OH2            26.4470233595       23.8987777139      -32.7137296465  W2        5994            0.0000000000
     17981      5994  TIP3      H1             26.3635033595       24.7870877139      -32.3670896465  W2        5994            0.0000000000
     17982      5994  TIP3      H2             27.3370533595       23.6334477139      -32.4820496465  W2        5994            0.0000000000
     17983      5995  TIP3      OH2            36.6458733595       24.6478377139      -20.3194596465  W2        5995            0.0000000000
     17984      5995  TIP3      H1             35.7294533595       24.9100077139      -20.4070896465  W2        5995            0.0000000000
     17985      5995  TIP3      H2             36.9813733595       24.6447377139      -21.2159296465  W2        5995            0.0000000000
     17986      5996  TIP3      OH2            35.2479733595       28.3979377139      -26.2237296465  W2        5996            0.0000000000
     17987      5996  TIP3      H1             34.4504133595       27.9829577139      -26.5522296465  W2        5996            0.0000000000
     17988      5996  TIP3      H2             35.6930833595       27.7073077139      -25.7326796465  W2        5996            0.0000000000
     17989      5997  TIP3      OH2            24.7055533595       34.3259977139      -33.6532796465  W2        5997            0.0000000000
     17990      5997  TIP3      H1             25.2977033595       35.0254777139      -33.3770396465  W2        5997            0.0000000000
     17991      5997  TIP3      H2             25.1648533595       33.8929477139      -34.3728196465  W2        5997            0.0000000000
     17992      5998  TIP3      OH2            23.0214733595       26.9902977139      -34.5373396465  W2        5998            0.0000000000
     17993      5998  TIP3      H1             22.9767333595       27.9296077139      -34.3586396465  W2        5998            0.0000000000
     17994      5998  TIP3      H2             22.1337933595       26.7547877139      -34.8071296465  W2        5998            0.0000000000
     17995      5999  TIP3      OH2            36.3344333595       37.6541877139      -24.6013796465  W2        5999            0.0000000000
     17996      5999  TIP3      H1             36.1788633595       38.3326277139      -25.2584496465  W2        5999            0.0000000000
     17997      5999  TIP3      H2             37.2670733595       37.7261177139      -24.3983196465  W2        5999            0.0000000000
     17998      6000  TIP3      OH2            23.8296733595       21.7719577139      -25.8642396465  W2        6000            0.0000000000
     17999      6000  TIP3      H1             23.6006533595       21.8312077139      -26.7917396465  W2        6000            0.0000000000
     18000      6000  TIP3      H2             23.3870133595       20.9805077139      -25.5578296465  W2        6000            0.0000000000
     18001      6001  TIP3      OH2            22.7600033595       35.7126677139      -29.7036596465  W2        6001            0.0000000000
     18002      6001  TIP3      H1             21.9278633595       36.1849377139      -29.6765196465  W2        6001            0.0000000000
     18003      6001  TIP3      H2             23.3058333595       36.2224277139      -30.3023496465  W2        6001            0.0000000000
     18004      6002  TIP3      OH2            22.0483733595       38.3250377139      -18.3738596465  W2        6002            0.0000000000
     18005      6002  TIP3      H1             22.5885933595       38.1084377139      -17.6139396465  W2        6002            0.0000000000
     18006      6002  TIP3      H2             21.5671733595       37.5196377139      -18.5636096465  W2        6002            0.0000000000
     18007      6003  TIP3      OH2            26.6457133595       37.2444777139      -16.7534396465  W2        6003            0.0000000000
     18008      6003  TIP3      H1             27.4134333595       36.7855577139      -16.4125196465  W2        6003            0.0000000000
     18009      6003  TIP3      H2             26.6243333595       37.0184577139      -17.6833196465  W2        6003            0.0000000000
     18010      6004  TIP3      OH2            30.7376733595       36.7525377139      -35.3782596465  W2        6004            0.0000000000
     18011      6004  TIP3      H1             30.0937733595       36.1213977139      -35.0568896465  W2        6004            0.0000000000
     18012      6004  TIP3      H2             31.4995033595       36.2213377139      -35.6099096465  W2        6004            0.0000000000
     18013      6005  TIP3      OH2            33.2225833595       35.6245877139      -18.0242896465  W2        6005            0.0000000000
     18014      6005  TIP3      H1             32.8715333595       34.7678877139      -17.7812496465  W2        6005            0.0000000000
     18015      6005  TIP3      H2             33.9489033595       35.7672577139      -17.4173896465  W2        6005            0.0000000000
     18016      6006  TIP3      OH2            35.3419633595       36.5695277139      -35.1444596465  W2        6006            0.0000000000
     18017      6006  TIP3      H1             35.6250033595       35.7750477139      -34.6917696465  W2        6006            0.0000000000
     18018      6006  TIP3      H2             36.0817533595       36.8026277139      -35.7053496465  W2        6006            0.0000000000
     18019      6007  TIP3      OH2            21.9553233595       32.1354477139      -17.4194296465  W2        6007            0.0000000000
     18020      6007  TIP3      H1             22.0993733595       31.2335177139      -17.7057596465  W2        6007            0.0000000000
     18021      6007  TIP3      H2             21.1830633595       32.4216577139      -17.9071996465  W2        6007            0.0000000000
     18022      6008  TIP3      OH2            26.2966933595       32.4790177139      -35.2869696465  W2        6008            0.0000000000
     18023      6008  TIP3      H1             26.3611033595       31.6849777139      -34.7563296465  W2        6008            0.0000000000
     18024      6008  TIP3      H2             26.9496133595       32.3602977139      -35.9767696465  W2        6008            0.0000000000
     18025      6009  TIP3      OH2            28.6109333595       32.1052577139      -17.9867896465  W2        6009            0.0000000000
     18026      6009  TIP3      H1             28.2823133595       32.3760677139      -18.8440496465  W2        6009            0.0000000000
     18027      6009  TIP3      H2             28.7627533595       31.1642377139      -18.0742896465  W2        6009            0.0000000000
     18028      6010  TIP3      OH2            31.6490333595       33.5261877139      -35.5511696465  W2        6010            0.0000000000
     18029      6010  TIP3      H1             31.3804433595       33.7063977139      -34.6502796465  W2        6010            0.0000000000
     18030      6010  TIP3      H2             31.4425933595       32.6008077139      -35.6825896465  W2        6010            0.0000000000
     18031      6011  TIP3      OH2            34.3454533595       32.0209877139      -20.6035596465  W2        6011            0.0000000000
     18032      6011  TIP3      H1             35.0909333595       32.6093577139      -20.7231596465  W2        6011            0.0000000000
     18033      6011  TIP3      H2             33.5881333595       32.6029577139      -20.5402496465  W2        6011            0.0000000000
     18034      6012  TIP3      OH2            22.7879733595       29.3357777139      -17.9994996465  W2        6012            0.0000000000
     18035      6012  TIP3      H1             23.1960933595       28.4784377139      -18.1204396465  W2        6012            0.0000000000
     18036      6012  TIP3      H2             22.5277333595       29.3499077139      -17.0784696465  W2        6012            0.0000000000
     18037      6013  TIP3      OH2            27.4460733595       30.4516377139      -32.9811696465  W2        6013            0.0000000000
     18038      6013  TIP3      H1             26.9862733595       29.9674677139      -32.2953196465  W2        6013            0.0000000000
     18039      6013  TIP3      H2             27.7009433595       29.7831777139      -33.6171196465  W2        6013            0.0000000000
     18040      6014  TIP3      OH2            26.7350033595       28.3443477139      -20.6252096465  W2        6014            0.0000000000
     18041      6014  TIP3      H1             26.1166133595       29.0190077139      -20.3447396465  W2        6014            0.0000000000
     18042      6014  TIP3      H2             27.0791233595       28.6657377139      -21.4585896465  W2        6014            0.0000000000
     18043      6015  TIP3      OH2            28.5171133595       28.6948177139      -34.7188496465  W2        6015            0.0000000000
     18044      6015  TIP3      H1             28.3366133595       28.5399377139      -35.6460196465  W2        6015            0.0000000000
     18045      6015  TIP3      H2             29.4671633595       28.8026877139      -34.6740596465  W2        6015            0.0000000000
     18046      6016  TIP3      OH2            31.7548233595       30.8158777139      -17.3477296465  W2        6016            0.0000000000
     18047      6016  TIP3      H1             32.7079433595       30.8997877139      -17.3751296465  W2        6016            0.0000000000
     18048      6016  TIP3      H2             31.5942833595       30.1040577139      -16.7282396465  W2        6016            0.0000000000
     18049      6017  TIP3      OH2            37.9069433595       31.0492377139      -35.2730396465  W2        6017            0.0000000000
     18050      6017  TIP3      H1             37.6334233595       30.6247877139      -36.0862096465  W2        6017            0.0000000000
     18051      6017  TIP3      H2             37.9463533595       31.9806877139      -35.4899996465  W2        6017            0.0000000000
     18052      6018  TIP3      OH2            27.0743733595       25.6994277139      -19.5428996465  W2        6018            0.0000000000
     18053      6018  TIP3      H1             27.2244633595       24.9705577139      -20.1449296465  W2        6018            0.0000000000
     18054      6018  TIP3      H2             27.0766133595       26.4765977139      -20.1016796465  W2        6018            0.0000000000
     18055      6019  TIP3      OH2            27.4869433595       24.0690077139      -22.0501596465  W2        6019            0.0000000000
     18056      6019  TIP3      H1             28.0226933595       24.5206777139      -22.7022296465  W2        6019            0.0000000000
     18057      6019  TIP3      H2             26.6349033595       23.9609877139      -22.4727496465  W2        6019            0.0000000000
     18058      6020  TIP3      OH2            29.0687833595       29.5086277139      -21.8106396465  W2        6020            0.0000000000
     18059      6020  TIP3      H1             29.8192633595       29.3523777139      -22.3838596465  W2        6020            0.0000000000
     18060      6020  TIP3      H2             28.7296133595       30.3602877139      -22.0860896465  W2        6020            0.0000000000
     18061      6021  TIP3      OH2            33.4844033595       27.3238077139      -16.7821096465  W2        6021            0.0000000000
     18062      6021  TIP3      H1             33.6765333595       26.3927477139      -16.8936596465  W2        6021            0.0000000000
     18063      6021  TIP3      H2             34.3420333595       27.7487577139      -16.7925696465  W2        6021            0.0000000000
     18064      6022  TIP3      OH2            34.8011233595       30.1123277139      -18.7048396465  W2        6022            0.0000000000
     18065      6022  TIP3      H1             34.5196233595       30.8217877139      -19.2824596465  W2        6022            0.0000000000
     18066      6022  TIP3      H2             35.7435533595       30.0396277139      -18.8557196465  W2        6022            0.0000000000
     18067      6023  TIP3      OH2            25.5530033595       26.8977777139      -17.6313396465  W2        6023            0.0000000000
     18068      6023  TIP3      H1             24.7859033595       26.3652577139      -17.8415796465  W2        6023            0.0000000000
     18069      6023  TIP3      H2             26.2319033595       26.5878177139      -18.2307096465  W2        6023            0.0000000000
     18070      6024  TIP3      OH2            28.2924933595       21.5255777139      -21.6187996465  W2        6024            0.0000000000
     18071      6024  TIP3      H1             28.1944533595       22.4718977139      -21.7241796465  W2        6024            0.0000000000
     18072      6024  TIP3      H2             27.5501133595       21.1529577139      -22.0944496465  W2        6024            0.0000000000
     18073      6025  TIP3      OH2            29.5565433595       25.8471177139      -18.0549596465  W2        6025            0.0000000000
     18074      6025  TIP3      H1             29.3210833595       25.6277877139      -17.1534696465  W2        6025            0.0000000000
     18075      6025  TIP3      H2             28.7732333595       25.6402377139      -18.5647096465  W2        6025            0.0000000000
     18076      6026  TIP3      OH2            32.2722033595       24.9744677139      -18.9796096465  W2        6026            0.0000000000
     18077      6026  TIP3      H1             31.3247433595       25.0064377139      -18.8472796465  W2        6026            0.0000000000
     18078      6026  TIP3      H2             32.5848733595       24.3491777139      -18.3257896465  W2        6026            0.0000000000
     18079      6027  TIP3      OH2            33.9063533595       23.6085777139      -16.9744196465  W2        6027            0.0000000000
     18080      6027  TIP3      H1             33.8095333595       22.6563077139      -16.9802296465  W2        6027            0.0000000000
     18081      6027  TIP3      H2             33.5846633595       23.8772577139      -16.1138696465  W2        6027            0.0000000000
     18082      6028  TIP3      OH2            23.7332833595       24.8181577139      -17.9268696465  W2        6028            0.0000000000
     18083      6028  TIP3      H1             23.9450233595       24.1117677139      -18.5371196465  W2        6028            0.0000000000
     18084      6028  TIP3      H2             23.6220333595       24.3807577139      -17.0827496465  W2        6028            0.0000000000
     18085      6029  TIP3      OH2            28.5143033595       20.8193177139      -18.9475196465  W2        6029            0.0000000000
     18086      6029  TIP3      H1             29.2261433595       20.1795377139      -18.9616096465  W2        6029            0.0000000000
     18087      6029  TIP3      H2             28.4133433595       21.0861477139      -19.8612096465  W2        6029            0.0000000000
     18088      6030  TIP3      OH2            28.8680533595       22.5021577139      -16.8938896465  W2        6030            0.0000000000
     18089      6030  TIP3      H1             28.7362733595       22.0265377139      -17.7140396465  W2        6030            0.0000000000
     18090      6030  TIP3      H2             28.2687933595       23.2465177139      -16.9491796465  W2        6030            0.0000000000
     18091      6031  TIP3      OH2            28.4142833595       39.3851877139      -33.7174896465  W2        6031            0.0000000000
     18092      6031  TIP3      H1             29.3473533595       39.5430577139      -33.5736496465  W2        6031            0.0000000000
     18093      6031  TIP3      H2             28.1501633595       40.0604877139      -34.3423396465  W2        6031            0.0000000000
     18094      6032  TIP3      OH2            21.9827733595       34.0215677139      -34.2346796465  W2        6032            0.0000000000
     18095      6032  TIP3      H1             22.8966933595       34.1004577139      -33.9612896465  W2        6032            0.0000000000
     18096      6032  TIP3      H2             21.9900833595       33.3345277139      -34.9011196465  W2        6032            0.0000000000
     18097      6033  TIP3      OH2            20.6318333595       39.4144177139      -29.1572896465  W2        6033            0.0000000000
     18098      6033  TIP3      H1             19.9845433595       38.9525877139      -29.6901696465  W2        6033            0.0000000000
     18099      6033  TIP3      H2             20.9862933595       38.7427477139      -28.5746696465  W2        6033            0.0000000000
     18100      6034  TIP3      OH2            21.5017533595       37.4951177139      -27.3526696465  W2        6034            0.0000000000
     18101      6034  TIP3      H1             21.1674333595       36.6148477139      -27.1806496465  W2        6034            0.0000000000
     18102      6034  TIP3      H2             21.7239933595       37.8406177139      -26.4881096465  W2        6034            0.0000000000
     18103      6035  TIP3      OH2            39.0502333595       38.3047577139      -24.3721896465  W2        6035            0.0000000000
     18104      6035  TIP3      H1             39.0289033595       38.4895977139      -23.4332496465  W2        6035            0.0000000000
     18105      6035  TIP3      H2             39.7408533595       38.8731577139      -24.7130496465  W2        6035            0.0000000000
     18106      6036  TIP3      OH2            38.6135233595       37.8718677139      -21.4502796465  W2        6036            0.0000000000
     18107      6036  TIP3      H1             38.1263933595       37.1362777139      -21.8215396465  W2        6036            0.0000000000
     18108      6036  TIP3      H2             39.1627933595       37.4782577139      -20.7723396465  W2        6036            0.0000000000
     18109      6037  TIP3      OH2            37.0642533595       33.6616777139      -16.8122496465  W2        6037            0.0000000000
     18110      6037  TIP3      H1             36.1983633595       33.5566477139      -16.4180196465  W2        6037            0.0000000000
     18111      6037  TIP3      H2             37.4408433595       34.4200077139      -16.3657796465  W2        6037            0.0000000000
     18112      6038  TIP3      OH2            38.3652233595       31.9180477139      -31.2979996465  W2        6038            0.0000000000
     18113      6038  TIP3      H1             39.2153633595       32.3391377139      -31.1708396465  W2        6038            0.0000000000
     18114      6038  TIP3      H2             38.3707333595       31.1780577139      -30.6908596465  W2        6038            0.0000000000
     18115      6039  TIP3      OH2            38.7597833595       29.9717877139      -29.4744296465  W2        6039            0.0000000000
     18116      6039  TIP3      H1             38.0332433595       29.4920477139      -29.0766696465  W2        6039            0.0000000000
     18117      6039  TIP3      H2             39.3411133595       30.1772577139      -28.7422696465  W2        6039            0.0000000000
     18118      6040  TIP3      OH2            38.5189033595       32.7565377139      -24.5266696465  W2        6040            0.0000000000
     18119      6040  TIP3      H1             39.3523233595       32.3785377139      -24.8073096465  W2        6040            0.0000000000
     18120      6040  TIP3      H2             38.6309333595       33.6996577139      -24.6457596465  W2        6040            0.0000000000
     18121      6041  TIP3      OH2            37.0051333595       35.6342877139      -22.2198296465  W2        6041            0.0000000000
     18122      6041  TIP3      H1             36.3576633595       35.9594377139      -21.5943096465  W2        6041            0.0000000000
     18123      6041  TIP3      H2             36.4875333595       35.1940577139      -22.8939996465  W2        6041            0.0000000000
     18124      6042  TIP3      OH2            39.0280933595       29.8726377139      -33.0832996465  W2        6042            0.0000000000
     18125      6042  TIP3      H1             38.5062033595       30.2290477139      -33.8022096465  W2        6042            0.0000000000
     18126      6042  TIP3      H2             38.9950133595       30.5474177139      -32.4052096465  W2        6042            0.0000000000
     18127      6043  TIP3      OH2            37.3769933595       27.1121977139      -34.5325896465  W2        6043            0.0000000000
     18128      6043  TIP3      H1             37.4734333595       27.7788977139      -35.2126196465  W2        6043            0.0000000000
     18129      6043  TIP3      H2             37.2369533595       26.2968277139      -35.0140396465  W2        6043            0.0000000000
     18130      6044  TIP3      OH2            36.5464633595       28.4924377139      -28.9115596465  W2        6044            0.0000000000
     18131      6044  TIP3      H1             36.3963433595       27.5472977139      -28.9317796465  W2        6044            0.0000000000
     18132      6044  TIP3      H2             36.1929133595       28.7735777139      -28.0676496465  W2        6044            0.0000000000
     18133      6045  TIP3      OH2            21.5817033595       30.5706577139      -24.9011796465  W2        6045            0.0000000000
     18134      6045  TIP3      H1             21.7659933595       30.4888277139      -25.8368896465  W2        6045            0.0000000000
     18135      6045  TIP3      H2             22.4309933595       30.4463577139      -24.4775396465  W2        6045            0.0000000000
     18136      6046  TIP3      OH2            37.4027533595       30.4627677139      -19.2727296465  W2        6046            0.0000000000
     18137      6046  TIP3      H1             37.9854833595       29.7279977139      -19.0810096465  W2        6046            0.0000000000
     18138      6046  TIP3      H2             37.9666833595       31.2347977139      -19.2261496465  W2        6046            0.0000000000
     18139      6047  TIP3      OH2            38.8994633595       28.3653477139      -18.5881896465  W2        6047            0.0000000000
     18140      6047  TIP3      H1             38.0361333595       27.9865577139      -18.7537196465  W2        6047            0.0000000000
     18141      6047  TIP3      H2             39.5038333595       27.6268277139      -18.6626096465  W2        6047            0.0000000000
     18142      6048  TIP3      OH2            36.6243733595       24.5201777139      -35.4150396465  W2        6048            0.0000000000
     18143      6048  TIP3      H1             37.2349533595       24.1488577139      -34.7782196465  W2        6048            0.0000000000
     18144      6048  TIP3      H2             35.7875233595       24.0988677139      -35.2190396465  W2        6048            0.0000000000
     18145      6049  TIP3      OH2            36.2569433595       26.0750177139      -30.4490496465  W2        6049            0.0000000000
     18146      6049  TIP3      H1             36.5366533595       25.1680577139      -30.3248796465  W2        6049            0.0000000000
     18147      6049  TIP3      H2             37.0161133595       26.5091677139      -30.8381296465  W2        6049            0.0000000000
     18148      6050  TIP3      OH2            36.8687733595       26.6567577139      -25.0131596465  W2        6050            0.0000000000
     18149      6050  TIP3      H1             37.8015733595       26.8687477139      -25.0475596465  W2        6050            0.0000000000
     18150      6050  TIP3      H2             36.6335233595       26.7579677139      -24.0908596465  W2        6050            0.0000000000
     18151      6051  TIP3      OH2            36.8979633595       27.3932877139      -22.2372196465  W2        6051            0.0000000000
     18152      6051  TIP3      H1             36.0550933595       27.6613277139      -21.8712396465  W2        6051            0.0000000000
     18153      6051  TIP3      H2             37.3403933595       28.2154777139      -22.4481096465  W2        6051            0.0000000000
     18154      6052  TIP3      OH2            21.1791833595       25.8411577139      -18.7602996465  W2        6052            0.0000000000
     18155      6052  TIP3      H1             22.0986733595       25.7189877139      -18.5239896465  W2        6052            0.0000000000
     18156      6052  TIP3      H2             20.7296333595       25.0911277139      -18.3709496465  W2        6052            0.0000000000
     18157      6053  TIP3      OH2            39.1811233595       21.3733077139      -16.8837196465  W2        6053            0.0000000000
     18158      6053  TIP3      H1             39.5308233595       20.7196577139      -17.4892496465  W2        6053            0.0000000000
     18159      6053  TIP3      H2             39.3280733595       22.2107177139      -17.3234596465  W2        6053            0.0000000000
     18160      6054  TIP3      OH2            36.8704233595       23.3379477139      -30.4008496465  W2        6054            0.0000000000
     18161      6054  TIP3      H1             37.0529233595       22.8890977139      -29.5753496465  W2        6054            0.0000000000
     18162      6054  TIP3      H2             36.2707133595       22.7533877139      -30.8643896465  W2        6054            0.0000000000
     18163      6055  TIP3      OH2            22.4004333595       24.1533177139      -25.8690096465  W2        6055            0.0000000000
     18164      6055  TIP3      H1             22.8455933595       23.3615677139      -25.5670396465  W2        6055            0.0000000000
     18165      6055  TIP3      H2             22.8667333595       24.8698377139      -25.4384496465  W2        6055            0.0000000000
     18166      6056  TIP3      OH2            20.7044633595       27.1526177139      -24.7999896465  W2        6056            0.0000000000
     18167      6056  TIP3      H1             21.1964433595       26.9316677139      -25.5907896465  W2        6056            0.0000000000
     18168      6056  TIP3      H2             21.0665533595       27.9929577139      -24.5190396465  W2        6056            0.0000000000
     18169      6057  TIP3      OH2            38.7008433595       23.4827677139      -18.5345896465  W2        6057            0.0000000000
     18170      6057  TIP3      H1             37.7834133595       23.7534777139      -18.5702396465  W2        6057            0.0000000000
     18171      6057  TIP3      H2             38.8237833595       22.9476077139      -19.3186196465  W2        6057            0.0000000000
     18172      6058  TIP3      OH2            38.7370433595       23.4057577139      -33.8728196465  W2        6058            0.0000000000
     18173      6058  TIP3      H1             39.1493033595       22.6843277139      -34.3480196465  W2        6058            0.0000000000
     18174      6058  TIP3      H2             39.4186933595       24.0752177139      -33.8143896465  W2        6058            0.0000000000
     18175      6059  TIP3      OH2            21.0181133595       23.4105277139      -30.7457496465  W2        6059            0.0000000000
     18176      6059  TIP3      H1             20.0929533595       23.6191877139      -30.8751996465  W2        6059            0.0000000000
     18177      6059  TIP3      H2             21.4721033595       23.8946077139      -31.4355196465  W2        6059            0.0000000000
     18178      6060  TIP3      OH2            35.7888333595       38.3946977139      -28.8000096465  W2        6060            0.0000000000
     18179      6060  TIP3      H1             36.4411233595       38.0469077139      -29.4080996465  W2        6060            0.0000000000
     18180      6060  TIP3      H2             36.2992133595       38.8830177139      -28.1540396465  W2        6060            0.0000000000
     18181      6061  TIP3      OH2            20.9816533595       22.1484277139      -22.4014996465  W2        6061            0.0000000000
     18182      6061  TIP3      H1             20.3167033595       21.9024577139      -21.7584096465  W2        6061            0.0000000000
     18183      6061  TIP3      H2             20.5387833595       22.7704677139      -22.9786996465  W2        6061            0.0000000000
     18184      6062  TIP3      OH2            23.1735833595       35.3238377139      -18.2569196465  W2        6062            0.0000000000
     18185      6062  TIP3      H1             22.3528333595       35.4984877139      -18.7174496465  W2        6062            0.0000000000
     18186      6062  TIP3      H2             22.9213633595       35.2503077139      -17.3364796465  W2        6062            0.0000000000
     18187      6063  TIP3      OH2            26.1278733595       36.2979577139      -21.9985196465  W2        6063            0.0000000000
     18188      6063  TIP3      H1             25.7029833595       37.1078077139      -22.2810596465  W2        6063            0.0000000000
     18189      6063  TIP3      H2             27.0321533595       36.3833677139      -22.3005396465  W2        6063            0.0000000000
     18190      6064  TIP3      OH2            30.4390133595       37.6969577139      -19.0391496465  W2        6064            0.0000000000
     18191      6064  TIP3      H1             30.6237633595       37.3635677139      -18.1611196465  W2        6064            0.0000000000
     18192      6064  TIP3      H2             31.2854633595       38.0068177139      -19.3612296465  W2        6064            0.0000000000
     18193      6065  TIP3      OH2            32.7840533595       38.9828477139      -19.7950096465  W2        6065            0.0000000000
     18194      6065  TIP3      H1             33.4609433595       38.3500777139      -20.0350896465  W2        6065            0.0000000000
     18195      6065  TIP3      H2             33.1059333595       39.3838977139      -18.9876796465  W2        6065            0.0000000000
     18196      6066  TIP3      OH2            37.7014333595       21.5723977139      -20.7155096465  W2        6066            0.0000000000
     18197      6066  TIP3      H1             36.8887833595       21.8974277139      -21.1030396465  W2        6066            0.0000000000
     18198      6066  TIP3      H2             37.9342833595       20.8122477139      -21.2485996465  W2        6066            0.0000000000
     18199      6067  TIP3      OH2            23.5295433595       39.5543477139      -21.9509896465  W2        6067            0.0000000000
     18200      6067  TIP3      H1             22.8091833595       39.9944477139      -22.4022196465  W2        6067            0.0000000000
     18201      6067  TIP3      H2             23.1639433595       39.3038177139      -21.1025896465  W2        6067            0.0000000000
     18202      6068  TIP3      OH2            25.9968033595       39.1547377139      -22.9212696465  W2        6068            0.0000000000
     18203      6068  TIP3      H1             25.1320233595       39.2265877139      -22.5172596465  W2        6068            0.0000000000
     18204      6068  TIP3      H2             25.9417033595       39.7014677139      -23.7050196465  W2        6068            0.0000000000
     18205      6069  TIP3      OH2            30.7073633595       39.0426277139      -23.7456696465  W2        6069            0.0000000000
     18206      6069  TIP3      H1             30.2507633595       39.5715977139      -24.3998296465  W2        6069            0.0000000000
     18207      6069  TIP3      H2             30.8701633595       39.6457677139      -23.0204396465  W2        6069            0.0000000000
     18208      6070  TIP3      OH2            33.0349933595       37.9205877139      -22.8006396465  W2        6070            0.0000000000
     18209      6070  TIP3      H1             32.1303633595       38.0856077139      -23.0664296465  W2        6070            0.0000000000
     18210      6070  TIP3      H2             33.4638533595       38.7738077139      -22.8662996465  W2        6070            0.0000000000
     18211      6071  TIP3      OH2            35.6391833595       39.4904977139      -22.5058596465  W2        6071            0.0000000000
     18212      6071  TIP3      H1             35.4573833595       40.4063877139      -22.7163696465  W2        6071            0.0000000000
     18213      6071  TIP3      H2             35.8159633595       39.0802077139      -23.3523996465  W2        6071            0.0000000000
     18214      6072  TIP3      OH2            22.9443533595       38.1775977139      -25.0408096465  W2        6072            0.0000000000
     18215      6072  TIP3      H1             22.9259533595       37.7521077139      -24.1835796465  W2        6072            0.0000000000
     18216      6072  TIP3      H2             23.7491433595       37.8590977139      -25.4495896465  W2        6072            0.0000000000
     18217      6073  TIP3      OH2            25.0856633595       36.8874677139      -26.3858196465  W2        6073            0.0000000000
     18218      6073  TIP3      H1             24.8667333595       35.9712077139      -26.2162196465  W2        6073            0.0000000000
     18219      6073  TIP3      H2             25.9098833595       37.0275077139      -25.9196796465  W2        6073            0.0000000000
     18220      6074  TIP3      OH2            27.6229133595       37.3573977139      -25.5370196465  W2        6074            0.0000000000
     18221      6074  TIP3      H1             27.8354833595       36.4692977139      -25.8239296465  W2        6074            0.0000000000
     18222      6074  TIP3      H2             27.6874233595       37.3231677139      -24.5826196465  W2        6074            0.0000000000
     18223      6075  TIP3      OH2            31.1312833595       23.0214577139      -26.3926896465  W2        6075            0.0000000000
     18224      6075  TIP3      H1             30.4569633595       22.3920177139      -26.1371096465  W2        6075            0.0000000000
     18225      6075  TIP3      H2             31.6952033595       22.5373477139      -26.9958996465  W2        6075            0.0000000000
     18226      6076  TIP3      OH2            36.2740033595       21.1288577139      -26.2799796465  W2        6076            0.0000000000
     18227      6076  TIP3      H1             36.8777633595       21.6763977139      -26.7818796465  W2        6076            0.0000000000
     18228      6076  TIP3      H2             35.4042033595       21.4478977139      -26.5205696465  W2        6076            0.0000000000
     18229      6077  TIP3      OH2            38.0010433595       22.2677277139      -27.9468896465  W2        6077            0.0000000000
     18230      6077  TIP3      H1             38.6127933595       21.7532977139      -28.4735296465  W2        6077            0.0000000000
     18231      6077  TIP3      H2             38.3833833595       23.1449377139      -27.9234496465  W2        6077            0.0000000000
     18232      6078  TIP3      OH2            23.4580333595       21.6554877139      -28.5706996465  W2        6078            0.0000000000
     18233      6078  TIP3      H1             22.6810133595       21.4209777139      -29.0781096465  W2        6078            0.0000000000
     18234      6078  TIP3      H2             23.9883933595       20.8586977139      -28.5618996465  W2        6078            0.0000000000
     18235      6079  TIP3      OH2            22.2943733595       21.4532977139      -32.7670896465  W2        6079            0.0000000000
     18236      6079  TIP3      H1             22.7334433595       22.0643477139      -33.3587396465  W2        6079            0.0000000000
     18237      6079  TIP3      H2             21.6606133595       21.9917077139      -32.2930896465  W2        6079            0.0000000000
     18238      6080  TIP3      OH2            28.0372933595       21.5821977139      -28.7573896465  W2        6080            0.0000000000
     18239      6080  TIP3      H1             28.9116333595       21.9706277139      -28.7869596465  W2        6080            0.0000000000
     18240      6080  TIP3      H2             27.9013733595       21.3669777139      -27.8346696465  W2        6080            0.0000000000
     18241      6081  TIP3      OH2            33.5941333595       21.6121777139      -27.1082196465  W2        6081            0.0000000000
     18242      6081  TIP3      H1             33.6702933595       21.7073377139      -28.0576196465  W2        6081            0.0000000000
     18243      6081  TIP3      H2             33.3190533595       20.7044677139      -26.9793096465  W2        6081            0.0000000000
     18244      6082  TIP3      OH2            34.9473933595       21.6379577139      -31.4157196465  W2        6082            0.0000000000
     18245      6082  TIP3      H1             34.2445033595       22.2528777139      -31.6255796465  W2        6082            0.0000000000
     18246      6082  TIP3      H2             34.5025333595       20.8006277139      -31.2846296465  W2        6082            0.0000000000
     18247      6083  TIP3      OH2            22.1953233595       37.4015177139      -31.8695796465  W2        6083            0.0000000000
     18248      6083  TIP3      H1             21.5103133595       37.3634077139      -32.5370696465  W2        6083            0.0000000000
     18249      6083  TIP3      H2             22.1990433595       38.3142777139      -31.5813696465  W2        6083            0.0000000000
     18250      6084  TIP3      OH2            24.1552833595       23.3694477139      -34.3246796465  W2        6084            0.0000000000
     18251      6084  TIP3      H1             24.6466233595       22.7396877139      -34.8521296465  W2        6084            0.0000000000
     18252      6084  TIP3      H2             24.7789133595       23.6653877139      -33.6615596465  W2        6084            0.0000000000
     18253      6085  TIP3      OH2            29.1812933595       23.6625977139      -31.8676296465  W2        6085            0.0000000000
     18254      6085  TIP3      H1             29.3594233595       23.0159177139      -31.1847696465  W2        6085            0.0000000000
     18255      6085  TIP3      H2             29.1279133595       24.4963677139      -31.4005196465  W2        6085            0.0000000000
     18256      6086  TIP3      OH2            31.0596733595       38.6110077139      -33.4719596465  W2        6086            0.0000000000
     18257      6086  TIP3      H1             31.9256933595       38.9777477139      -33.6501396465  W2        6086            0.0000000000
     18258      6086  TIP3      H2             30.8129533595       38.1718077139      -34.2858796465  W2        6086            0.0000000000
     18259      6087  TIP3      OH2            37.7686333595       38.1740377139      -30.7928496465  W2        6087            0.0000000000
     18260      6087  TIP3      H1             37.5743433595       37.4262477139      -31.3578896465  W2        6087            0.0000000000
     18261      6087  TIP3      H2             37.7296433595       38.9320477139      -31.3760596465  W2        6087            0.0000000000
     18262      6088  TIP3      OH2            23.4158333595       22.1696777139      -19.0530796465  W2        6088            0.0000000000
     18263      6088  TIP3      H1             23.0496533595       21.4039377139      -18.6106096465  W2        6088            0.0000000000
     18264      6088  TIP3      H2             24.3286833595       22.1986977139      -18.7665696465  W2        6088            0.0000000000
     18265      6089  TIP3      OH2            25.3889133595       21.5201177139      -17.5173696465  W2        6089            0.0000000000
     18266      6089  TIP3      H1             26.2872733595       21.2461377139      -17.7020296465  W2        6089            0.0000000000
     18267      6089  TIP3      H2             25.0022233595       20.7777177139      -17.0531096465  W2        6089            0.0000000000
     18268      6090  TIP3      OH2            24.0134433595       38.3215977139      -34.8443696465  W2        6090            0.0000000000
     18269      6090  TIP3      H1             23.7459033595       38.6078877139      -33.9710596465  W2        6090            0.0000000000
     18270      6090  TIP3      H2             24.7847033595       37.7755177139      -34.6921196465  W2        6090            0.0000000000
     18271      6091  TIP3      OH2            33.8101433595       20.8526477139      -17.3350896465  W2        6091            0.0000000000
     18272      6091  TIP3      H1             33.8868633595       20.4267177139      -16.4813196465  W2        6091            0.0000000000
     18273      6091  TIP3      H2             34.7038033595       20.8661177139      -17.6777396465  W2        6091            0.0000000000
     18274      6092  TIP3      OH2            36.9862533595       36.9252777139      -18.6426696465  W2        6092            0.0000000000
     18275      6092  TIP3      H1             36.2044433595       36.7390777139      -19.1626096465  W2        6092            0.0000000000
     18276      6092  TIP3      H2             36.9142433595       37.8547077139      -18.4254196465  W2        6092            0.0000000000
     18277      6093  TIP3      OH2            51.3922933595       30.8117177139      -28.6119496465  W2        6093            0.0000000000
     18278      6093  TIP3      H1             51.4814033595       31.7555377139      -28.7442396465  W2        6093            0.0000000000
     18279      6093  TIP3      H2             50.7540533595       30.5363577139      -29.2700096465  W2        6093            0.0000000000
     18280      6094  TIP3      OH2            50.3254233595       30.0667877139      -25.1931296465  W2        6094            0.0000000000
     18281      6094  TIP3      H1             50.2871733595       29.4204177139      -24.4881696465  W2        6094            0.0000000000
     18282      6094  TIP3      H2             50.0030733595       29.6002277139      -25.9642596465  W2        6094            0.0000000000
     18283      6095  TIP3      OH2            42.6939233595       29.6809977139      -23.6001396465  W2        6095            0.0000000000
     18284      6095  TIP3      H1             42.7351333595       29.0553277139      -22.8768996465  W2        6095            0.0000000000
     18285      6095  TIP3      H2             43.3966933595       30.3048577139      -23.4180996465  W2        6095            0.0000000000
     18286      6096  TIP3      OH2            54.0314433595       33.0058277139      -26.8916196465  W2        6096            0.0000000000
     18287      6096  TIP3      H1             53.5907133595       32.2854277139      -26.4410596465  W2        6096            0.0000000000
     18288      6096  TIP3      H2             54.0184133595       33.7265477139      -26.2618496465  W2        6096            0.0000000000
     18289      6097  TIP3      OH2            43.6172333595       34.1308877139      -25.0652296465  W2        6097            0.0000000000
     18290      6097  TIP3      H1             43.2477533595       33.3289377139      -25.4347996465  W2        6097            0.0000000000
     18291      6097  TIP3      H2             44.5583433595       33.9623777139      -25.0188896465  W2        6097            0.0000000000
     18292      6098  TIP3      OH2            40.2272833595       27.7911477139      -29.6723496465  W2        6098            0.0000000000
     18293      6098  TIP3      H1             39.7796233595       28.6370177139      -29.6906996465  W2        6098            0.0000000000
     18294      6098  TIP3      H2             39.6664033595       27.2115677139      -30.1878396465  W2        6098            0.0000000000
     18295      6099  TIP3      OH2            40.9378933595       29.9531077139      -27.5465496465  W2        6099            0.0000000000
     18296      6099  TIP3      H1             41.1512433595       29.1832677139      -27.0192496465  W2        6099            0.0000000000
     18297      6099  TIP3      H2             41.6756533595       30.0427777139      -28.1497896465  W2        6099            0.0000000000
     18298      6100  TIP3      OH2            51.1429933595       38.1099977139      -26.6795796465  W2        6100            0.0000000000
     18299      6100  TIP3      H1             51.7626333595       37.4334677139      -26.9526596465  W2        6100            0.0000000000
     18300      6100  TIP3      H2             50.9347333595       37.8920777139      -25.7710896465  W2        6100            0.0000000000
     18301      6101  TIP3      OH2            48.7148633595       32.4989277139      -24.7870296465  W2        6101            0.0000000000
     18302      6101  TIP3      H1             49.0186533595       31.8130677139      -25.3816196465  W2        6101            0.0000000000
     18303      6101  TIP3      H2             49.4362633595       32.6177977139      -24.1692296465  W2        6101            0.0000000000
     18304      6102  TIP3      OH2            51.8555633595       26.8931677139      -24.4595496465  W2        6102            0.0000000000
     18305      6102  TIP3      H1             51.9981533595       25.9468677139      -24.4393896465  W2        6102            0.0000000000
     18306      6102  TIP3      H2             51.7494633595       27.1001477139      -25.3880596465  W2        6102            0.0000000000
     18307      6103  TIP3      OH2            45.0103933595       24.9948077139      -27.1870696465  W2        6103            0.0000000000
     18308      6103  TIP3      H1             45.0535033595       25.8546577139      -27.6054396465  W2        6103            0.0000000000
     18309      6103  TIP3      H2             44.5528033595       24.4422777139      -27.8207496465  W2        6103            0.0000000000
     18310      6104  TIP3      OH2            52.7326633595       25.1253677139      -28.7862396465  W2        6104            0.0000000000
     18311      6104  TIP3      H1             53.3790933595       24.7966877139      -28.1614796465  W2        6104            0.0000000000
     18312      6104  TIP3      H2             53.2426033595       25.6432677139      -29.4090996465  W2        6104            0.0000000000
     18313      6105  TIP3      OH2            41.6305433595       27.3913877139      -26.4249296465  W2        6105            0.0000000000
     18314      6105  TIP3      H1             42.2842033595       26.8415577139      -25.9929196465  W2        6105            0.0000000000
     18315      6105  TIP3      H2             41.6544733595       27.1172877139      -27.3417296465  W2        6105            0.0000000000
     18316      6106  TIP3      OH2            46.7869933595       28.9415177139      -27.2097796465  W2        6106            0.0000000000
     18317      6106  TIP3      H1             47.4030933595       28.4150577139      -26.7003796465  W2        6106            0.0000000000
     18318      6106  TIP3      H2             46.2008733595       28.3013877139      -27.6134196465  W2        6106            0.0000000000
     18319      6107  TIP3      OH2            43.8205833595       23.9126477139      -23.1129896465  W2        6107            0.0000000000
     18320      6107  TIP3      H1             43.6017533595       24.4427077139      -23.8793896465  W2        6107            0.0000000000
     18321      6107  TIP3      H2             43.1526733595       24.1391977139      -22.4658496465  W2        6107            0.0000000000
     18322      6108  TIP3      OH2            51.1895633595       33.4127577139      -29.5690796465  W2        6108            0.0000000000
     18323      6108  TIP3      H1             50.8940733595       33.0899877139      -30.4203896465  W2        6108            0.0000000000
     18324      6108  TIP3      H2             50.8653433595       34.3124277139      -29.5278196465  W2        6108            0.0000000000
     18325      6109  TIP3      OH2            46.3897233595       31.5882177139      -22.8256196465  W2        6109            0.0000000000
     18326      6109  TIP3      H1             45.6496333595       32.1863677139      -22.7220996465  W2        6109            0.0000000000
     18327      6109  TIP3      H2             47.1036733595       32.1421777139      -23.1412596465  W2        6109            0.0000000000
     18328      6110  TIP3      OH2            54.4965033595       24.4162977139      -26.8056496465  W2        6110            0.0000000000
     18329      6110  TIP3      H1             54.2813033595       23.6506377139      -26.2730496465  W2        6110            0.0000000000
     18330      6110  TIP3      H2             55.1522433595       24.8887577139      -26.2927996465  W2        6110            0.0000000000
     18331      6111  TIP3      OH2            43.4143133595       25.8048277139      -25.1607696465  W2        6111            0.0000000000
     18332      6111  TIP3      H1             44.0279433595       26.4375877139      -24.7875296465  W2        6111            0.0000000000
     18333      6111  TIP3      H2             43.9263833595       25.3323277139      -25.8170796465  W2        6111            0.0000000000
     18334      6112  TIP3      OH2            44.7971533595       33.5525177139      -22.0384696465  W2        6112            0.0000000000
     18335      6112  TIP3      H1             44.7919133595       34.4318677139      -22.4165396465  W2        6112            0.0000000000
     18336      6112  TIP3      H2             43.9435633595       33.4689277139      -21.6134796465  W2        6112            0.0000000000
     18337      6113  TIP3      OH2            40.9182433595       33.2233077139      -31.2565396465  W2        6113            0.0000000000
     18338      6113  TIP3      H1             40.6463333595       33.4524077139      -32.1452496465  W2        6113            0.0000000000
     18339      6113  TIP3      H2             40.9638133595       34.0611877139      -30.7960096465  W2        6113            0.0000000000
     18340      6114  TIP3      OH2            54.5432133595       34.8448977139      -24.5436896465  W2        6114            0.0000000000
     18341      6114  TIP3      H1             53.6015833595       34.9032877139      -24.3819996465  W2        6114            0.0000000000
     18342      6114  TIP3      H2             54.8198233595       35.7509477139      -24.6807196465  W2        6114            0.0000000000
     18343      6115  TIP3      OH2            47.8470533595       21.2181577139      -25.6604996465  W2        6115            0.0000000000
     18344      6115  TIP3      H1             47.7294733595       20.2697577139      -25.7146696465  W2        6115            0.0000000000
     18345      6115  TIP3      H2             46.9920633595       21.5507677139      -25.3873896465  W2        6115            0.0000000000
     18346      6116  TIP3      OH2            52.7953333595       36.6262477139      -27.9185296465  W2        6116            0.0000000000
     18347      6116  TIP3      H1             53.2205633595       35.9190377139      -28.4035696465  W2        6116            0.0000000000
     18348      6116  TIP3      H2             53.1123333595       37.4275177139      -28.3353096465  W2        6116            0.0000000000
     18349      6117  TIP3      OH2            53.9549833595       34.5270977139      -29.4098696465  W2        6117            0.0000000000
     18350      6117  TIP3      H1             53.6974633595       33.8371077139      -30.0212796465  W2        6117            0.0000000000
     18351      6117  TIP3      H2             54.0260633595       34.0842177139      -28.5642796465  W2        6117            0.0000000000
     18352      6118  TIP3      OH2            50.1135433595       30.0557177139      -31.1599196465  W2        6118            0.0000000000
     18353      6118  TIP3      H1             49.4020933595       30.5906877139      -31.5118696465  W2        6118            0.0000000000
     18354      6118  TIP3      H2             50.8045033595       30.1109277139      -31.8200296465  W2        6118            0.0000000000
     18355      6119  TIP3      OH2            50.1674633595       28.5131477139      -34.1214196465  W2        6119            0.0000000000
     18356      6119  TIP3      H1             50.8684533595       28.5358377139      -33.4700196465  W2        6119            0.0000000000
     18357      6119  TIP3      H2             50.4697533595       27.8851177139      -34.7774896465  W2        6119            0.0000000000
     18358      6120  TIP3      OH2            53.5193133595       30.2650477139      -30.2083296465  W2        6120            0.0000000000
     18359      6120  TIP3      H1             52.7874133595       30.4934177139      -29.6352696465  W2        6120            0.0000000000
     18360      6120  TIP3      H2             53.9665333595       29.5513177139      -29.7535796465  W2        6120            0.0000000000
     18361      6121  TIP3      OH2            53.4166633595       28.4393077139      -21.1406296465  W2        6121            0.0000000000
     18362      6121  TIP3      H1             53.4965733595       29.2027477139      -20.5687796465  W2        6121            0.0000000000
     18363      6121  TIP3      H2             52.8154333595       28.7185477139      -21.8311196465  W2        6121            0.0000000000
     18364      6122  TIP3      OH2            45.1646833595       30.8956677139      -28.3258296465  W2        6122            0.0000000000
     18365      6122  TIP3      H1             44.8342033595       30.5250077139      -29.1441296465  W2        6122            0.0000000000
     18366      6122  TIP3      H2             45.7530933595       30.2250677139      -27.9789996465  W2        6122            0.0000000000
     18367      6123  TIP3      OH2            46.5314333595       34.3237277139      -25.6446096465  W2        6123            0.0000000000
     18368      6123  TIP3      H1             46.4365633595       33.7450377139      -26.4011496465  W2        6123            0.0000000000
     18369      6123  TIP3      H2             47.2607933595       33.9522977139      -25.1483296465  W2        6123            0.0000000000
     18370      6124  TIP3      OH2            45.5312333595       29.6642277139      -24.6923296465  W2        6124            0.0000000000
     18371      6124  TIP3      H1             46.0964833595       29.7856477139      -25.4552096465  W2        6124            0.0000000000
     18372      6124  TIP3      H2             45.8501233595       30.3017277139      -24.0534796465  W2        6124            0.0000000000
     18373      6125  TIP3      OH2            51.8404533595       35.1674177139      -23.9582796465  W2        6125            0.0000000000
     18374      6125  TIP3      H1             51.6001133595       35.8297277139      -23.3103596465  W2        6125            0.0000000000
     18375      6125  TIP3      H2             51.6422733595       34.3329377139      -23.5333196465  W2        6125            0.0000000000
     18376      6126  TIP3      OH2            46.4113033595       34.0634977139      -19.9751396465  W2        6126            0.0000000000
     18377      6126  TIP3      H1             46.1000533595       34.8458177139      -19.5198196465  W2        6126            0.0000000000
     18378      6126  TIP3      H2             45.7613233595       33.9104077139      -20.6609396465  W2        6126            0.0000000000
     18379      6127  TIP3      OH2            52.3902633595       29.4273377139      -32.5232096465  W2        6127            0.0000000000
     18380      6127  TIP3      H1             52.9698133595       29.5773677139      -31.7763196465  W2        6127            0.0000000000
     18381      6127  TIP3      H2             52.8042633595       29.8980777139      -33.2465696465  W2        6127            0.0000000000
     18382      6128  TIP3      OH2            43.3312933595       30.2616077139      -20.7465696465  W2        6128            0.0000000000
     18383      6128  TIP3      H1             43.4016133595       30.9122877139      -20.0480696465  W2        6128            0.0000000000
     18384      6128  TIP3      H2             42.4405133595       30.3643577139      -21.0814796465  W2        6128            0.0000000000
     18385      6129  TIP3      OH2            50.1167533595       36.1641877139      -29.0878996465  W2        6129            0.0000000000
     18386      6129  TIP3      H1             50.5905133595       36.4598177139      -28.3104796465  W2        6129            0.0000000000
     18387      6129  TIP3      H2             49.5536833595       36.9023477139      -29.3209396465  W2        6129            0.0000000000
     18388      6130  TIP3      OH2            44.6508933595       36.1349977139      -19.2117596465  W2        6130            0.0000000000
     18389      6130  TIP3      H1             44.6584233595       35.9989677139      -20.1592096465  W2        6130            0.0000000000
     18390      6130  TIP3      H2             43.7349333595       36.0178077139      -18.9597596465  W2        6130            0.0000000000
     18391      6131  TIP3      OH2            44.1549533595       29.9650977139      -30.7365496465  W2        6131            0.0000000000
     18392      6131  TIP3      H1             43.8630833595       30.7332677139      -31.2274196465  W2        6131            0.0000000000
     18393      6131  TIP3      H2             43.4804733595       29.3057177139      -30.8994096465  W2        6131            0.0000000000
     18394      6132  TIP3      OH2            40.2479633595       32.3280177139      -21.9215696465  W2        6132            0.0000000000
     18395      6132  TIP3      H1             39.7468033595       32.2999577139      -22.7365996465  W2        6132            0.0000000000
     18396      6132  TIP3      H2             40.2533333595       31.4223377139      -21.6118396465  W2        6132            0.0000000000
     18397      6133  TIP3      OH2            39.9982333595       35.1083977139      -25.0375496465  W2        6133            0.0000000000
     18398      6133  TIP3      H1             40.9442933595       34.9640977139      -25.0565996465  W2        6133            0.0000000000
     18399      6133  TIP3      H2             39.8858633595       35.8926777139      -24.5004296465  W2        6133            0.0000000000
     18400      6134  TIP3      OH2            49.1744833595       35.3482877139      -20.4790396465  W2        6134            0.0000000000
     18401      6134  TIP3      H1             49.2619433595       36.1747477139      -20.0041296465  W2        6134            0.0000000000
     18402      6134  TIP3      H2             48.3109933595       35.0186677139      -20.2301096465  W2        6134            0.0000000000
     18403      6135  TIP3      OH2            49.5890633595       39.1206577139      -30.6729796465  W2        6135            0.0000000000
     18404      6135  TIP3      H1             49.5136633595       38.9993777139      -31.6194596465  W2        6135            0.0000000000
     18405      6135  TIP3      H2             49.6219333595       40.0699277139      -30.5545196465  W2        6135            0.0000000000
     18406      6136  TIP3      OH2            43.2424433595       37.9093577139      -28.8920796465  W2        6136            0.0000000000
     18407      6136  TIP3      H1             43.3944833595       37.5613977139      -28.0134296465  W2        6136            0.0000000000
     18408      6136  TIP3      H2             42.3914833595       37.5530877139      -29.1473596465  W2        6136            0.0000000000
     18409      6137  TIP3      OH2            52.6906633595       38.2746777139      -33.6707396465  W2        6137            0.0000000000
     18410      6137  TIP3      H1             53.0655033595       37.5302877139      -34.1414796465  W2        6137            0.0000000000
     18411      6137  TIP3      H2             52.6950333595       38.0047377139      -32.7524096465  W2        6137            0.0000000000
     18412      6138  TIP3      OH2            52.3594733595       38.2003877139      -30.9215196465  W2        6138            0.0000000000
     18413      6138  TIP3      H1             51.4244533595       38.3005777139      -30.7428196465  W2        6138            0.0000000000
     18414      6138  TIP3      H2             52.6396633595       37.4909877139      -30.3431996465  W2        6138            0.0000000000
     18415      6139  TIP3      OH2            42.4970133595       33.6515577139      -20.8782896465  W2        6139            0.0000000000
     18416      6139  TIP3      H1             42.7131433595       33.2901177139      -20.0187096465  W2        6139            0.0000000000
     18417      6139  TIP3      H2             41.6414833595       33.2769377139      -21.0879396465  W2        6139            0.0000000000
     18418      6140  TIP3      OH2            45.1158133595       22.1216077139      -24.8828696465  W2        6140            0.0000000000
     18419      6140  TIP3      H1             44.2541833595       22.0344277139      -25.2905796465  W2        6140            0.0000000000
     18420      6140  TIP3      H2             45.0933833595       22.9776177139      -24.4551096465  W2        6140            0.0000000000
     18421      6141  TIP3      OH2            49.7785933595       21.8436477139      -21.5081696465  W2        6141            0.0000000000
     18422      6141  TIP3      H1             50.1989033595       21.4283577139      -20.7551096465  W2        6141            0.0000000000
     18423      6141  TIP3      H2             48.8455533595       21.6649777139      -21.3909696465  W2        6141            0.0000000000
     18424      6142  TIP3      OH2            53.1050833595       25.5991677139      -20.6547196465  W2        6142            0.0000000000
     18425      6142  TIP3      H1             52.5910333595       25.4733877139      -19.8571196465  W2        6142            0.0000000000
     18426      6142  TIP3      H2             52.9495533595       26.5114777139      -20.8990996465  W2        6142            0.0000000000
     18427      6143  TIP3      OH2            53.8675733595       30.4601677139      -34.8934196465  W2        6143            0.0000000000
     18428      6143  TIP3      H1             53.9096533595       30.2375577139      -35.8234196465  W2        6143            0.0000000000
     18429      6143  TIP3      H2             54.7167833595       30.8588777139      -34.7034296465  W2        6143            0.0000000000
     18430      6144  TIP3      OH2            49.4403233595       24.3359877139      -34.2230896465  W2        6144            0.0000000000
     18431      6144  TIP3      H1             49.1868033595       24.3551477139      -33.3002796465  W2        6144            0.0000000000
     18432      6144  TIP3      H2             49.1835333595       23.4645277139      -34.5244696465  W2        6144            0.0000000000
     18433      6145  TIP3      OH2            45.2068233595       27.0870577139      -23.7878496465  W2        6145            0.0000000000
     18434      6145  TIP3      H1             44.5650333595       27.0467877139      -23.0788396465  W2        6145            0.0000000000
     18435      6145  TIP3      H2             45.2440233595       28.0135277139      -24.0255496465  W2        6145            0.0000000000
     18436      6146  TIP3      OH2            45.2037333595       27.3080677139      -28.8758496465  W2        6146            0.0000000000
     18437      6146  TIP3      H1             44.3110233595       26.9676777139      -28.9344696465  W2        6146            0.0000000000
     18438      6146  TIP3      H2             45.6543933595       26.9311577139      -29.6315296465  W2        6146            0.0000000000
     18439      6147  TIP3      OH2            50.7392833595       27.7240977139      -30.0587696465  W2        6147            0.0000000000
     18440      6147  TIP3      H1             50.3303133595       28.5389577139      -30.3502896465  W2        6147            0.0000000000
     18441      6147  TIP3      H2             51.4599033595       27.5841077139      -30.6730596465  W2        6147            0.0000000000
     18442      6148  TIP3      OH2            49.8414433595       27.8997377139      -18.5706996465  W2        6148            0.0000000000
     18443      6148  TIP3      H1             49.2788233595       27.1948977139      -18.2499196465  W2        6148            0.0000000000
     18444      6148  TIP3      H2             50.6677833595       27.7789277139      -18.1029396465  W2        6148            0.0000000000
     18445      6149  TIP3      OH2            51.7440533595       27.1701377139      -27.2447996465  W2        6149            0.0000000000
     18446      6149  TIP3      H1             51.5485033595       27.7758177139      -27.9597396465  W2        6149            0.0000000000
     18447      6149  TIP3      H2             51.9253133595       26.3366577139      -27.6791696465  W2        6149            0.0000000000
     18448      6150  TIP3      OH2            42.9568733595       27.4074077139      -21.9206496465  W2        6150            0.0000000000
     18449      6150  TIP3      H1             42.9188133595       27.8075677139      -21.0519396465  W2        6150            0.0000000000
     18450      6150  TIP3      H2             42.4659833595       26.5906477139      -21.8303596465  W2        6150            0.0000000000
     18451      6151  TIP3      OH2            46.3226133595       24.7816377139      -35.1220496465  W2        6151            0.0000000000
     18452      6151  TIP3      H1             45.8916833595       24.3366477139      -34.3923096465  W2        6151            0.0000000000
     18453      6151  TIP3      H2             45.6044833595       25.1532677139      -35.6342996465  W2        6151            0.0000000000
     18454      6152  TIP3      OH2            39.5649533595       24.5235877139      -28.0701796465  W2        6152            0.0000000000
     18455      6152  TIP3      H1             40.1957233595       24.4947977139      -27.3507896465  W2        6152            0.0000000000
     18456      6152  TIP3      H2             40.0143833595       24.0984577139      -28.8005896465  W2        6152            0.0000000000
     18457      6153  TIP3      OH2            40.8391633595       25.2697877139      -32.6461396465  W2        6153            0.0000000000
     18458      6153  TIP3      H1             41.3133333595       25.8607777139      -33.2310496465  W2        6153            0.0000000000
     18459      6153  TIP3      H2             40.1218033595       25.8000777139      -32.2991296465  W2        6153            0.0000000000
     18460      6154  TIP3      OH2            51.0079733595       28.8082677139      -22.5735596465  W2        6154            0.0000000000
     18461      6154  TIP3      H1             51.3314533595       28.1772377139      -23.2165096465  W2        6154            0.0000000000
     18462      6154  TIP3      H2             50.5679033595       28.2734877139      -21.9128196465  W2        6154            0.0000000000
     18463      6155  TIP3      OH2            47.7852633595       24.7358177139      -27.7894396465  W2        6155            0.0000000000
     18464      6155  TIP3      H1             46.8743733595       24.7924977139      -27.5008396465  W2        6155            0.0000000000
     18465      6155  TIP3      H2             48.2905533595       24.6753677139      -26.9787196465  W2        6155            0.0000000000
     18466      6156  TIP3      OH2            42.6136033595       26.3644477139      -28.9626796465  W2        6156            0.0000000000
     18467      6156  TIP3      H1             41.7244033595       26.4639977139      -29.3027196465  W2        6156            0.0000000000
     18468      6156  TIP3      H2             42.9100933595       25.5227477139      -29.3088896465  W2        6156            0.0000000000
     18469      6157  TIP3      OH2            46.2667833595       26.3647077139      -31.3062196465  W2        6157            0.0000000000
     18470      6157  TIP3      H1             47.1983333595       26.4937077139      -31.1279096465  W2        6157            0.0000000000
     18471      6157  TIP3      H2             46.0518133595       27.0341377139      -31.9557496465  W2        6157            0.0000000000
     18472      6158  TIP3      OH2            52.1904533595       23.9704477139      -24.5252596465  W2        6158            0.0000000000
     18473      6158  TIP3      H1             51.5136133595       24.1017577139      -23.8612896465  W2        6158            0.0000000000
     18474      6158  TIP3      H2             51.7049433595       23.8153977139      -25.3354896465  W2        6158            0.0000000000
     18475      6159  TIP3      OH2            44.9408033595       27.5589277139      -33.7396096465  W2        6159            0.0000000000
     18476      6159  TIP3      H1             44.3983133595       27.1793077139      -34.4308496465  W2        6159            0.0000000000
     18477      6159  TIP3      H2             45.7742933595       27.7533977139      -34.1681996465  W2        6159            0.0000000000
     18478      6160  TIP3      OH2            43.0759433595       32.1161177139      -18.6404496465  W2        6160            0.0000000000
     18479      6160  TIP3      H1             43.8081833595       32.3707077139      -18.0789996465  W2        6160            0.0000000000
     18480      6160  TIP3      H2             42.2958133595       32.3206577139      -18.1249096465  W2        6160            0.0000000000
     18481      6161  TIP3      OH2            49.1052333595       27.5231177139      -25.9024796465  W2        6161            0.0000000000
     18482      6161  TIP3      H1             49.6695733595       26.9767777139      -26.4495196465  W2        6161            0.0000000000
     18483      6161  TIP3      H2             48.9575733595       27.0013077139      -25.1137196465  W2        6161            0.0000000000
     18484      6162  TIP3      OH2            44.1072033595       23.6597277139      -29.4839996465  W2        6162            0.0000000000
     18485      6162  TIP3      H1             43.7901533595       22.7572577139      -29.5194596465  W2        6162            0.0000000000
     18486      6162  TIP3      H2             44.8886133595       23.6614677139      -30.0368396465  W2        6162            0.0000000000
     18487      6163  TIP3      OH2            47.7318233595       25.9117277139      -23.4884396465  W2        6163            0.0000000000
     18488      6163  TIP3      H1             46.8963533595       26.3656777139      -23.3781996465  W2        6163            0.0000000000
     18489      6163  TIP3      H2             48.2558833595       26.1875777139      -22.7364496465  W2        6163            0.0000000000
     18490      6164  TIP3      OH2            48.2760833595       32.1244977139      -31.8037996465  W2        6164            0.0000000000
     18491      6164  TIP3      H1             47.5311833595       31.6170277139      -32.1260096465  W2        6164            0.0000000000
     18492      6164  TIP3      H2             48.1418033595       32.1732977139      -30.8573196465  W2        6164            0.0000000000
     18493      6165  TIP3      OH2            52.1737633595       24.9384877139      -33.6045396465  W2        6165            0.0000000000
     18494      6165  TIP3      H1             51.2351833595       25.0500477139      -33.7556596465  W2        6165            0.0000000000
     18495      6165  TIP3      H2             52.4709733595       25.7951777139      -33.2979696465  W2        6165            0.0000000000
     18496      6166  TIP3      OH2            49.7952933595       32.3088277139      -20.5668896465  W2        6166            0.0000000000
     18497      6166  TIP3      H1             49.4499033595       31.9270677139      -19.7599296465  W2        6166            0.0000000000
     18498      6166  TIP3      H2             49.5953033595       33.2421877139      -20.4955996465  W2        6166            0.0000000000
     18499      6167  TIP3      OH2            52.8921133595       26.8057577139      -31.9437996465  W2        6167            0.0000000000
     18500      6167  TIP3      H1             53.7840133595       26.6682577139      -31.6246796465  W2        6167            0.0000000000
     18501      6167  TIP3      H2             52.9484733595       27.5963677139      -32.4804496465  W2        6167            0.0000000000
     18502      6168  TIP3      OH2            43.4009133595       31.4194977139      -26.0340096465  W2        6168            0.0000000000
     18503      6168  TIP3      H1             44.1456333595       31.4170677139      -26.6353596465  W2        6168            0.0000000000
     18504      6168  TIP3      H2             43.4785733595       30.5958777139      -25.5524996465  W2        6168            0.0000000000
     18505      6169  TIP3      OH2            50.4014933595       33.5829277139      -32.7783396465  W2        6169            0.0000000000
     18506      6169  TIP3      H1             50.1063333595       34.4097177139      -32.3968596465  W2        6169            0.0000000000
     18507      6169  TIP3      H2             49.6984933595       32.9636177139      -32.5821996465  W2        6169            0.0000000000
     18508      6170  TIP3      OH2            40.4088833595       29.8801877139      -20.7191596465  W2        6170            0.0000000000
     18509      6170  TIP3      H1             40.6317433595       29.4621477139      -19.8874096465  W2        6170            0.0000000000
     18510      6170  TIP3      H2             39.8068933595       29.2676877139      -21.1418796465  W2        6170            0.0000000000
     18511      6171  TIP3      OH2            47.4253733595       29.3971777139      -18.5061896465  W2        6171            0.0000000000
     18512      6171  TIP3      H1             47.1294533595       29.2314777139      -19.4012796465  W2        6171            0.0000000000
     18513      6171  TIP3      H2             48.3568933595       29.1772077139      -18.5167996465  W2        6171            0.0000000000
     18514      6172  TIP3      OH2            52.0456533595       34.7703777139      -20.6163896465  W2        6172            0.0000000000
     18515      6172  TIP3      H1             51.1450833595       34.9536377139      -20.8839996465  W2        6172            0.0000000000
     18516      6172  TIP3      H2             52.0797633595       35.0293077139      -19.6955096465  W2        6172            0.0000000000
     18517      6173  TIP3      OH2            53.2325433595       30.6091577139      -24.7627296465  W2        6173            0.0000000000
     18518      6173  TIP3      H1             52.3042333595       30.3773477139      -24.7897996465  W2        6173            0.0000000000
     18519      6173  TIP3      H2             53.6836533595       29.8321377139      -25.0928496465  W2        6173            0.0000000000
     18520      6174  TIP3      OH2            45.7758533595       34.9373177139      -28.6298596465  W2        6174            0.0000000000
     18521      6174  TIP3      H1             46.3030733595       35.7107577139      -28.8299796465  W2        6174            0.0000000000
     18522      6174  TIP3      H2             44.8957033595       35.1622377139      -28.9314596465  W2        6174            0.0000000000
     18523      6175  TIP3      OH2            41.5306233595       29.7997277139      -34.0426196465  W2        6175            0.0000000000
     18524      6175  TIP3      H1             42.1466133595       30.4264477139      -33.6631396465  W2        6175            0.0000000000
     18525      6175  TIP3      H2             40.6688833595       30.1157077139      -33.7709696465  W2        6175            0.0000000000
     18526      6176  TIP3      OH2            47.2030833595       32.6003077139      -29.0534296465  W2        6176            0.0000000000
     18527      6176  TIP3      H1             46.9620833595       33.5257477139      -29.0118996465  W2        6176            0.0000000000
     18528      6176  TIP3      H2             46.4624433595       32.1414377139      -28.6570396465  W2        6176            0.0000000000
     18529      6177  TIP3      OH2            47.7177433595       36.7496677139      -22.7383196465  W2        6177            0.0000000000
     18530      6177  TIP3      H1             48.0802133595       37.6042277139      -22.9718796465  W2        6177            0.0000000000
     18531      6177  TIP3      H2             48.2492633595       36.4578277139      -21.9976896465  W2        6177            0.0000000000
     18532      6178  TIP3      OH2            45.8861633595       37.6220677139      -29.5082096465  W2        6178            0.0000000000
     18533      6178  TIP3      H1             44.9362133595       37.7278077139      -29.4568796465  W2        6178            0.0000000000
     18534      6178  TIP3      H2             46.2379733595       38.4428077139      -29.1634596465  W2        6178            0.0000000000
     18535      6179  TIP3      OH2            51.2618233595       32.8487377139      -23.0377596465  W2        6179            0.0000000000
     18536      6179  TIP3      H1             50.8359533595       32.6209077139      -22.2113596465  W2        6179            0.0000000000
     18537      6179  TIP3      H2             51.8424033595       32.1099177139      -23.2202296465  W2        6179            0.0000000000
     18538      6180  TIP3      OH2            53.4647133595       33.7777877139      -33.9638596465  W2        6180            0.0000000000
     18539      6180  TIP3      H1             53.8180233595       33.3977677139      -33.1595096465  W2        6180            0.0000000000
     18540      6180  TIP3      H2             52.5160633595       33.6842677139      -33.8769296465  W2        6180            0.0000000000
     18541      6181  TIP3      OH2            53.9202433595       37.4006877139      -20.5682796465  W2        6181            0.0000000000
     18542      6181  TIP3      H1             53.3185633595       36.8449777139      -21.0636496465  W2        6181            0.0000000000
     18543      6181  TIP3      H2             54.2016133595       38.0676677139      -21.1945396465  W2        6181            0.0000000000
     18544      6182  TIP3      OH2            42.0428333595       24.6334577139      -21.1610196465  W2        6182            0.0000000000
     18545      6182  TIP3      H1             41.1500633595       24.9719977139      -21.2286196465  W2        6182            0.0000000000
     18546      6182  TIP3      H2             41.9441133595       23.7780677139      -20.7429396465  W2        6182            0.0000000000
     18547      6183  TIP3      OH2            54.3306433595       32.4499877139      -31.7370696465  W2        6183            0.0000000000
     18548      6183  TIP3      H1             54.0534033595       31.7219177139      -31.1809596465  W2        6183            0.0000000000
     18549      6183  TIP3      H2             55.2579433595       32.5691877139      -31.5318096465  W2        6183            0.0000000000
     18550      6184  TIP3      OH2            41.6940333595       36.4378977139      -22.7260796465  W2        6184            0.0000000000
     18551      6184  TIP3      H1             41.9110633595       35.5061377139      -22.7571096465  W2        6184            0.0000000000
     18552      6184  TIP3      H2             41.9403833595       36.7123977139      -21.8427996465  W2        6184            0.0000000000
     18553      6185  TIP3      OH2            47.5554933595       34.8893977139      -35.5168596465  W2        6185            0.0000000000
     18554      6185  TIP3      H1             47.7944733595       34.1412077139      -36.0639696465  W2        6185            0.0000000000
     18555      6185  TIP3      H2             47.2866233595       34.5015677139      -34.6840796465  W2        6185            0.0000000000
     18556      6186  TIP3      OH2            46.4925533595       34.4597777139      -33.0605996465  W2        6186            0.0000000000
     18557      6186  TIP3      H1             46.6393533595       33.9397577139      -32.2705096465  W2        6186            0.0000000000
     18558      6186  TIP3      H2             46.4897233595       35.3665377139      -32.7540096465  W2        6186            0.0000000000
     18559      6187  TIP3      OH2            42.9456633595       31.7121077139      -32.5500596465  W2        6187            0.0000000000
     18560      6187  TIP3      H1             42.2595933595       32.0643577139      -31.9830896465  W2        6187            0.0000000000
     18561      6187  TIP3      H2             43.4684533595       32.4750677139      -32.7966296465  W2        6187            0.0000000000
     18562      6188  TIP3      OH2            50.7771733595       24.3744877139      -22.2711596465  W2        6188            0.0000000000
     18563      6188  TIP3      H1             51.4759633595       24.4483577139      -21.6211896465  W2        6188            0.0000000000
     18564      6188  TIP3      H2             50.3963133595       23.5099877139      -22.1168696465  W2        6188            0.0000000000
     18565      6189  TIP3      OH2            51.5616633595       24.0266577139      -31.1739296465  W2        6189            0.0000000000
     18566      6189  TIP3      H1             51.7814933595       24.4981977139      -31.9773896465  W2        6189            0.0000000000
     18567      6189  TIP3      H2             52.1200633595       24.4209177139      -30.5038696465  W2        6189            0.0000000000
     18568      6190  TIP3      OH2            49.2302733595       36.1571377139      -32.3111796465  W2        6190            0.0000000000
     18569      6190  TIP3      H1             48.4138833595       36.6541077139      -32.2587496465  W2        6190            0.0000000000
     18570      6190  TIP3      H2             49.7599033595       36.6324877139      -32.9512996465  W2        6190            0.0000000000
     18571      6191  TIP3      OH2            48.7616533595       25.7545377139      -30.3390896465  W2        6191            0.0000000000
     18572      6191  TIP3      H1             49.5739133595       26.2588577139      -30.2929196465  W2        6191            0.0000000000
     18573      6191  TIP3      H2             48.5169533595       25.6095077139      -29.4251296465  W2        6191            0.0000000000
     18574      6192  TIP3      OH2            49.2972933595       26.7408077139      -21.1544296465  W2        6192            0.0000000000
     18575      6192  TIP3      H1             49.4163233595       27.3143477139      -20.3973896465  W2        6192            0.0000000000
     18576      6192  TIP3      H2             49.9527533595       26.0527477139      -21.0396496465  W2        6192            0.0000000000
     18577      6193  TIP3      OH2            49.6453233595       22.8358377139      -29.4009796465  W2        6193            0.0000000000
     18578      6193  TIP3      H1             49.2986733595       23.4528977139      -28.7565496465  W2        6193            0.0000000000
     18579      6193  TIP3      H2             50.3040133595       23.3364077139      -29.8824296465  W2        6193            0.0000000000
     18580      6194  TIP3      OH2            46.5685833595       37.2008577139      -32.3294896465  W2        6194            0.0000000000
     18581      6194  TIP3      H1             46.7294533595       38.0006077139      -32.8302296465  W2        6194            0.0000000000
     18582      6194  TIP3      H2             46.3713633595       37.5074577139      -31.4444296465  W2        6194            0.0000000000
     18583      6195  TIP3      OH2            45.3030233595       23.8987777139      -32.7137296465  W2        6195            0.0000000000
     18584      6195  TIP3      H1             45.2195033595       24.7870877139      -32.3670896465  W2        6195            0.0000000000
     18585      6195  TIP3      H2             46.1930533595       23.6334477139      -32.4820496465  W2        6195            0.0000000000
     18586      6196  TIP3      OH2            54.1039733595       28.3979377139      -26.2237296465  W2        6196            0.0000000000
     18587      6196  TIP3      H1             53.3064133595       27.9829577139      -26.5522296465  W2        6196            0.0000000000
     18588      6196  TIP3      H2             54.5490833595       27.7073077139      -25.7326796465  W2        6196            0.0000000000
     18589      6197  TIP3      OH2            43.5615533595       34.3259977139      -33.6532796465  W2        6197            0.0000000000
     18590      6197  TIP3      H1             44.1537033595       35.0254777139      -33.3770396465  W2        6197            0.0000000000
     18591      6197  TIP3      H2             44.0208533595       33.8929477139      -34.3728196465  W2        6197            0.0000000000
     18592      6198  TIP3      OH2            41.8774733595       26.9902977139      -34.5373396465  W2        6198            0.0000000000
     18593      6198  TIP3      H1             41.8327333595       27.9296077139      -34.3586396465  W2        6198            0.0000000000
     18594      6198  TIP3      H2             40.9897933595       26.7547877139      -34.8071296465  W2        6198            0.0000000000
     18595      6199  TIP3      OH2            42.6856733595       21.7719577139      -25.8642396465  W2        6199            0.0000000000
     18596      6199  TIP3      H1             42.4566533595       21.8312077139      -26.7917396465  W2        6199            0.0000000000
     18597      6199  TIP3      H2             42.2430133595       20.9805077139      -25.5578296465  W2        6199            0.0000000000
     18598      6200  TIP3      OH2            41.6160033595       35.7126677139      -29.7036596465  W2        6200            0.0000000000
     18599      6200  TIP3      H1             40.7838633595       36.1849377139      -29.6765196465  W2        6200            0.0000000000
     18600      6200  TIP3      H2             42.1618333595       36.2224277139      -30.3023496465  W2        6200            0.0000000000
     18601      6201  TIP3      OH2            40.9043733595       38.3250377139      -18.3738596465  W2        6201            0.0000000000
     18602      6201  TIP3      H1             41.4445933595       38.1084377139      -17.6139396465  W2        6201            0.0000000000
     18603      6201  TIP3      H2             40.4231733595       37.5196377139      -18.5636096465  W2        6201            0.0000000000
     18604      6202  TIP3      OH2            45.5017133595       37.2444777139      -16.7534396465  W2        6202            0.0000000000
     18605      6202  TIP3      H1             46.2694333595       36.7855577139      -16.4125196465  W2        6202            0.0000000000
     18606      6202  TIP3      H2             45.4803333595       37.0184577139      -17.6833196465  W2        6202            0.0000000000
     18607      6203  TIP3      OH2            49.5936733595       36.7525377139      -35.3782596465  W2        6203            0.0000000000
     18608      6203  TIP3      H1             48.9497733595       36.1213977139      -35.0568896465  W2        6203            0.0000000000
     18609      6203  TIP3      H2             50.3555033595       36.2213377139      -35.6099096465  W2        6203            0.0000000000
     18610      6204  TIP3      OH2            52.0785833595       35.6245877139      -18.0242896465  W2        6204            0.0000000000
     18611      6204  TIP3      H1             51.7275333595       34.7678877139      -17.7812496465  W2        6204            0.0000000000
     18612      6204  TIP3      H2             52.8049033595       35.7672577139      -17.4173896465  W2        6204            0.0000000000
     18613      6205  TIP3      OH2            54.1979633595       36.5695277139      -35.1444596465  W2        6205            0.0000000000
     18614      6205  TIP3      H1             54.4810033595       35.7750477139      -34.6917696465  W2        6205            0.0000000000
     18615      6205  TIP3      H2             54.9377533595       36.8026277139      -35.7053496465  W2        6205            0.0000000000
     18616      6206  TIP3      OH2            40.8113233595       32.1354477139      -17.4194296465  W2        6206            0.0000000000
     18617      6206  TIP3      H1             40.9553733595       31.2335177139      -17.7057596465  W2        6206            0.0000000000
     18618      6206  TIP3      H2             40.0390633595       32.4216577139      -17.9071996465  W2        6206            0.0000000000
     18619      6207  TIP3      OH2            45.1526933595       32.4790177139      -35.2869696465  W2        6207            0.0000000000
     18620      6207  TIP3      H1             45.2171033595       31.6849777139      -34.7563296465  W2        6207            0.0000000000
     18621      6207  TIP3      H2             45.8056133595       32.3602977139      -35.9767696465  W2        6207            0.0000000000
     18622      6208  TIP3      OH2            47.4669333595       32.1052577139      -17.9867896465  W2        6208            0.0000000000
     18623      6208  TIP3      H1             47.1383133595       32.3760677139      -18.8440496465  W2        6208            0.0000000000
     18624      6208  TIP3      H2             47.6187533595       31.1642377139      -18.0742896465  W2        6208            0.0000000000
     18625      6209  TIP3      OH2            50.5050333595       33.5261877139      -35.5511696465  W2        6209            0.0000000000
     18626      6209  TIP3      H1             50.2364433595       33.7063977139      -34.6502796465  W2        6209            0.0000000000
     18627      6209  TIP3      H2             50.2985933595       32.6008077139      -35.6825896465  W2        6209            0.0000000000
     18628      6210  TIP3      OH2            53.2014533595       32.0209877139      -20.6035596465  W2        6210            0.0000000000
     18629      6210  TIP3      H1             53.9469333595       32.6093577139      -20.7231596465  W2        6210            0.0000000000
     18630      6210  TIP3      H2             52.4441333595       32.6029577139      -20.5402496465  W2        6210            0.0000000000
     18631      6211  TIP3      OH2            41.6439733595       29.3357777139      -17.9994996465  W2        6211            0.0000000000
     18632      6211  TIP3      H1             42.0520933595       28.4784377139      -18.1204396465  W2        6211            0.0000000000
     18633      6211  TIP3      H2             41.3837333595       29.3499077139      -17.0784696465  W2        6211            0.0000000000
     18634      6212  TIP3      OH2            46.3020733595       30.4516377139      -32.9811696465  W2        6212            0.0000000000
     18635      6212  TIP3      H1             45.8422733595       29.9674677139      -32.2953196465  W2        6212            0.0000000000
     18636      6212  TIP3      H2             46.5569433595       29.7831777139      -33.6171196465  W2        6212            0.0000000000
     18637      6213  TIP3      OH2            45.5910033595       28.3443477139      -20.6252096465  W2        6213            0.0000000000
     18638      6213  TIP3      H1             44.9726133595       29.0190077139      -20.3447396465  W2        6213            0.0000000000
     18639      6213  TIP3      H2             45.9351233595       28.6657377139      -21.4585896465  W2        6213            0.0000000000
     18640      6214  TIP3      OH2            47.3731133595       28.6948177139      -34.7188496465  W2        6214            0.0000000000
     18641      6214  TIP3      H1             47.1926133595       28.5399377139      -35.6460196465  W2        6214            0.0000000000
     18642      6214  TIP3      H2             48.3231633595       28.8026877139      -34.6740596465  W2        6214            0.0000000000
     18643      6215  TIP3      OH2            50.6108233595       30.8158777139      -17.3477296465  W2        6215            0.0000000000
     18644      6215  TIP3      H1             51.5639433595       30.8997877139      -17.3751296465  W2        6215            0.0000000000
     18645      6215  TIP3      H2             50.4502833595       30.1040577139      -16.7282396465  W2        6215            0.0000000000
     18646      6216  TIP3      OH2            45.9303733595       25.6994277139      -19.5428996465  W2        6216            0.0000000000
     18647      6216  TIP3      H1             46.0804633595       24.9705577139      -20.1449296465  W2        6216            0.0000000000
     18648      6216  TIP3      H2             45.9326133595       26.4765977139      -20.1016796465  W2        6216            0.0000000000
     18649      6217  TIP3      OH2            46.3429433595       24.0690077139      -22.0501596465  W2        6217            0.0000000000
     18650      6217  TIP3      H1             46.8786933595       24.5206777139      -22.7022296465  W2        6217            0.0000000000
     18651      6217  TIP3      H2             45.4909033595       23.9609877139      -22.4727496465  W2        6217            0.0000000000
     18652      6218  TIP3      OH2            47.9247833595       29.5086277139      -21.8106396465  W2        6218            0.0000000000
     18653      6218  TIP3      H1             48.6752633595       29.3523777139      -22.3838596465  W2        6218            0.0000000000
     18654      6218  TIP3      H2             47.5856133595       30.3602877139      -22.0860896465  W2        6218            0.0000000000
     18655      6219  TIP3      OH2            52.3404033595       27.3238077139      -16.7821096465  W2        6219            0.0000000000
     18656      6219  TIP3      H1             52.5325333595       26.3927477139      -16.8936596465  W2        6219            0.0000000000
     18657      6219  TIP3      H2             53.1980333595       27.7487577139      -16.7925696465  W2        6219            0.0000000000
     18658      6220  TIP3      OH2            53.6571233595       30.1123277139      -18.7048396465  W2        6220            0.0000000000
     18659      6220  TIP3      H1             53.3756233595       30.8217877139      -19.2824596465  W2        6220            0.0000000000
     18660      6220  TIP3      H2             54.5995533595       30.0396277139      -18.8557196465  W2        6220            0.0000000000
     18661      6221  TIP3      OH2            44.4090033595       26.8977777139      -17.6313396465  W2        6221            0.0000000000
     18662      6221  TIP3      H1             43.6419033595       26.3652577139      -17.8415796465  W2        6221            0.0000000000
     18663      6221  TIP3      H2             45.0879033595       26.5878177139      -18.2307096465  W2        6221            0.0000000000
     18664      6222  TIP3      OH2            47.1484933595       21.5255777139      -21.6187996465  W2        6222            0.0000000000
     18665      6222  TIP3      H1             47.0504533595       22.4718977139      -21.7241796465  W2        6222            0.0000000000
     18666      6222  TIP3      H2             46.4061133595       21.1529577139      -22.0944496465  W2        6222            0.0000000000
     18667      6223  TIP3      OH2            48.4125433595       25.8471177139      -18.0549596465  W2        6223            0.0000000000
     18668      6223  TIP3      H1             48.1770833595       25.6277877139      -17.1534696465  W2        6223            0.0000000000
     18669      6223  TIP3      H2             47.6292333595       25.6402377139      -18.5647096465  W2        6223            0.0000000000
     18670      6224  TIP3      OH2            51.1282033595       24.9744677139      -18.9796096465  W2        6224            0.0000000000
     18671      6224  TIP3      H1             50.1807433595       25.0064377139      -18.8472796465  W2        6224            0.0000000000
     18672      6224  TIP3      H2             51.4408733595       24.3491777139      -18.3257896465  W2        6224            0.0000000000
     18673      6225  TIP3      OH2            52.7623533595       23.6085777139      -16.9744196465  W2        6225            0.0000000000
     18674      6225  TIP3      H1             52.6655333595       22.6563077139      -16.9802296465  W2        6225            0.0000000000
     18675      6225  TIP3      H2             52.4406633595       23.8772577139      -16.1138696465  W2        6225            0.0000000000
     18676      6226  TIP3      OH2            42.5892833595       24.8181577139      -17.9268696465  W2        6226            0.0000000000
     18677      6226  TIP3      H1             42.8010233595       24.1117677139      -18.5371196465  W2        6226            0.0000000000
     18678      6226  TIP3      H2             42.4780333595       24.3807577139      -17.0827496465  W2        6226            0.0000000000
     18679      6227  TIP3      OH2            47.3703033595       20.8193177139      -18.9475196465  W2        6227            0.0000000000
     18680      6227  TIP3      H1             48.0821433595       20.1795377139      -18.9616096465  W2        6227            0.0000000000
     18681      6227  TIP3      H2             47.2693433595       21.0861477139      -19.8612096465  W2        6227            0.0000000000
     18682      6228  TIP3      OH2            47.7240533595       22.5021577139      -16.8938896465  W2        6228            0.0000000000
     18683      6228  TIP3      H1             47.5922733595       22.0265377139      -17.7140396465  W2        6228            0.0000000000
     18684      6228  TIP3      H2             47.1247933595       23.2465177139      -16.9491796465  W2        6228            0.0000000000
     18685      6229  TIP3      OH2            47.2702833595       39.3851877139      -33.7174896465  W2        6229            0.0000000000
     18686      6229  TIP3      H1             48.2033533595       39.5430577139      -33.5736496465  W2        6229            0.0000000000
     18687      6229  TIP3      H2             47.0061633595       40.0604877139      -34.3423396465  W2        6229            0.0000000000
     18688      6230  TIP3      OH2            40.8387733595       34.0215677139      -34.2346796465  W2        6230            0.0000000000
     18689      6230  TIP3      H1             41.7526933595       34.1004577139      -33.9612896465  W2        6230            0.0000000000
     18690      6230  TIP3      H2             40.8460833595       33.3345277139      -34.9011196465  W2        6230            0.0000000000
     18691      6231  TIP3      OH2            39.4878333595       39.4144177139      -29.1572896465  W2        6231            0.0000000000
     18692      6231  TIP3      H1             38.8405433595       38.9525877139      -29.6901696465  W2        6231            0.0000000000
     18693      6231  TIP3      H2             39.8422933595       38.7427477139      -28.5746696465  W2        6231            0.0000000000
     18694      6232  TIP3      OH2            40.3577533595       37.4951177139      -27.3526696465  W2        6232            0.0000000000
     18695      6232  TIP3      H1             40.0234333595       36.6148477139      -27.1806496465  W2        6232            0.0000000000
     18696      6232  TIP3      H2             40.5799933595       37.8406177139      -26.4881096465  W2        6232            0.0000000000
     18697      6233  TIP3      OH2            40.4377033595       30.5706577139      -24.9011796465  W2        6233            0.0000000000
     18698      6233  TIP3      H1             40.6219933595       30.4888277139      -25.8368896465  W2        6233            0.0000000000
     18699      6233  TIP3      H2             41.2869933595       30.4463577139      -24.4775396465  W2        6233            0.0000000000
     18700      6234  TIP3      OH2            40.0351833595       25.8411577139      -18.7602996465  W2        6234            0.0000000000
     18701      6234  TIP3      H1             40.9546733595       25.7189877139      -18.5239896465  W2        6234            0.0000000000
     18702      6234  TIP3      H2             39.5856333595       25.0911277139      -18.3709496465  W2        6234            0.0000000000
     18703      6235  TIP3      OH2            41.2564333595       24.1533177139      -25.8690096465  W2        6235            0.0000000000
     18704      6235  TIP3      H1             41.7015933595       23.3615677139      -25.5670396465  W2        6235            0.0000000000
     18705      6235  TIP3      H2             41.7227333595       24.8698377139      -25.4384496465  W2        6235            0.0000000000
     18706      6236  TIP3      OH2            39.5604633595       27.1526177139      -24.7999896465  W2        6236            0.0000000000
     18707      6236  TIP3      H1             40.0524433595       26.9316677139      -25.5907896465  W2        6236            0.0000000000
     18708      6236  TIP3      H2             39.9225533595       27.9929577139      -24.5190396465  W2        6236            0.0000000000
     18709      6237  TIP3      OH2            39.8741133595       23.4105277139      -30.7457496465  W2        6237            0.0000000000
     18710      6237  TIP3      H1             38.9489533595       23.6191877139      -30.8751996465  W2        6237            0.0000000000
     18711      6237  TIP3      H2             40.3281033595       23.8946077139      -31.4355196465  W2        6237            0.0000000000
     18712      6238  TIP3      OH2            54.6448333595       38.3946977139      -28.8000096465  W2        6238            0.0000000000
     18713      6238  TIP3      H1             55.2971233595       38.0469077139      -29.4080996465  W2        6238            0.0000000000
     18714      6238  TIP3      H2             55.1552133595       38.8830177139      -28.1540396465  W2        6238            0.0000000000
     18715      6239  TIP3      OH2            39.8376533595       22.1484277139      -22.4014996465  W2        6239            0.0000000000
     18716      6239  TIP3      H1             39.1727033595       21.9024577139      -21.7584096465  W2        6239            0.0000000000
     18717      6239  TIP3      H2             39.3947833595       22.7704677139      -22.9786996465  W2        6239            0.0000000000
     18718      6240  TIP3      OH2            42.0295833595       35.3238377139      -18.2569196465  W2        6240            0.0000000000
     18719      6240  TIP3      H1             41.2088333595       35.4984877139      -18.7174496465  W2        6240            0.0000000000
     18720      6240  TIP3      H2             41.7773633595       35.2503077139      -17.3364796465  W2        6240            0.0000000000
     18721      6241  TIP3      OH2            44.9838733595       36.2979577139      -21.9985196465  W2        6241            0.0000000000
     18722      6241  TIP3      H1             44.5589833595       37.1078077139      -22.2810596465  W2        6241            0.0000000000
     18723      6241  TIP3      H2             45.8881533595       36.3833677139      -22.3005396465  W2        6241            0.0000000000
     18724      6242  TIP3      OH2            49.2950133595       37.6969577139      -19.0391496465  W2        6242            0.0000000000
     18725      6242  TIP3      H1             49.4797633595       37.3635677139      -18.1611196465  W2        6242            0.0000000000
     18726      6242  TIP3      H2             50.1414633595       38.0068177139      -19.3612296465  W2        6242            0.0000000000
     18727      6243  TIP3      OH2            51.6400533595       38.9828477139      -19.7950096465  W2        6243            0.0000000000
     18728      6243  TIP3      H1             52.3169433595       38.3500777139      -20.0350896465  W2        6243            0.0000000000
     18729      6243  TIP3      H2             51.9619333595       39.3838977139      -18.9876796465  W2        6243            0.0000000000
     18730      6244  TIP3      OH2            42.3855433595       39.5543477139      -21.9509896465  W2        6244            0.0000000000
     18731      6244  TIP3      H1             41.6651833595       39.9944477139      -22.4022196465  W2        6244            0.0000000000
     18732      6244  TIP3      H2             42.0199433595       39.3038177139      -21.1025896465  W2        6244            0.0000000000
     18733      6245  TIP3      OH2            44.8528033595       39.1547377139      -22.9212696465  W2        6245            0.0000000000
     18734      6245  TIP3      H1             43.9880233595       39.2265877139      -22.5172596465  W2        6245            0.0000000000
     18735      6245  TIP3      H2             44.7977033595       39.7014677139      -23.7050196465  W2        6245            0.0000000000
     18736      6246  TIP3      OH2            49.5633633595       39.0426277139      -23.7456696465  W2        6246            0.0000000000
     18737      6246  TIP3      H1             49.1067633595       39.5715977139      -24.3998296465  W2        6246            0.0000000000
     18738      6246  TIP3      H2             49.7261633595       39.6457677139      -23.0204396465  W2        6246            0.0000000000
     18739      6247  TIP3      OH2            51.8909933595       37.9205877139      -22.8006396465  W2        6247            0.0000000000
     18740      6247  TIP3      H1             50.9863633595       38.0856077139      -23.0664296465  W2        6247            0.0000000000
     18741      6247  TIP3      H2             52.3198533595       38.7738077139      -22.8662996465  W2        6247            0.0000000000
     18742      6248  TIP3      OH2            54.4951833595       39.4904977139      -22.5058596465  W2        6248            0.0000000000
     18743      6248  TIP3      H1             54.3133833595       40.4063877139      -22.7163696465  W2        6248            0.0000000000
     18744      6248  TIP3      H2             54.6719633595       39.0802077139      -23.3523996465  W2        6248            0.0000000000
     18745      6249  TIP3      OH2            41.8003533595       38.1775977139      -25.0408096465  W2        6249            0.0000000000
     18746      6249  TIP3      H1             41.7819533595       37.7521077139      -24.1835796465  W2        6249            0.0000000000
     18747      6249  TIP3      H2             42.6051433595       37.8590977139      -25.4495896465  W2        6249            0.0000000000
     18748      6250  TIP3      OH2            43.9416633595       36.8874677139      -26.3858196465  W2        6250            0.0000000000
     18749      6250  TIP3      H1             43.7227333595       35.9712077139      -26.2162196465  W2        6250            0.0000000000
     18750      6250  TIP3      H2             44.7658833595       37.0275077139      -25.9196796465  W2        6250            0.0000000000
     18751      6251  TIP3      OH2            46.4789133595       37.3573977139      -25.5370196465  W2        6251            0.0000000000
     18752      6251  TIP3      H1             46.6914833595       36.4692977139      -25.8239296465  W2        6251            0.0000000000
     18753      6251  TIP3      H2             46.5434233595       37.3231677139      -24.5826196465  W2        6251            0.0000000000
     18754      6252  TIP3      OH2            49.9872833595       23.0214577139      -26.3926896465  W2        6252            0.0000000000
     18755      6252  TIP3      H1             49.3129633595       22.3920177139      -26.1371096465  W2        6252            0.0000000000
     18756      6252  TIP3      H2             50.5512033595       22.5373477139      -26.9958996465  W2        6252            0.0000000000
     18757      6253  TIP3      OH2            42.3140333595       21.6554877139      -28.5706996465  W2        6253            0.0000000000
     18758      6253  TIP3      H1             41.5370133595       21.4209777139      -29.0781096465  W2        6253            0.0000000000
     18759      6253  TIP3      H2             42.8443933595       20.8586977139      -28.5618996465  W2        6253            0.0000000000
     18760      6254  TIP3      OH2            41.1503733595       21.4532977139      -32.7670896465  W2        6254            0.0000000000
     18761      6254  TIP3      H1             41.5894433595       22.0643477139      -33.3587396465  W2        6254            0.0000000000
     18762      6254  TIP3      H2             40.5166133595       21.9917077139      -32.2930896465  W2        6254            0.0000000000
     18763      6255  TIP3      OH2            46.8932933595       21.5821977139      -28.7573896465  W2        6255            0.0000000000
     18764      6255  TIP3      H1             47.7676333595       21.9706277139      -28.7869596465  W2        6255            0.0000000000
     18765      6255  TIP3      H2             46.7573733595       21.3669777139      -27.8346696465  W2        6255            0.0000000000
     18766      6256  TIP3      OH2            52.4501333595       21.6121777139      -27.1082196465  W2        6256            0.0000000000
     18767      6256  TIP3      H1             52.5262933595       21.7073377139      -28.0576196465  W2        6256            0.0000000000
     18768      6256  TIP3      H2             52.1750533595       20.7044677139      -26.9793096465  W2        6256            0.0000000000
     18769      6257  TIP3      OH2            53.8033933595       21.6379577139      -31.4157196465  W2        6257            0.0000000000
     18770      6257  TIP3      H1             53.1005033595       22.2528777139      -31.6255796465  W2        6257            0.0000000000
     18771      6257  TIP3      H2             53.3585333595       20.8006277139      -31.2846296465  W2        6257            0.0000000000
     18772      6258  TIP3      OH2            41.0513233595       37.4015177139      -31.8695796465  W2        6258            0.0000000000
     18773      6258  TIP3      H1             40.3663133595       37.3634077139      -32.5370696465  W2        6258            0.0000000000
     18774      6258  TIP3      H2             41.0550433595       38.3142777139      -31.5813696465  W2        6258            0.0000000000
     18775      6259  TIP3      OH2            43.0112833595       23.3694477139      -34.3246796465  W2        6259            0.0000000000
     18776      6259  TIP3      H1             43.5026233595       22.7396877139      -34.8521296465  W2        6259            0.0000000000
     18777      6259  TIP3      H2             43.6349133595       23.6653877139      -33.6615596465  W2        6259            0.0000000000
     18778      6260  TIP3      OH2            48.0372933595       23.6625977139      -31.8676296465  W2        6260            0.0000000000
     18779      6260  TIP3      H1             48.2154233595       23.0159177139      -31.1847696465  W2        6260            0.0000000000
     18780      6260  TIP3      H2             47.9839133595       24.4963677139      -31.4005196465  W2        6260            0.0000000000
     18781      6261  TIP3      OH2            49.9156733595       38.6110077139      -33.4719596465  W2        6261            0.0000000000
     18782      6261  TIP3      H1             50.7816933595       38.9777477139      -33.6501396465  W2        6261            0.0000000000
     18783      6261  TIP3      H2             49.6689533595       38.1718077139      -34.2858796465  W2        6261            0.0000000000
     18784      6262  TIP3      OH2            42.2718333595       22.1696777139      -19.0530796465  W2        6262            0.0000000000
     18785      6262  TIP3      H1             41.9056533595       21.4039377139      -18.6106096465  W2        6262            0.0000000000
     18786      6262  TIP3      H2             43.1846833595       22.1986977139      -18.7665696465  W2        6262            0.0000000000
     18787      6263  TIP3      OH2            44.2449133595       21.5201177139      -17.5173696465  W2        6263            0.0000000000
     18788      6263  TIP3      H1             45.1432733595       21.2461377139      -17.7020296465  W2        6263            0.0000000000
     18789      6263  TIP3      H2             43.8582233595       20.7777177139      -17.0531096465  W2        6263            0.0000000000
     18790      6264  TIP3      OH2            42.8694433595       38.3215977139      -34.8443696465  W2        6264            0.0000000000
     18791      6264  TIP3      H1             42.6019033595       38.6078877139      -33.9710596465  W2        6264            0.0000000000
     18792      6264  TIP3      H2             43.6407033595       37.7755177139      -34.6921196465  W2        6264            0.0000000000
     18793      6265  TIP3      OH2            52.6661433595       20.8526477139      -17.3350896465  W2        6265            0.0000000000
     18794      6265  TIP3      H1             52.7428633595       20.4267177139      -16.4813196465  W2        6265            0.0000000000
     18795      6265  TIP3      H2             53.5598033595       20.8661177139      -17.6777396465  W2        6265            0.0000000000
     18796      6266  TIP3      OH2           -42.8877066405       49.6677177139      -28.6119496465  W2        6266            0.0000000000
     18797      6266  TIP3      H1            -42.7985966405       50.6115377139      -28.7442396465  W2        6266            0.0000000000
     18798      6266  TIP3      H2            -43.5259466405       49.3923577139      -29.2700096465  W2        6266            0.0000000000
     18799      6267  TIP3      OH2           -43.9545766405       48.9227877139      -25.1931296465  W2        6267            0.0000000000
     18800      6267  TIP3      H1            -43.9928266405       48.2764177139      -24.4881696465  W2        6267            0.0000000000
     18801      6267  TIP3      H2            -44.2769266405       48.4562277139      -25.9642596465  W2        6267            0.0000000000
     18802      6268  TIP3      OH2           -51.5860766405       48.5369977139      -23.6001396465  W2        6268            0.0000000000
     18803      6268  TIP3      H1            -51.5448666405       47.9113277139      -22.8768996465  W2        6268            0.0000000000
     18804      6268  TIP3      H2            -50.8833066405       49.1608577139      -23.4180996465  W2        6268            0.0000000000
     18805      6269  TIP3      OH2           -40.2485566405       51.8618277139      -26.8916196465  W2        6269            0.0000000000
     18806      6269  TIP3      H1            -40.6892866405       51.1414277139      -26.4410596465  W2        6269            0.0000000000
     18807      6269  TIP3      H2            -40.2615866405       52.5825477139      -26.2618496465  W2        6269            0.0000000000
     18808      6270  TIP3      OH2           -50.6627666405       52.9868877139      -25.0652296465  W2        6270            0.0000000000
     18809      6270  TIP3      H1            -51.0322466405       52.1849377139      -25.4347996465  W2        6270            0.0000000000
     18810      6270  TIP3      H2            -49.7216566405       52.8183777139      -25.0188896465  W2        6270            0.0000000000
     18811      6271  TIP3      OH2           -54.0527166405       46.6471477139      -29.6723496465  W2        6271            0.0000000000
     18812      6271  TIP3      H1            -54.5003766405       47.4930177139      -29.6906996465  W2        6271            0.0000000000
     18813      6271  TIP3      H2            -54.6135966405       46.0675677139      -30.1878396465  W2        6271            0.0000000000
     18814      6272  TIP3      OH2           -53.3421066405       48.8091077139      -27.5465496465  W2        6272            0.0000000000
     18815      6272  TIP3      H1            -53.1287566405       48.0392677139      -27.0192496465  W2        6272            0.0000000000
     18816      6272  TIP3      H2            -52.6043466405       48.8987777139      -28.1497896465  W2        6272            0.0000000000
     18817      6273  TIP3      OH2           -45.5651366405       51.3549277139      -24.7870296465  W2        6273            0.0000000000
     18818      6273  TIP3      H1            -45.2613466405       50.6690677139      -25.3816196465  W2        6273            0.0000000000
     18819      6273  TIP3      H2            -44.8437366405       51.4737977139      -24.1692296465  W2        6273            0.0000000000
     18820      6274  TIP3      OH2           -36.9021566405       42.9564577139      -23.9264096465  W2        6274            0.0000000000
     18821      6274  TIP3      H1            -36.8529366405       43.5665777139      -23.1904996465  W2        6274            0.0000000000
     18822      6274  TIP3      H2            -36.4766466405       43.4175477139      -24.6492996465  W2        6274            0.0000000000
     18823      6275  TIP3      OH2           -42.4244366405       45.7491677139      -24.4595496465  W2        6275            0.0000000000
     18824      6275  TIP3      H1            -42.2818466405       44.8028677139      -24.4393896465  W2        6275            0.0000000000
     18825      6275  TIP3      H2            -42.5305366405       45.9561477139      -25.3880596465  W2        6275            0.0000000000
     18826      6276  TIP3      OH2           -49.2696066405       43.8508077139      -27.1870696465  W2        6276            0.0000000000
     18827      6276  TIP3      H1            -49.2264966405       44.7106577139      -27.6054396465  W2        6276            0.0000000000
     18828      6276  TIP3      H2            -49.7271966405       43.2982777139      -27.8207496465  W2        6276            0.0000000000
     18829      6277  TIP3      OH2           -41.5473366405       43.9813677139      -28.7862396465  W2        6277            0.0000000000
     18830      6277  TIP3      H1            -40.9009066405       43.6526877139      -28.1614796465  W2        6277            0.0000000000
     18831      6277  TIP3      H2            -41.0373966405       44.4992677139      -29.4090996465  W2        6277            0.0000000000
     18832      6278  TIP3      OH2           -52.6494566405       46.2473877139      -26.4249296465  W2        6278            0.0000000000
     18833      6278  TIP3      H1            -51.9957966405       45.6975577139      -25.9929196465  W2        6278            0.0000000000
     18834      6278  TIP3      H2            -52.6255266405       45.9732877139      -27.3417296465  W2        6278            0.0000000000
     18835      6279  TIP3      OH2           -47.4930066405       47.7975177139      -27.2097796465  W2        6279            0.0000000000
     18836      6279  TIP3      H1            -46.8769066405       47.2710577139      -26.7003796465  W2        6279            0.0000000000
     18837      6279  TIP3      H2            -48.0791266405       47.1573877139      -27.6134196465  W2        6279            0.0000000000
     18838      6280  TIP3      OH2           -36.5106966405       44.4343777139      -21.6904296465  W2        6280            0.0000000000
     18839      6280  TIP3      H1            -37.1992366405       45.0924477139      -21.7857696465  W2        6280            0.0000000000
     18840      6280  TIP3      H2            -36.4952366405       44.2371677139      -20.7538896465  W2        6280            0.0000000000
     18841      6281  TIP3      OH2           -50.4594166405       42.7686477139      -23.1129896465  W2        6281            0.0000000000
     18842      6281  TIP3      H1            -50.6782466405       43.2987077139      -23.8793896465  W2        6281            0.0000000000
     18843      6281  TIP3      H2            -51.1273266405       42.9951977139      -22.4658496465  W2        6281            0.0000000000
     18844      6282  TIP3      OH2           -43.0904366405       52.2687577139      -29.5690796465  W2        6282            0.0000000000
     18845      6282  TIP3      H1            -43.3859266405       51.9459877139      -30.4203896465  W2        6282            0.0000000000
     18846      6282  TIP3      H2            -43.4146566405       53.1684277139      -29.5278196465  W2        6282            0.0000000000
     18847      6283  TIP3      OH2           -47.8902766405       50.4442177139      -22.8256196465  W2        6283            0.0000000000
     18848      6283  TIP3      H1            -48.6303666405       51.0423677139      -22.7220996465  W2        6283            0.0000000000
     18849      6283  TIP3      H2            -47.1763266405       50.9981777139      -23.1412596465  W2        6283            0.0000000000
     18850      6284  TIP3      OH2           -39.7834966405       43.2722977139      -26.8056496465  W2        6284            0.0000000000
     18851      6284  TIP3      H1            -39.9986966405       42.5066377139      -26.2730496465  W2        6284            0.0000000000
     18852      6284  TIP3      H2            -39.1277566405       43.7447577139      -26.2927996465  W2        6284            0.0000000000
     18853      6285  TIP3      OH2           -50.8656866405       44.6608277139      -25.1607696465  W2        6285            0.0000000000
     18854      6285  TIP3      H1            -50.2520566405       45.2935877139      -24.7875296465  W2        6285            0.0000000000
     18855      6285  TIP3      H2            -50.3536166405       44.1883277139      -25.8170796465  W2        6285            0.0000000000
     18856      6286  TIP3      OH2           -49.4828466405       52.4085177139      -22.0384696465  W2        6286            0.0000000000
     18857      6286  TIP3      H1            -49.4880866405       53.2878677139      -22.4165396465  W2        6286            0.0000000000
     18858      6286  TIP3      H2            -50.3364366405       52.3249277139      -21.6134796465  W2        6286            0.0000000000
     18859      6287  TIP3      OH2           -53.3617566405       52.0793077139      -31.2565396465  W2        6287            0.0000000000
     18860      6287  TIP3      H1            -53.6336666405       52.3084077139      -32.1452496465  W2        6287            0.0000000000
     18861      6287  TIP3      H2            -53.3161866405       52.9171877139      -30.7960096465  W2        6287            0.0000000000
     18862      6288  TIP3      OH2           -39.7367866405       53.7008977139      -24.5436896465  W2        6288            0.0000000000
     18863      6288  TIP3      H1            -40.6784166405       53.7592877139      -24.3819996465  W2        6288            0.0000000000
     18864      6288  TIP3      H2            -39.4601766405       54.6069477139      -24.6807196465  W2        6288            0.0000000000
     18865      6289  TIP3      OH2           -39.4360866405       41.9874277139      -23.1262996465  W2        6289            0.0000000000
     18866      6289  TIP3      H1            -40.1721666405       42.5981377139      -23.1641696465  W2        6289            0.0000000000
     18867      6289  TIP3      H2            -38.7526866405       42.4023277139      -23.6526596465  W2        6289            0.0000000000
     18868      6290  TIP3      OH2           -46.4329466405       40.0741577139      -25.6604996465  W2        6290            0.0000000000
     18869      6290  TIP3      H1            -46.5505266405       39.1257577139      -25.7146696465  W2        6290            0.0000000000
     18870      6290  TIP3      H2            -47.2879366405       40.4067677139      -25.3873896465  W2        6290            0.0000000000
     18871      6291  TIP3      OH2           -40.3250166405       53.3830977139      -29.4098696465  W2        6291            0.0000000000
     18872      6291  TIP3      H1            -40.5825366405       52.6931077139      -30.0212796465  W2        6291            0.0000000000
     18873      6291  TIP3      H2            -40.2539366405       52.9402177139      -28.5642796465  W2        6291            0.0000000000
     18874      6292  TIP3      OH2           -38.6389966405       51.9497677139      -20.9325196465  W2        6292            0.0000000000
     18875      6292  TIP3      H1            -38.4993666405       51.3580177139      -21.6718196465  W2        6292            0.0000000000
     18876      6292  TIP3      H2            -38.4717166405       52.8223577139      -21.2886396465  W2        6292            0.0000000000
     18877      6293  TIP3      OH2           -44.1664566405       48.9117177139      -31.1599196465  W2        6293            0.0000000000
     18878      6293  TIP3      H1            -44.8779066405       49.4466877139      -31.5118696465  W2        6293            0.0000000000
     18879      6293  TIP3      H2            -43.4754966405       48.9669277139      -31.8200296465  W2        6293            0.0000000000
     18880      6294  TIP3      OH2           -44.1125366405       47.3691477139      -34.1214196465  W2        6294            0.0000000000
     18881      6294  TIP3      H1            -43.4115466405       47.3918377139      -33.4700196465  W2        6294            0.0000000000
     18882      6294  TIP3      H2            -43.8102466405       46.7411177139      -34.7774896465  W2        6294            0.0000000000
     18883      6295  TIP3      OH2           -36.7970666405       48.2895677139      -22.8664796465  W2        6295            0.0000000000
     18884      6295  TIP3      H1            -37.4496566405       48.9841277139      -22.7773896465  W2        6295            0.0000000000
     18885      6295  TIP3      H2            -36.3320366405       48.4996577139      -23.6763196465  W2        6295            0.0000000000
     18886      6296  TIP3      OH2           -40.7606866405       49.1210477139      -30.2083296465  W2        6296            0.0000000000
     18887      6296  TIP3      H1            -41.4925866405       49.3494177139      -29.6352696465  W2        6296            0.0000000000
     18888      6296  TIP3      H2            -40.3134666405       48.4073177139      -29.7535796465  W2        6296            0.0000000000
     18889      6297  TIP3      OH2           -40.8633366405       47.2953077139      -21.1406296465  W2        6297            0.0000000000
     18890      6297  TIP3      H1            -40.7834266405       48.0587477139      -20.5687796465  W2        6297            0.0000000000
     18891      6297  TIP3      H2            -41.4645666405       47.5745477139      -21.8311196465  W2        6297            0.0000000000
     18892      6298  TIP3      OH2           -49.1153166405       49.7516677139      -28.3258296465  W2        6298            0.0000000000
     18893      6298  TIP3      H1            -49.4457966405       49.3810077139      -29.1441296465  W2        6298            0.0000000000
     18894      6298  TIP3      H2            -48.5269066405       49.0810677139      -27.9789996465  W2        6298            0.0000000000
     18895      6299  TIP3      OH2           -47.7485666405       53.1797277139      -25.6446096465  W2        6299            0.0000000000
     18896      6299  TIP3      H1            -47.8434366405       52.6010377139      -26.4011496465  W2        6299            0.0000000000
     18897      6299  TIP3      H2            -47.0192066405       52.8082977139      -25.1483296465  W2        6299            0.0000000000
     18898      6300  TIP3      OH2           -48.7487666405       48.5202277139      -24.6923296465  W2        6300            0.0000000000
     18899      6300  TIP3      H1            -48.1835166405       48.6416477139      -25.4552096465  W2        6300            0.0000000000
     18900      6300  TIP3      H2            -48.4298766405       49.1577277139      -24.0534796465  W2        6300            0.0000000000
     18901      6301  TIP3      OH2           -42.4395466405       54.0234177139      -23.9582796465  W2        6301            0.0000000000
     18902      6301  TIP3      H1            -42.6798866405       54.6857277139      -23.3103596465  W2        6301            0.0000000000
     18903      6301  TIP3      H2            -42.6377266405       53.1889377139      -23.5333196465  W2        6301            0.0000000000
     18904      6302  TIP3      OH2           -47.8686966405       52.9194977139      -19.9751396465  W2        6302            0.0000000000
     18905      6302  TIP3      H1            -48.1799466405       53.7018177139      -19.5198196465  W2        6302            0.0000000000
     18906      6302  TIP3      H2            -48.5186766405       52.7664077139      -20.6609396465  W2        6302            0.0000000000
     18907      6303  TIP3      OH2           -41.8897366405       48.2833377139      -32.5232096465  W2        6303            0.0000000000
     18908      6303  TIP3      H1            -41.3101866405       48.4333677139      -31.7763196465  W2        6303            0.0000000000
     18909      6303  TIP3      H2            -41.4757366405       48.7540777139      -33.2465696465  W2        6303            0.0000000000
     18910      6304  TIP3      OH2           -50.9487066405       49.1176077139      -20.7465696465  W2        6304            0.0000000000
     18911      6304  TIP3      H1            -50.8783866405       49.7682877139      -20.0480696465  W2        6304            0.0000000000
     18912      6304  TIP3      H2            -51.8394866405       49.2203577139      -21.0814796465  W2        6304            0.0000000000
     18913      6305  TIP3      OH2           -49.6291066405       54.9909977139      -19.2117596465  W2        6305            0.0000000000
     18914      6305  TIP3      H1            -49.6215766405       54.8549677139      -20.1592096465  W2        6305            0.0000000000
     18915      6305  TIP3      H2            -50.5450666405       54.8738077139      -18.9597596465  W2        6305            0.0000000000
     18916      6306  TIP3      OH2           -38.1908966405       40.0333777139      -32.7102396465  W2        6306            0.0000000000
     18917      6306  TIP3      H1            -39.0908266405       40.1722777139      -32.4151796465  W2        6306            0.0000000000
     18918      6306  TIP3      H2            -37.9390566405       40.8648377139      -33.1120696465  W2        6306            0.0000000000
     18919      6307  TIP3      OH2           -50.1250466405       48.8210977139      -30.7365496465  W2        6307            0.0000000000
     18920      6307  TIP3      H1            -50.4169166405       49.5892677139      -31.2274196465  W2        6307            0.0000000000
     18921      6307  TIP3      H2            -50.7995266405       48.1617177139      -30.8994096465  W2        6307            0.0000000000
     18922      6308  TIP3      OH2           -37.0017566405       54.3996177139      -34.3338496465  W2        6308            0.0000000000
     18923      6308  TIP3      H1            -36.9284066405       55.3386377139      -34.1633196465  W2        6308            0.0000000000
     18924      6308  TIP3      H2            -36.0962466405       54.0944777139      -34.3901196465  W2        6308            0.0000000000
     18925      6309  TIP3      OH2           -54.0320366405       51.1840177139      -21.9215696465  W2        6309            0.0000000000
     18926      6309  TIP3      H1            -54.5331966405       51.1559577139      -22.7365996465  W2        6309            0.0000000000
     18927      6309  TIP3      H2            -54.0266666405       50.2783377139      -21.6118396465  W2        6309            0.0000000000
     18928      6310  TIP3      OH2           -54.2817666405       53.9643977139      -25.0375496465  W2        6310            0.0000000000
     18929      6310  TIP3      H1            -53.3357066405       53.8200977139      -25.0565996465  W2        6310            0.0000000000
     18930      6310  TIP3      H2            -54.3941366405       54.7486777139      -24.5004296465  W2        6310            0.0000000000
     18931      6311  TIP3      OH2           -36.0839166405       54.6303677139      -19.3551796465  W2        6311            0.0000000000
     18932      6311  TIP3      H1            -36.1332366405       53.6751777139      -19.3924196465  W2        6311            0.0000000000
     18933      6311  TIP3      H2            -36.9106866405       54.8978977139      -18.9537996465  W2        6311            0.0000000000
     18934      6312  TIP3      OH2           -45.1055166405       54.2042877139      -20.4790396465  W2        6312            0.0000000000
     18935      6312  TIP3      H1            -45.0180566405       55.0307477139      -20.0041296465  W2        6312            0.0000000000
     18936      6312  TIP3      H2            -45.9690066405       53.8746677139      -20.2301096465  W2        6312            0.0000000000
     18937      6313  TIP3      OH2           -38.9319366405       46.1236177139      -18.8749596465  W2        6313            0.0000000000
     18938      6313  TIP3      H1            -39.3392566405       46.6041777139      -19.5956296465  W2        6313            0.0000000000
     18939      6313  TIP3      H2            -38.8913666405       45.2182177139      -19.1828796465  W2        6313            0.0000000000
     18940      6314  TIP3      OH2           -51.7829866405       52.5075577139      -20.8782896465  W2        6314            0.0000000000
     18941      6314  TIP3      H1            -51.5668566405       52.1461177139      -20.0187096465  W2        6314            0.0000000000
     18942      6314  TIP3      H2            -52.6385166405       52.1329377139      -21.0879396465  W2        6314            0.0000000000
     18943      6315  TIP3      OH2           -49.1641866405       40.9776077139      -24.8828696465  W2        6315            0.0000000000
     18944      6315  TIP3      H1            -50.0258166405       40.8904277139      -25.2905796465  W2        6315            0.0000000000
     18945      6315  TIP3      H2            -49.1866166405       41.8336177139      -24.4551096465  W2        6315            0.0000000000
     18946      6316  TIP3      OH2           -44.5014066405       40.6996477139      -21.5081696465  W2        6316            0.0000000000
     18947      6316  TIP3      H1            -44.0810966405       40.2843577139      -20.7551096465  W2        6316            0.0000000000
     18948      6316  TIP3      H2            -45.4344466405       40.5209777139      -21.3909696465  W2        6316            0.0000000000
     18949      6317  TIP3      OH2           -41.1749166405       44.4551677139      -20.6547196465  W2        6317            0.0000000000
     18950      6317  TIP3      H1            -41.6889666405       44.3293877139      -19.8571196465  W2        6317            0.0000000000
     18951      6317  TIP3      H2            -41.3304466405       45.3674777139      -20.8990996465  W2        6317            0.0000000000
     18952      6318  TIP3      OH2           -40.4124266405       49.3161677139      -34.8934196465  W2        6318            0.0000000000
     18953      6318  TIP3      H1            -40.3703466405       49.0935577139      -35.8234196465  W2        6318            0.0000000000
     18954      6318  TIP3      H2            -39.5632166405       49.7148777139      -34.7034296465  W2        6318            0.0000000000
     18955      6319  TIP3      OH2           -44.8396766405       43.1919877139      -34.2230896465  W2        6319            0.0000000000
     18956      6319  TIP3      H1            -45.0931966405       43.2111477139      -33.3002796465  W2        6319            0.0000000000
     18957      6319  TIP3      H2            -45.0964666405       42.3205277139      -34.5244696465  W2        6319            0.0000000000
     18958      6320  TIP3      OH2           -49.0731766405       45.9430577139      -23.7878496465  W2        6320            0.0000000000
     18959      6320  TIP3      H1            -49.7149666405       45.9027877139      -23.0788396465  W2        6320            0.0000000000
     18960      6320  TIP3      H2            -49.0359766405       46.8695277139      -24.0255496465  W2        6320            0.0000000000
     18961      6321  TIP3      OH2           -49.0762666405       46.1640677139      -28.8758496465  W2        6321            0.0000000000
     18962      6321  TIP3      H1            -49.9689766405       45.8236777139      -28.9344696465  W2        6321            0.0000000000
     18963      6321  TIP3      H2            -48.6256066405       45.7871577139      -29.6315296465  W2        6321            0.0000000000
     18964      6322  TIP3      OH2           -43.5407166405       46.5800977139      -30.0587696465  W2        6322            0.0000000000
     18965      6322  TIP3      H1            -43.9496866405       47.3949577139      -30.3502896465  W2        6322            0.0000000000
     18966      6322  TIP3      H2            -42.8200966405       46.4401077139      -30.6730596465  W2        6322            0.0000000000
     18967      6323  TIP3      OH2           -44.4385566405       46.7557377139      -18.5706996465  W2        6323            0.0000000000
     18968      6323  TIP3      H1            -45.0011766405       46.0508977139      -18.2499196465  W2        6323            0.0000000000
     18969      6323  TIP3      H2            -43.6122166405       46.6349277139      -18.1029396465  W2        6323            0.0000000000
     18970      6324  TIP3      OH2           -42.5359466405       46.0261377139      -27.2447996465  W2        6324            0.0000000000
     18971      6324  TIP3      H1            -42.7314966405       46.6318177139      -27.9597396465  W2        6324            0.0000000000
     18972      6324  TIP3      H2            -42.3546866405       45.1926577139      -27.6791696465  W2        6324            0.0000000000
     18973      6325  TIP3      OH2           -51.3231266405       46.2634077139      -21.9206496465  W2        6325            0.0000000000
     18974      6325  TIP3      H1            -51.3611866405       46.6635677139      -21.0519396465  W2        6325            0.0000000000
     18975      6325  TIP3      H2            -51.8140166405       45.4466477139      -21.8303596465  W2        6325            0.0000000000
     18976      6326  TIP3      OH2           -47.9573866405       43.6376377139      -35.1220496465  W2        6326            0.0000000000
     18977      6326  TIP3      H1            -48.3883166405       43.1926477139      -34.3923096465  W2        6326            0.0000000000
     18978      6326  TIP3      H2            -48.6755166405       44.0092677139      -35.6342996465  W2        6326            0.0000000000
     18979      6327  TIP3      OH2           -54.7150466405       43.3795877139      -28.0701796465  W2        6327            0.0000000000
     18980      6327  TIP3      H1            -54.0842766405       43.3507977139      -27.3507896465  W2        6327            0.0000000000
     18981      6327  TIP3      H2            -54.2656166405       42.9544577139      -28.8005896465  W2        6327            0.0000000000
     18982      6328  TIP3      OH2           -53.4408366405       44.1257877139      -32.6461396465  W2        6328            0.0000000000
     18983      6328  TIP3      H1            -52.9666666405       44.7167777139      -33.2310496465  W2        6328            0.0000000000
     18984      6328  TIP3      H2            -54.1581966405       44.6560777139      -32.2991296465  W2        6328            0.0000000000
     18985      6329  TIP3      OH2           -43.2720266405       47.6642677139      -22.5735596465  W2        6329            0.0000000000
     18986      6329  TIP3      H1            -42.9485466405       47.0332377139      -23.2165096465  W2        6329            0.0000000000
     18987      6329  TIP3      H2            -43.7120966405       47.1294877139      -21.9128196465  W2        6329            0.0000000000
     18988      6330  TIP3      OH2           -46.4947366405       43.5918177139      -27.7894396465  W2        6330            0.0000000000
     18989      6330  TIP3      H1            -47.4056266405       43.6484977139      -27.5008396465  W2        6330            0.0000000000
     18990      6330  TIP3      H2            -45.9894466405       43.5313677139      -26.9787196465  W2        6330            0.0000000000
     18991      6331  TIP3      OH2           -51.6663966405       45.2204477139      -28.9626796465  W2        6331            0.0000000000
     18992      6331  TIP3      H1            -52.5555966405       45.3199977139      -29.3027196465  W2        6331            0.0000000000
     18993      6331  TIP3      H2            -51.3699066405       44.3787477139      -29.3088896465  W2        6331            0.0000000000
     18994      6332  TIP3      OH2           -48.0132166405       45.2207077139      -31.3062196465  W2        6332            0.0000000000
     18995      6332  TIP3      H1            -47.0816666405       45.3497077139      -31.1279096465  W2        6332            0.0000000000
     18996      6332  TIP3      H2            -48.2281866405       45.8901377139      -31.9557496465  W2        6332            0.0000000000
     18997      6333  TIP3      OH2           -42.0895466405       42.8264477139      -24.5252596465  W2        6333            0.0000000000
     18998      6333  TIP3      H1            -42.7663866405       42.9577577139      -23.8612896465  W2        6333            0.0000000000
     18999      6333  TIP3      H2            -42.5750566405       42.6713977139      -25.3354896465  W2        6333            0.0000000000
     19000      6334  TIP3      OH2           -49.3391966405       46.4149277139      -33.7396096465  W2        6334            0.0000000000
     19001      6334  TIP3      H1            -49.8816866405       46.0353077139      -34.4308496465  W2        6334            0.0000000000
     19002      6334  TIP3      H2            -48.5057066405       46.6093977139      -34.1681996465  W2        6334            0.0000000000
     19003      6335  TIP3      OH2           -51.2040566405       50.9721177139      -18.6404496465  W2        6335            0.0000000000
     19004      6335  TIP3      H1            -50.4718166405       51.2267077139      -18.0789996465  W2        6335            0.0000000000
     19005      6335  TIP3      H2            -51.9841866405       51.1766577139      -18.1249096465  W2        6335            0.0000000000
     19006      6336  TIP3      OH2           -45.1747666405       46.3791177139      -25.9024796465  W2        6336            0.0000000000
     19007      6336  TIP3      H1            -44.6104266405       45.8327777139      -26.4495196465  W2        6336            0.0000000000
     19008      6336  TIP3      H2            -45.3224266405       45.8573077139      -25.1137196465  W2        6336            0.0000000000
     19009      6337  TIP3      OH2           -50.1727966405       42.5157277139      -29.4839996465  W2        6337            0.0000000000
     19010      6337  TIP3      H1            -50.4898466405       41.6132577139      -29.5194596465  W2        6337            0.0000000000
     19011      6337  TIP3      H2            -49.3913866405       42.5174677139      -30.0368396465  W2        6337            0.0000000000
     19012      6338  TIP3      OH2           -46.5481766405       44.7677277139      -23.4884396465  W2        6338            0.0000000000
     19013      6338  TIP3      H1            -47.3836466405       45.2216777139      -23.3781996465  W2        6338            0.0000000000
     19014      6338  TIP3      H2            -46.0241166405       45.0435777139      -22.7364496465  W2        6338            0.0000000000
     19015      6339  TIP3      OH2           -46.0039166405       50.9804977139      -31.8037996465  W2        6339            0.0000000000
     19016      6339  TIP3      H1            -46.7488166405       50.4730277139      -32.1260096465  W2        6339            0.0000000000
     19017      6339  TIP3      H2            -46.1381966405       51.0292977139      -30.8573196465  W2        6339            0.0000000000
     19018      6340  TIP3      OH2           -38.8540266405       50.1133177139      -23.0170396465  W2        6340            0.0000000000
     19019      6340  TIP3      H1            -38.2121466405       50.5699477139      -23.5608196465  W2        6340            0.0000000000
     19020      6340  TIP3      H2            -39.6843366405       50.2265577139      -23.4796296465  W2        6340            0.0000000000
     19021      6341  TIP3      OH2           -42.1062366405       43.7944877139      -33.6045396465  W2        6341            0.0000000000
     19022      6341  TIP3      H1            -43.0448166405       43.9060477139      -33.7556596465  W2        6341            0.0000000000
     19023      6341  TIP3      H2            -41.8090266405       44.6511777139      -33.2979696465  W2        6341            0.0000000000
     19024      6342  TIP3      OH2           -44.4847066405       51.1648277139      -20.5668896465  W2        6342            0.0000000000
     19025      6342  TIP3      H1            -44.8300966405       50.7830677139      -19.7599296465  W2        6342            0.0000000000
     19026      6342  TIP3      H2            -44.6846966405       52.0981877139      -20.4955996465  W2        6342            0.0000000000
     19027      6343  TIP3      OH2           -41.3878866405       45.6617577139      -31.9437996465  W2        6343            0.0000000000
     19028      6343  TIP3      H1            -40.4959866405       45.5242577139      -31.6246796465  W2        6343            0.0000000000
     19029      6343  TIP3      H2            -41.3315266405       46.4523677139      -32.4804496465  W2        6343            0.0000000000
     19030      6344  TIP3      OH2           -50.8790866405       50.2754977139      -26.0340096465  W2        6344            0.0000000000
     19031      6344  TIP3      H1            -50.1343666405       50.2730677139      -26.6353596465  W2        6344            0.0000000000
     19032      6344  TIP3      H2            -50.8014266405       49.4518777139      -25.5524996465  W2        6344            0.0000000000
     19033      6345  TIP3      OH2           -43.8785066405       52.4389277139      -32.7783396465  W2        6345            0.0000000000
     19034      6345  TIP3      H1            -44.1736666405       53.2657177139      -32.3968596465  W2        6345            0.0000000000
     19035      6345  TIP3      H2            -44.5815066405       51.8196177139      -32.5821996465  W2        6345            0.0000000000
     19036      6346  TIP3      OH2           -53.8711166405       48.7361877139      -20.7191596465  W2        6346            0.0000000000
     19037      6346  TIP3      H1            -53.6482566405       48.3181477139      -19.8874096465  W2        6346            0.0000000000
     19038      6346  TIP3      H2            -54.4731066405       48.1236877139      -21.1418796465  W2        6346            0.0000000000
     19039      6347  TIP3      OH2           -46.8546266405       48.2531777139      -18.5061896465  W2        6347            0.0000000000
     19040      6347  TIP3      H1            -47.1505466405       48.0874777139      -19.4012796465  W2        6347            0.0000000000
     19041      6347  TIP3      H2            -45.9231066405       48.0332077139      -18.5167996465  W2        6347            0.0000000000
     19042      6348  TIP3      OH2           -42.2343466405       53.6263777139      -20.6163896465  W2        6348            0.0000000000
     19043      6348  TIP3      H1            -43.1349166405       53.8096377139      -20.8839996465  W2        6348            0.0000000000
     19044      6348  TIP3      H2            -42.2002366405       53.8853077139      -19.6955096465  W2        6348            0.0000000000
     19045      6349  TIP3      OH2           -36.5030166405       45.8711677139      -32.2491296465  W2        6349            0.0000000000
     19046      6349  TIP3      H1            -37.0573866405       45.4749677139      -32.9213796465  W2        6349            0.0000000000
     19047      6349  TIP3      H2            -36.4026566405       46.7816877139      -32.5267996465  W2        6349            0.0000000000
     19048      6350  TIP3      OH2           -36.5398166405       51.6713377139      -19.4119796465  W2        6350            0.0000000000
     19049      6350  TIP3      H1            -37.3909666405       51.9097177139      -19.7793396465  W2        6350            0.0000000000
     19050      6350  TIP3      H2            -35.9494766405       51.6546577139      -20.1652696465  W2        6350            0.0000000000
     19051      6351  TIP3      OH2           -38.2078466405       54.6572077139      -31.7839196465  W2        6351            0.0000000000
     19052      6351  TIP3      H1            -38.5807366405       53.8315877139      -31.4748596465  W2        6351            0.0000000000
     19053      6351  TIP3      H2            -37.9304966405       54.4741477139      -32.6815796465  W2        6351            0.0000000000
     19054      6352  TIP3      OH2           -41.0474566405       49.4651577139      -24.7627296465  W2        6352            0.0000000000
     19055      6352  TIP3      H1            -41.9757666405       49.2333477139      -24.7897996465  W2        6352            0.0000000000
     19056      6352  TIP3      H2            -40.5963466405       48.6881377139      -25.0928496465  W2        6352            0.0000000000
     19057      6353  TIP3      OH2           -48.5041466405       53.7933177139      -28.6298596465  W2        6353            0.0000000000
     19058      6353  TIP3      H1            -47.9769266405       54.5667577139      -28.8299796465  W2        6353            0.0000000000
     19059      6353  TIP3      H2            -49.3842966405       54.0182377139      -28.9314596465  W2        6353            0.0000000000
     19060      6354  TIP3      OH2           -52.7493766405       48.6557277139      -34.0426196465  W2        6354            0.0000000000
     19061      6354  TIP3      H1            -52.1333866405       49.2824477139      -33.6631396465  W2        6354            0.0000000000
     19062      6354  TIP3      H2            -53.6111166405       48.9717077139      -33.7709696465  W2        6354            0.0000000000
     19063      6355  TIP3      OH2           -47.0769166405       51.4563077139      -29.0534296465  W2        6355            0.0000000000
     19064      6355  TIP3      H1            -47.3179166405       52.3817477139      -29.0118996465  W2        6355            0.0000000000
     19065      6355  TIP3      H2            -47.8175566405       50.9974377139      -28.6570396465  W2        6355            0.0000000000
     19066      6356  TIP3      OH2           -43.0181766405       51.7047377139      -23.0377596465  W2        6356            0.0000000000
     19067      6356  TIP3      H1            -43.4440466405       51.4769077139      -22.2113596465  W2        6356            0.0000000000
     19068      6356  TIP3      H2            -42.4375966405       50.9659177139      -23.2202296465  W2        6356            0.0000000000
     19069      6357  TIP3      OH2           -40.8152866405       52.6337877139      -33.9638596465  W2        6357            0.0000000000
     19070      6357  TIP3      H1            -40.4619766405       52.2537677139      -33.1595096465  W2        6357            0.0000000000
     19071      6357  TIP3      H2            -41.7639366405       52.5402677139      -33.8769296465  W2        6357            0.0000000000
     19072      6358  TIP3      OH2           -52.2371666405       43.4894577139      -21.1610196465  W2        6358            0.0000000000
     19073      6358  TIP3      H1            -53.1299366405       43.8279977139      -21.2286196465  W2        6358            0.0000000000
     19074      6358  TIP3      H2            -52.3358866405       42.6340677139      -20.7429396465  W2        6358            0.0000000000
     19075      6359  TIP3      OH2           -39.9493566405       51.3059877139      -31.7370696465  W2        6359            0.0000000000
     19076      6359  TIP3      H1            -40.2265966405       50.5779177139      -31.1809596465  W2        6359            0.0000000000
     19077      6359  TIP3      H2            -39.0220566405       51.4251877139      -31.5318096465  W2        6359            0.0000000000
     19078      6360  TIP3      OH2           -46.7245066405       53.7453977139      -35.5168596465  W2        6360            0.0000000000
     19079      6360  TIP3      H1            -46.4855266405       52.9972077139      -36.0639696465  W2        6360            0.0000000000
     19080      6360  TIP3      H2            -46.9933766405       53.3575677139      -34.6840796465  W2        6360            0.0000000000
     19081      6361  TIP3      OH2           -47.7874466405       53.3157777139      -33.0605996465  W2        6361            0.0000000000
     19082      6361  TIP3      H1            -47.6406466405       52.7957577139      -32.2705096465  W2        6361            0.0000000000
     19083      6361  TIP3      H2            -47.7902766405       54.2225377139      -32.7540096465  W2        6361            0.0000000000
     19084      6362  TIP3      OH2           -51.3343366405       50.5681077139      -32.5500596465  W2        6362            0.0000000000
     19085      6362  TIP3      H1            -52.0204066405       50.9203577139      -31.9830896465  W2        6362            0.0000000000
     19086      6362  TIP3      H2            -50.8115466405       51.3310677139      -32.7966296465  W2        6362            0.0000000000
     19087      6363  TIP3      OH2           -43.5028266405       43.2304877139      -22.2711596465  W2        6363            0.0000000000
     19088      6363  TIP3      H1            -42.8040366405       43.3043577139      -21.6211896465  W2        6363            0.0000000000
     19089      6363  TIP3      H2            -43.8836866405       42.3659877139      -22.1168696465  W2        6363            0.0000000000
     19090      6364  TIP3      OH2           -42.7183366405       42.8826577139      -31.1739296465  W2        6364            0.0000000000
     19091      6364  TIP3      H1            -42.4985066405       43.3541977139      -31.9773896465  W2        6364            0.0000000000
     19092      6364  TIP3      H2            -42.1599366405       43.2769177139      -30.5038696465  W2        6364            0.0000000000
     19093      6365  TIP3      OH2           -45.5183466405       44.6105377139      -30.3390896465  W2        6365            0.0000000000
     19094      6365  TIP3      H1            -44.7060866405       45.1148577139      -30.2929196465  W2        6365            0.0000000000
     19095      6365  TIP3      H2            -45.7630466405       44.4655077139      -29.4251296465  W2        6365            0.0000000000
     19096      6366  TIP3      OH2           -44.9827066405       45.5968077139      -21.1544296465  W2        6366            0.0000000000
     19097      6366  TIP3      H1            -44.8636766405       46.1703477139      -20.3973896465  W2        6366            0.0000000000
     19098      6366  TIP3      H2            -44.3272466405       44.9087477139      -21.0396496465  W2        6366            0.0000000000
     19099      6367  TIP3      OH2           -44.6346766405       41.6918377139      -29.4009796465  W2        6367            0.0000000000
     19100      6367  TIP3      H1            -44.9813266405       42.3088977139      -28.7565496465  W2        6367            0.0000000000
     19101      6367  TIP3      H2            -43.9759866405       42.1924077139      -29.8824296465  W2        6367            0.0000000000
     19102      6368  TIP3      OH2           -48.9769766405       42.7547777139      -32.7137296465  W2        6368            0.0000000000
     19103      6368  TIP3      H1            -49.0604966405       43.6430877139      -32.3670896465  W2        6368            0.0000000000
     19104      6368  TIP3      H2            -48.0869466405       42.4894477139      -32.4820496465  W2        6368            0.0000000000
     19105      6369  TIP3      OH2           -38.7781266405       43.5038377139      -20.3194596465  W2        6369            0.0000000000
     19106      6369  TIP3      H1            -39.6945466405       43.7660077139      -20.4070896465  W2        6369            0.0000000000
     19107      6369  TIP3      H2            -38.4426266405       43.5007377139      -21.2159296465  W2        6369            0.0000000000
     19108      6370  TIP3      OH2           -40.1760266405       47.2539377139      -26.2237296465  W2        6370            0.0000000000
     19109      6370  TIP3      H1            -40.9735866405       46.8389577139      -26.5522296465  W2        6370            0.0000000000
     19110      6370  TIP3      H2            -39.7309166405       46.5633077139      -25.7326796465  W2        6370            0.0000000000
     19111      6371  TIP3      OH2           -50.7184466405       53.1819977139      -33.6532796465  W2        6371            0.0000000000
     19112      6371  TIP3      H1            -50.1262966405       53.8814777139      -33.3770396465  W2        6371            0.0000000000
     19113      6371  TIP3      H2            -50.2591466405       52.7489477139      -34.3728196465  W2        6371            0.0000000000
     19114      6372  TIP3      OH2           -52.4025266405       45.8462977139      -34.5373396465  W2        6372            0.0000000000
     19115      6372  TIP3      H1            -52.4472666405       46.7856077139      -34.3586396465  W2        6372            0.0000000000
     19116      6372  TIP3      H2            -53.2902066405       45.6107877139      -34.8071296465  W2        6372            0.0000000000
     19117      6373  TIP3      OH2           -51.5943266405       40.6279577139      -25.8642396465  W2        6373            0.0000000000
     19118      6373  TIP3      H1            -51.8233466405       40.6872077139      -26.7917396465  W2        6373            0.0000000000
     19119      6373  TIP3      H2            -52.0369866405       39.8365077139      -25.5578296465  W2        6373            0.0000000000
     19120      6374  TIP3      OH2           -52.6639966405       54.5686677139      -29.7036596465  W2        6374            0.0000000000
     19121      6374  TIP3      H1            -53.4961366405       55.0409377139      -29.6765196465  W2        6374            0.0000000000
     19122      6374  TIP3      H2            -52.1181666405       55.0784277139      -30.3023496465  W2        6374            0.0000000000
     19123      6375  TIP3      OH2           -42.2014166405       54.4805877139      -18.0242896465  W2        6375            0.0000000000
     19124      6375  TIP3      H1            -42.5524666405       53.6238877139      -17.7812496465  W2        6375            0.0000000000
     19125      6375  TIP3      H2            -41.4750966405       54.6232577139      -17.4173896465  W2        6375            0.0000000000
     19126      6376  TIP3      OH2           -53.4686766405       50.9914477139      -17.4194296465  W2        6376            0.0000000000
     19127      6376  TIP3      H1            -53.3246266405       50.0895177139      -17.7057596465  W2        6376            0.0000000000
     19128      6376  TIP3      H2            -54.2409366405       51.2776577139      -17.9071996465  W2        6376            0.0000000000
     19129      6377  TIP3      OH2           -49.1273066405       51.3350177139      -35.2869696465  W2        6377            0.0000000000
     19130      6377  TIP3      H1            -49.0628966405       50.5409777139      -34.7563296465  W2        6377            0.0000000000
     19131      6377  TIP3      H2            -48.4743866405       51.2162977139      -35.9767696465  W2        6377            0.0000000000
     19132      6378  TIP3      OH2           -46.8130666405       50.9612577139      -17.9867896465  W2        6378            0.0000000000
     19133      6378  TIP3      H1            -47.1416866405       51.2320677139      -18.8440496465  W2        6378            0.0000000000
     19134      6378  TIP3      H2            -46.6612466405       50.0202377139      -18.0742896465  W2        6378            0.0000000000
     19135      6379  TIP3      OH2           -43.7749666405       52.3821877139      -35.5511696465  W2        6379            0.0000000000
     19136      6379  TIP3      H1            -44.0435566405       52.5623977139      -34.6502796465  W2        6379            0.0000000000
     19137      6379  TIP3      H2            -43.9814066405       51.4568077139      -35.6825896465  W2        6379            0.0000000000
     19138      6380  TIP3      OH2           -41.0785466405       50.8769877139      -20.6035596465  W2        6380            0.0000000000
     19139      6380  TIP3      H1            -40.3330666405       51.4653577139      -20.7231596465  W2        6380            0.0000000000
     19140      6380  TIP3      H2            -41.8358666405       51.4589577139      -20.5402496465  W2        6380            0.0000000000
     19141      6381  TIP3      OH2           -52.6360266405       48.1917777139      -17.9994996465  W2        6381            0.0000000000
     19142      6381  TIP3      H1            -52.2279066405       47.3344377139      -18.1204396465  W2        6381            0.0000000000
     19143      6381  TIP3      H2            -52.8962666405       48.2059077139      -17.0784696465  W2        6381            0.0000000000
     19144      6382  TIP3      OH2           -47.9779266405       49.3076377139      -32.9811696465  W2        6382            0.0000000000
     19145      6382  TIP3      H1            -48.4377266405       48.8234677139      -32.2953196465  W2        6382            0.0000000000
     19146      6382  TIP3      H2            -47.7230566405       48.6391777139      -33.6171196465  W2        6382            0.0000000000
     19147      6383  TIP3      OH2           -48.6889966405       47.2003477139      -20.6252096465  W2        6383            0.0000000000
     19148      6383  TIP3      H1            -49.3073866405       47.8750077139      -20.3447396465  W2        6383            0.0000000000
     19149      6383  TIP3      H2            -48.3448766405       47.5217377139      -21.4585896465  W2        6383            0.0000000000
     19150      6384  TIP3      OH2           -46.9068866405       47.5508177139      -34.7188496465  W2        6384            0.0000000000
     19151      6384  TIP3      H1            -47.0873866405       47.3959377139      -35.6460196465  W2        6384            0.0000000000
     19152      6384  TIP3      H2            -45.9568366405       47.6586877139      -34.6740596465  W2        6384            0.0000000000
     19153      6385  TIP3      OH2           -43.6691766405       49.6718777139      -17.3477296465  W2        6385            0.0000000000
     19154      6385  TIP3      H1            -42.7160566405       49.7557877139      -17.3751296465  W2        6385            0.0000000000
     19155      6385  TIP3      H2            -43.8297166405       48.9600577139      -16.7282396465  W2        6385            0.0000000000
     19156      6386  TIP3      OH2           -37.5170566405       49.9052377139      -35.2730396465  W2        6386            0.0000000000
     19157      6386  TIP3      H1            -37.7905766405       49.4807877139      -36.0862096465  W2        6386            0.0000000000
     19158      6386  TIP3      H2            -37.4776466405       50.8366877139      -35.4899996465  W2        6386            0.0000000000
     19159      6387  TIP3      OH2           -48.3496266405       44.5554277139      -19.5428996465  W2        6387            0.0000000000
     19160      6387  TIP3      H1            -48.1995366405       43.8265577139      -20.1449296465  W2        6387            0.0000000000
     19161      6387  TIP3      H2            -48.3473866405       45.3325977139      -20.1016796465  W2        6387            0.0000000000
     19162      6388  TIP3      OH2           -47.9370566405       42.9250077139      -22.0501596465  W2        6388            0.0000000000
     19163      6388  TIP3      H1            -47.4013066405       43.3766777139      -22.7022296465  W2        6388            0.0000000000
     19164      6388  TIP3      H2            -48.7890966405       42.8169877139      -22.4727496465  W2        6388            0.0000000000
     19165      6389  TIP3      OH2           -46.3552166405       48.3646277139      -21.8106396465  W2        6389            0.0000000000
     19166      6389  TIP3      H1            -45.6047366405       48.2083777139      -22.3838596465  W2        6389            0.0000000000
     19167      6389  TIP3      H2            -46.6943866405       49.2162877139      -22.0860896465  W2        6389            0.0000000000
     19168      6390  TIP3      OH2           -41.9395966405       46.1798077139      -16.7821096465  W2        6390            0.0000000000
     19169      6390  TIP3      H1            -41.7474666405       45.2487477139      -16.8936596465  W2        6390            0.0000000000
     19170      6390  TIP3      H2            -41.0819666405       46.6047577139      -16.7925696465  W2        6390            0.0000000000
     19171      6391  TIP3      OH2           -40.6228766405       48.9683277139      -18.7048396465  W2        6391            0.0000000000
     19172      6391  TIP3      H1            -40.9043766405       49.6777877139      -19.2824596465  W2        6391            0.0000000000
     19173      6391  TIP3      H2            -39.6804466405       48.8956277139      -18.8557196465  W2        6391            0.0000000000
     19174      6392  TIP3      OH2           -49.8709966405       45.7537777139      -17.6313396465  W2        6392            0.0000000000
     19175      6392  TIP3      H1            -50.6380966405       45.2212577139      -17.8415796465  W2        6392            0.0000000000
     19176      6392  TIP3      H2            -49.1920966405       45.4438177139      -18.2307096465  W2        6392            0.0000000000
     19177      6393  TIP3      OH2           -47.1315066405       40.3815777139      -21.6187996465  W2        6393            0.0000000000
     19178      6393  TIP3      H1            -47.2295466405       41.3278977139      -21.7241796465  W2        6393            0.0000000000
     19179      6393  TIP3      H2            -47.8738866405       40.0089577139      -22.0944496465  W2        6393            0.0000000000
     19180      6394  TIP3      OH2           -45.8674566405       44.7031177139      -18.0549596465  W2        6394            0.0000000000
     19181      6394  TIP3      H1            -46.1029166405       44.4837877139      -17.1534696465  W2        6394            0.0000000000
     19182      6394  TIP3      H2            -46.6507666405       44.4962377139      -18.5647096465  W2        6394            0.0000000000
     19183      6395  TIP3      OH2           -43.1517966405       43.8304677139      -18.9796096465  W2        6395            0.0000000000
     19184      6395  TIP3      H1            -44.0992566405       43.8624377139      -18.8472796465  W2        6395            0.0000000000
     19185      6395  TIP3      H2            -42.8391266405       43.2051777139      -18.3257896465  W2        6395            0.0000000000
     19186      6396  TIP3      OH2           -41.5176466405       42.4645777139      -16.9744196465  W2        6396            0.0000000000
     19187      6396  TIP3      H1            -41.6144666405       41.5123077139      -16.9802296465  W2        6396            0.0000000000
     19188      6396  TIP3      H2            -41.8393366405       42.7332577139      -16.1138696465  W2        6396            0.0000000000
     19189      6397  TIP3      OH2           -51.6907166405       43.6741577139      -17.9268696465  W2        6397            0.0000000000
     19190      6397  TIP3      H1            -51.4789766405       42.9677677139      -18.5371196465  W2        6397            0.0000000000
     19191      6397  TIP3      H2            -51.8019666405       43.2367577139      -17.0827496465  W2        6397            0.0000000000
     19192      6398  TIP3      OH2           -46.9096966405       39.6753177139      -18.9475196465  W2        6398            0.0000000000
     19193      6398  TIP3      H1            -46.1978566405       39.0355377139      -18.9616096465  W2        6398            0.0000000000
     19194      6398  TIP3      H2            -47.0106566405       39.9421477139      -19.8612096465  W2        6398            0.0000000000
     19195      6399  TIP3      OH2           -46.5559466405       41.3581577139      -16.8938896465  W2        6399            0.0000000000
     19196      6399  TIP3      H1            -46.6877266405       40.8825377139      -17.7140396465  W2        6399            0.0000000000
     19197      6399  TIP3      H2            -47.1552066405       42.1025177139      -16.9491796465  W2        6399            0.0000000000
     19198      6400  TIP3      OH2           -53.4412266405       52.8775677139      -34.2346796465  W2        6400            0.0000000000
     19199      6400  TIP3      H1            -52.5273066405       52.9564577139      -33.9612896465  W2        6400            0.0000000000
     19200      6400  TIP3      H2            -53.4339166405       52.1905277139      -34.9011196465  W2        6400            0.0000000000
     19201      6401  TIP3      OH2           -38.3597466405       52.5176777139      -16.8122496465  W2        6401            0.0000000000
     19202      6401  TIP3      H1            -39.2256366405       52.4126477139      -16.4180196465  W2        6401            0.0000000000
     19203      6401  TIP3      H2            -37.9831566405       53.2760077139      -16.3657796465  W2        6401            0.0000000000
     19204      6402  TIP3      OH2           -37.0587766405       50.7740477139      -31.2979996465  W2        6402            0.0000000000
     19205      6402  TIP3      H1            -36.2086366405       51.1951377139      -31.1708396465  W2        6402            0.0000000000
     19206      6402  TIP3      H2            -37.0532666405       50.0340577139      -30.6908596465  W2        6402            0.0000000000
     19207      6403  TIP3      OH2           -36.6642166405       48.8277877139      -29.4744296465  W2        6403            0.0000000000
     19208      6403  TIP3      H1            -37.3907566405       48.3480477139      -29.0766696465  W2        6403            0.0000000000
     19209      6403  TIP3      H2            -36.0828866405       49.0332577139      -28.7422696465  W2        6403            0.0000000000
     19210      6404  TIP3      OH2           -36.9050966405       51.6125377139      -24.5266696465  W2        6404            0.0000000000
     19211      6404  TIP3      H1            -36.0716766405       51.2345377139      -24.8073096465  W2        6404            0.0000000000
     19212      6404  TIP3      H2            -36.7930666405       52.5556577139      -24.6457596465  W2        6404            0.0000000000
     19213      6405  TIP3      OH2           -38.4188666405       54.4902877139      -22.2198296465  W2        6405            0.0000000000
     19214      6405  TIP3      H1            -39.0663366405       54.8154377139      -21.5943096465  W2        6405            0.0000000000
     19215      6405  TIP3      H2            -38.9364666405       54.0500577139      -22.8939996465  W2        6405            0.0000000000
     19216      6406  TIP3      OH2           -36.3959066405       48.7286377139      -33.0832996465  W2        6406            0.0000000000
     19217      6406  TIP3      H1            -36.9177966405       49.0850477139      -33.8022096465  W2        6406            0.0000000000
     19218      6406  TIP3      H2            -36.4289866405       49.4034177139      -32.4052096465  W2        6406            0.0000000000
     19219      6407  TIP3      OH2           -38.0470066405       45.9681977139      -34.5325896465  W2        6407            0.0000000000
     19220      6407  TIP3      H1            -37.9505666405       46.6348977139      -35.2126196465  W2        6407            0.0000000000
     19221      6407  TIP3      H2            -38.1870466405       45.1528277139      -35.0140396465  W2        6407            0.0000000000
     19222      6408  TIP3      OH2           -38.8775366405       47.3484377139      -28.9115596465  W2        6408            0.0000000000
     19223      6408  TIP3      H1            -39.0276566405       46.4032977139      -28.9317796465  W2        6408            0.0000000000
     19224      6408  TIP3      H2            -39.2310866405       47.6295777139      -28.0676496465  W2        6408            0.0000000000
     19225      6409  TIP3      OH2           -53.8422966405       49.4266577139      -24.9011796465  W2        6409            0.0000000000
     19226      6409  TIP3      H1            -53.6580066405       49.3448277139      -25.8368896465  W2        6409            0.0000000000
     19227      6409  TIP3      H2            -52.9930066405       49.3023577139      -24.4775396465  W2        6409            0.0000000000
     19228      6410  TIP3      OH2           -38.0212466405       49.3187677139      -19.2727296465  W2        6410            0.0000000000
     19229      6410  TIP3      H1            -37.4385166405       48.5839977139      -19.0810096465  W2        6410            0.0000000000
     19230      6410  TIP3      H2            -37.4573166405       50.0907977139      -19.2261496465  W2        6410            0.0000000000
     19231      6411  TIP3      OH2           -36.5245366405       47.2213477139      -18.5881896465  W2        6411            0.0000000000
     19232      6411  TIP3      H1            -37.3878666405       46.8425577139      -18.7537196465  W2        6411            0.0000000000
     19233      6411  TIP3      H2            -35.9201666405       46.4828277139      -18.6626096465  W2        6411            0.0000000000
     19234      6412  TIP3      OH2           -38.7996266405       43.3761777139      -35.4150396465  W2        6412            0.0000000000
     19235      6412  TIP3      H1            -38.1890466405       43.0048577139      -34.7782196465  W2        6412            0.0000000000
     19236      6412  TIP3      H2            -39.6364766405       42.9548677139      -35.2190396465  W2        6412            0.0000000000
     19237      6413  TIP3      OH2           -39.1670566405       44.9310177139      -30.4490496465  W2        6413            0.0000000000
     19238      6413  TIP3      H1            -38.8873466405       44.0240577139      -30.3248796465  W2        6413            0.0000000000
     19239      6413  TIP3      H2            -38.4078866405       45.3651677139      -30.8381296465  W2        6413            0.0000000000
     19240      6414  TIP3      OH2           -38.5552266405       45.5127577139      -25.0131596465  W2        6414            0.0000000000
     19241      6414  TIP3      H1            -37.6224266405       45.7247477139      -25.0475596465  W2        6414            0.0000000000
     19242      6414  TIP3      H2            -38.7904766405       45.6139677139      -24.0908596465  W2        6414            0.0000000000
     19243      6415  TIP3      OH2           -38.5260366405       46.2492877139      -22.2372196465  W2        6415            0.0000000000
     19244      6415  TIP3      H1            -39.3689066405       46.5173277139      -21.8712396465  W2        6415            0.0000000000
     19245      6415  TIP3      H2            -38.0836066405       47.0714777139      -22.4481096465  W2        6415            0.0000000000
     19246      6416  TIP3      OH2           -54.2448166405       44.6971577139      -18.7602996465  W2        6416            0.0000000000
     19247      6416  TIP3      H1            -53.3253266405       44.5749877139      -18.5239896465  W2        6416            0.0000000000
     19248      6416  TIP3      H2            -54.6943666405       43.9471277139      -18.3709496465  W2        6416            0.0000000000
     19249      6417  TIP3      OH2           -36.2428766405       40.2293077139      -16.8837196465  W2        6417            0.0000000000
     19250      6417  TIP3      H1            -35.8931766405       39.5756577139      -17.4892496465  W2        6417            0.0000000000
     19251      6417  TIP3      H2            -36.0959266405       41.0667177139      -17.3234596465  W2        6417            0.0000000000
     19252      6418  TIP3      OH2           -38.5535766405       42.1939477139      -30.4008496465  W2        6418            0.0000000000
     19253      6418  TIP3      H1            -38.3710766405       41.7450977139      -29.5753496465  W2        6418            0.0000000000
     19254      6418  TIP3      H2            -39.1532866405       41.6093877139      -30.8643896465  W2        6418            0.0000000000
     19255      6419  TIP3      OH2           -53.0235666405       43.0093177139      -25.8690096465  W2        6419            0.0000000000
     19256      6419  TIP3      H1            -52.5784066405       42.2175677139      -25.5670396465  W2        6419            0.0000000000
     19257      6419  TIP3      H2            -52.5572666405       43.7258377139      -25.4384496465  W2        6419            0.0000000000
     19258      6420  TIP3      OH2           -54.7195366405       46.0086177139      -24.7999896465  W2        6420            0.0000000000
     19259      6420  TIP3      H1            -54.2275566405       45.7876677139      -25.5907896465  W2        6420            0.0000000000
     19260      6420  TIP3      H2            -54.3574466405       46.8489577139      -24.5190396465  W2        6420            0.0000000000
     19261      6421  TIP3      OH2           -36.7231566405       42.3387677139      -18.5345896465  W2        6421            0.0000000000
     19262      6421  TIP3      H1            -37.6405866405       42.6094777139      -18.5702396465  W2        6421            0.0000000000
     19263      6421  TIP3      H2            -36.6002166405       41.8036077139      -19.3186196465  W2        6421            0.0000000000
     19264      6422  TIP3      OH2           -36.6869566405       42.2617577139      -33.8728196465  W2        6422            0.0000000000
     19265      6422  TIP3      H1            -36.2746966405       41.5403277139      -34.3480196465  W2        6422            0.0000000000
     19266      6422  TIP3      H2            -36.0053066405       42.9312177139      -33.8143896465  W2        6422            0.0000000000
     19267      6423  TIP3      OH2           -54.4058866405       42.2665277139      -30.7457496465  W2        6423            0.0000000000
     19268      6423  TIP3      H1            -55.3310466405       42.4751877139      -30.8751996465  W2        6423            0.0000000000
     19269      6423  TIP3      H2            -53.9518966405       42.7506077139      -31.4355196465  W2        6423            0.0000000000
     19270      6424  TIP3      OH2           -54.4423466405       41.0044277139      -22.4014996465  W2        6424            0.0000000000
     19271      6424  TIP3      H1            -55.1072966405       40.7584577139      -21.7584096465  W2        6424            0.0000000000
     19272      6424  TIP3      H2            -54.8852166405       41.6264677139      -22.9786996465  W2        6424            0.0000000000
     19273      6425  TIP3      OH2           -52.2504166405       54.1798377139      -18.2569196465  W2        6425            0.0000000000
     19274      6425  TIP3      H1            -53.0711666405       54.3544877139      -18.7174496465  W2        6425            0.0000000000
     19275      6425  TIP3      H2            -52.5026366405       54.1063077139      -17.3364796465  W2        6425            0.0000000000
     19276      6426  TIP3      OH2           -37.7225666405       40.4283977139      -20.7155096465  W2        6426            0.0000000000
     19277      6426  TIP3      H1            -38.5352166405       40.7534277139      -21.1030396465  W2        6426            0.0000000000
     19278      6426  TIP3      H2            -37.4897166405       39.6682477139      -21.2485996465  W2        6426            0.0000000000
     19279      6427  TIP3      OH2           -44.2927166405       41.8774577139      -26.3926896465  W2        6427            0.0000000000
     19280      6427  TIP3      H1            -44.9670366405       41.2480177139      -26.1371096465  W2        6427            0.0000000000
     19281      6427  TIP3      H2            -43.7287966405       41.3933477139      -26.9958996465  W2        6427            0.0000000000
     19282      6428  TIP3      OH2           -39.1499966405       39.9848577139      -26.2799796465  W2        6428            0.0000000000
     19283      6428  TIP3      H1            -38.5462366405       40.5323977139      -26.7818796465  W2        6428            0.0000000000
     19284      6428  TIP3      H2            -40.0197966405       40.3038977139      -26.5205696465  W2        6428            0.0000000000
     19285      6429  TIP3      OH2           -37.4229566405       41.1237277139      -27.9468896465  W2        6429            0.0000000000
     19286      6429  TIP3      H1            -36.8112066405       40.6092977139      -28.4735296465  W2        6429            0.0000000000
     19287      6429  TIP3      H2            -37.0406166405       42.0009377139      -27.9234496465  W2        6429            0.0000000000
     19288      6430  TIP3      OH2           -51.9659666405       40.5114877139      -28.5706996465  W2        6430            0.0000000000
     19289      6430  TIP3      H1            -52.7429866405       40.2769777139      -29.0781096465  W2        6430            0.0000000000
     19290      6430  TIP3      H2            -51.4356066405       39.7146977139      -28.5618996465  W2        6430            0.0000000000
     19291      6431  TIP3      OH2           -53.1296266405       40.3092977139      -32.7670896465  W2        6431            0.0000000000
     19292      6431  TIP3      H1            -52.6905566405       40.9203477139      -33.3587396465  W2        6431            0.0000000000
     19293      6431  TIP3      H2            -53.7633866405       40.8477077139      -32.2930896465  W2        6431            0.0000000000
     19294      6432  TIP3      OH2           -47.3867066405       40.4381977139      -28.7573896465  W2        6432            0.0000000000
     19295      6432  TIP3      H1            -46.5123666405       40.8266277139      -28.7869596465  W2        6432            0.0000000000
     19296      6432  TIP3      H2            -47.5226266405       40.2229777139      -27.8346696465  W2        6432            0.0000000000
     19297      6433  TIP3      OH2           -41.8298666405       40.4681777139      -27.1082196465  W2        6433            0.0000000000
     19298      6433  TIP3      H1            -41.7537066405       40.5633377139      -28.0576196465  W2        6433            0.0000000000
     19299      6433  TIP3      H2            -42.1049466405       39.5604677139      -26.9793096465  W2        6433            0.0000000000
     19300      6434  TIP3      OH2           -40.4766066405       40.4939577139      -31.4157196465  W2        6434            0.0000000000
     19301      6434  TIP3      H1            -41.1794966405       41.1088777139      -31.6255796465  W2        6434            0.0000000000
     19302      6434  TIP3      H2            -40.9214666405       39.6566277139      -31.2846296465  W2        6434            0.0000000000
     19303      6435  TIP3      OH2           -51.2687166405       42.2254477139      -34.3246796465  W2        6435            0.0000000000
     19304      6435  TIP3      H1            -50.7773766405       41.5956877139      -34.8521296465  W2        6435            0.0000000000
     19305      6435  TIP3      H2            -50.6450866405       42.5213877139      -33.6615596465  W2        6435            0.0000000000
     19306      6436  TIP3      OH2           -46.2427066405       42.5185977139      -31.8676296465  W2        6436            0.0000000000
     19307      6436  TIP3      H1            -46.0645766405       41.8719177139      -31.1847696465  W2        6436            0.0000000000
     19308      6436  TIP3      H2            -46.2960866405       43.3523677139      -31.4005196465  W2        6436            0.0000000000
     19309      6437  TIP3      OH2           -52.0081666405       41.0256777139      -19.0530796465  W2        6437            0.0000000000
     19310      6437  TIP3      H1            -52.3743466405       40.2599377139      -18.6106096465  W2        6437            0.0000000000
     19311      6437  TIP3      H2            -51.0953166405       41.0546977139      -18.7665696465  W2        6437            0.0000000000
     19312      6438  TIP3      OH2           -50.0350866405       40.3761177139      -17.5173696465  W2        6438            0.0000000000
     19313      6438  TIP3      H1            -49.1367266405       40.1021377139      -17.7020296465  W2        6438            0.0000000000
     19314      6438  TIP3      H2            -50.4217766405       39.6337177139      -17.0531096465  W2        6438            0.0000000000
     19315      6439  TIP3      OH2           -41.6138566405       39.7086477139      -17.3350896465  W2        6439            0.0000000000
     19316      6439  TIP3      H1            -41.5371366405       39.2827177139      -16.4813196465  W2        6439            0.0000000000
     19317      6439  TIP3      H2            -40.7201966405       39.7221177139      -17.6777396465  W2        6439            0.0000000000
     19318      6440  TIP3      OH2           -24.0317066405       49.6677177139      -28.6119496465  W2        6440            0.0000000000
     19319      6440  TIP3      H1            -23.9425966405       50.6115377139      -28.7442396465  W2        6440            0.0000000000
     19320      6440  TIP3      H2            -24.6699466405       49.3923577139      -29.2700096465  W2        6440            0.0000000000
     19321      6441  TIP3      OH2           -25.0985766405       48.9227877139      -25.1931296465  W2        6441            0.0000000000
     19322      6441  TIP3      H1            -25.1368266405       48.2764177139      -24.4881696465  W2        6441            0.0000000000
     19323      6441  TIP3      H2            -25.4209266405       48.4562277139      -25.9642596465  W2        6441            0.0000000000
     19324      6442  TIP3      OH2           -32.7300766405       48.5369977139      -23.6001396465  W2        6442            0.0000000000
     19325      6442  TIP3      H1            -32.6888666405       47.9113277139      -22.8768996465  W2        6442            0.0000000000
     19326      6442  TIP3      H2            -32.0273066405       49.1608577139      -23.4180996465  W2        6442            0.0000000000
     19327      6443  TIP3      OH2           -21.3925566405       51.8618277139      -26.8916196465  W2        6443            0.0000000000
     19328      6443  TIP3      H1            -21.8332866405       51.1414277139      -26.4410596465  W2        6443            0.0000000000
     19329      6443  TIP3      H2            -21.4055866405       52.5825477139      -26.2618496465  W2        6443            0.0000000000
     19330      6444  TIP3      OH2           -31.8067666405       52.9868877139      -25.0652296465  W2        6444            0.0000000000
     19331      6444  TIP3      H1            -32.1762466405       52.1849377139      -25.4347996465  W2        6444            0.0000000000
     19332      6444  TIP3      H2            -30.8656566405       52.8183777139      -25.0188896465  W2        6444            0.0000000000
     19333      6445  TIP3      OH2           -35.1967166405       46.6471477139      -29.6723496465  W2        6445            0.0000000000
     19334      6445  TIP3      H1            -35.6443766405       47.4930177139      -29.6906996465  W2        6445            0.0000000000
     19335      6445  TIP3      H2            -35.7575966405       46.0675677139      -30.1878396465  W2        6445            0.0000000000
     19336      6446  TIP3      OH2           -34.4861066405       48.8091077139      -27.5465496465  W2        6446            0.0000000000
     19337      6446  TIP3      H1            -34.2727566405       48.0392677139      -27.0192496465  W2        6446            0.0000000000
     19338      6446  TIP3      H2            -33.7483466405       48.8987777139      -28.1497896465  W2        6446            0.0000000000
     19339      6447  TIP3      OH2           -26.7091366405       51.3549277139      -24.7870296465  W2        6447            0.0000000000
     19340      6447  TIP3      H1            -26.4053466405       50.6690677139      -25.3816196465  W2        6447            0.0000000000
     19341      6447  TIP3      H2            -25.9877366405       51.4737977139      -24.1692296465  W2        6447            0.0000000000
     19342      6448  TIP3      OH2           -18.0461566405       42.9564577139      -23.9264096465  W2        6448            0.0000000000
     19343      6448  TIP3      H1            -17.9969366405       43.5665777139      -23.1904996465  W2        6448            0.0000000000
     19344      6448  TIP3      H2            -17.6206466405       43.4175477139      -24.6492996465  W2        6448            0.0000000000
     19345      6449  TIP3      OH2           -23.5684366405       45.7491677139      -24.4595496465  W2        6449            0.0000000000
     19346      6449  TIP3      H1            -23.4258466405       44.8028677139      -24.4393896465  W2        6449            0.0000000000
     19347      6449  TIP3      H2            -23.6745366405       45.9561477139      -25.3880596465  W2        6449            0.0000000000
     19348      6450  TIP3      OH2           -30.4136066405       43.8508077139      -27.1870696465  W2        6450            0.0000000000
     19349      6450  TIP3      H1            -30.3704966405       44.7106577139      -27.6054396465  W2        6450            0.0000000000
     19350      6450  TIP3      H2            -30.8711966405       43.2982777139      -27.8207496465  W2        6450            0.0000000000
     19351      6451  TIP3      OH2           -22.6913366405       43.9813677139      -28.7862396465  W2        6451            0.0000000000
     19352      6451  TIP3      H1            -22.0449066405       43.6526877139      -28.1614796465  W2        6451            0.0000000000
     19353      6451  TIP3      H2            -22.1813966405       44.4992677139      -29.4090996465  W2        6451            0.0000000000
     19354      6452  TIP3      OH2           -33.7934566405       46.2473877139      -26.4249296465  W2        6452            0.0000000000
     19355      6452  TIP3      H1            -33.1397966405       45.6975577139      -25.9929196465  W2        6452            0.0000000000
     19356      6452  TIP3      H2            -33.7695266405       45.9732877139      -27.3417296465  W2        6452            0.0000000000
     19357      6453  TIP3      OH2           -28.6370066405       47.7975177139      -27.2097796465  W2        6453            0.0000000000
     19358      6453  TIP3      H1            -28.0209066405       47.2710577139      -26.7003796465  W2        6453            0.0000000000
     19359      6453  TIP3      H2            -29.2231266405       47.1573877139      -27.6134196465  W2        6453            0.0000000000
     19360      6454  TIP3      OH2           -17.6546966405       44.4343777139      -21.6904296465  W2        6454            0.0000000000
     19361      6454  TIP3      H1            -18.3432366405       45.0924477139      -21.7857696465  W2        6454            0.0000000000
     19362      6454  TIP3      H2            -17.6392366405       44.2371677139      -20.7538896465  W2        6454            0.0000000000
     19363      6455  TIP3      OH2           -31.6034166405       42.7686477139      -23.1129896465  W2        6455            0.0000000000
     19364      6455  TIP3      H1            -31.8222466405       43.2987077139      -23.8793896465  W2        6455            0.0000000000
     19365      6455  TIP3      H2            -32.2713266405       42.9951977139      -22.4658496465  W2        6455            0.0000000000
     19366      6456  TIP3      OH2           -24.2344366405       52.2687577139      -29.5690796465  W2        6456            0.0000000000
     19367      6456  TIP3      H1            -24.5299266405       51.9459877139      -30.4203896465  W2        6456            0.0000000000
     19368      6456  TIP3      H2            -24.5586566405       53.1684277139      -29.5278196465  W2        6456            0.0000000000
     19369      6457  TIP3      OH2           -29.0342766405       50.4442177139      -22.8256196465  W2        6457            0.0000000000
     19370      6457  TIP3      H1            -29.7743666405       51.0423677139      -22.7220996465  W2        6457            0.0000000000
     19371      6457  TIP3      H2            -28.3203266405       50.9981777139      -23.1412596465  W2        6457            0.0000000000
     19372      6458  TIP3      OH2           -20.9274966405       43.2722977139      -26.8056496465  W2        6458            0.0000000000
     19373      6458  TIP3      H1            -21.1426966405       42.5066377139      -26.2730496465  W2        6458            0.0000000000
     19374      6458  TIP3      H2            -20.2717566405       43.7447577139      -26.2927996465  W2        6458            0.0000000000
     19375      6459  TIP3      OH2           -32.0096866405       44.6608277139      -25.1607696465  W2        6459            0.0000000000
     19376      6459  TIP3      H1            -31.3960566405       45.2935877139      -24.7875296465  W2        6459            0.0000000000
     19377      6459  TIP3      H2            -31.4976166405       44.1883277139      -25.8170796465  W2        6459            0.0000000000
     19378      6460  TIP3      OH2           -30.6268466405       52.4085177139      -22.0384696465  W2        6460            0.0000000000
     19379      6460  TIP3      H1            -30.6320866405       53.2878677139      -22.4165396465  W2        6460            0.0000000000
     19380      6460  TIP3      H2            -31.4804366405       52.3249277139      -21.6134796465  W2        6460            0.0000000000
     19381      6461  TIP3      OH2           -34.5057566405       52.0793077139      -31.2565396465  W2        6461            0.0000000000
     19382      6461  TIP3      H1            -34.7776666405       52.3084077139      -32.1452496465  W2        6461            0.0000000000
     19383      6461  TIP3      H2            -34.4601866405       52.9171877139      -30.7960096465  W2        6461            0.0000000000
     19384      6462  TIP3      OH2           -20.8807866405       53.7008977139      -24.5436896465  W2        6462            0.0000000000
     19385      6462  TIP3      H1            -21.8224166405       53.7592877139      -24.3819996465  W2        6462            0.0000000000
     19386      6462  TIP3      H2            -20.6041766405       54.6069477139      -24.6807196465  W2        6462            0.0000000000
     19387      6463  TIP3      OH2           -20.5800866405       41.9874277139      -23.1262996465  W2        6463            0.0000000000
     19388      6463  TIP3      H1            -21.3161666405       42.5981377139      -23.1641696465  W2        6463            0.0000000000
     19389      6463  TIP3      H2            -19.8966866405       42.4023277139      -23.6526596465  W2        6463            0.0000000000
     19390      6464  TIP3      OH2           -27.5769466405       40.0741577139      -25.6604996465  W2        6464            0.0000000000
     19391      6464  TIP3      H1            -27.6945266405       39.1257577139      -25.7146696465  W2        6464            0.0000000000
     19392      6464  TIP3      H2            -28.4319366405       40.4067677139      -25.3873896465  W2        6464            0.0000000000
     19393      6465  TIP3      OH2           -21.4690166405       53.3830977139      -29.4098696465  W2        6465            0.0000000000
     19394      6465  TIP3      H1            -21.7265366405       52.6931077139      -30.0212796465  W2        6465            0.0000000000
     19395      6465  TIP3      H2            -21.3979366405       52.9402177139      -28.5642796465  W2        6465            0.0000000000
     19396      6466  TIP3      OH2           -19.7829966405       51.9497677139      -20.9325196465  W2        6466            0.0000000000
     19397      6466  TIP3      H1            -19.6433666405       51.3580177139      -21.6718196465  W2        6466            0.0000000000
     19398      6466  TIP3      H2            -19.6157166405       52.8223577139      -21.2886396465  W2        6466            0.0000000000
     19399      6467  TIP3      OH2           -25.3104566405       48.9117177139      -31.1599196465  W2        6467            0.0000000000
     19400      6467  TIP3      H1            -26.0219066405       49.4466877139      -31.5118696465  W2        6467            0.0000000000
     19401      6467  TIP3      H2            -24.6194966405       48.9669277139      -31.8200296465  W2        6467            0.0000000000
     19402      6468  TIP3      OH2           -25.2565366405       47.3691477139      -34.1214196465  W2        6468            0.0000000000
     19403      6468  TIP3      H1            -24.5555466405       47.3918377139      -33.4700196465  W2        6468            0.0000000000
     19404      6468  TIP3      H2            -24.9542466405       46.7411177139      -34.7774896465  W2        6468            0.0000000000
     19405      6469  TIP3      OH2           -17.9410666405       48.2895677139      -22.8664796465  W2        6469            0.0000000000
     19406      6469  TIP3      H1            -18.5936566405       48.9841277139      -22.7773896465  W2        6469            0.0000000000
     19407      6469  TIP3      H2            -17.4760366405       48.4996577139      -23.6763196465  W2        6469            0.0000000000
     19408      6470  TIP3      OH2           -21.9046866405       49.1210477139      -30.2083296465  W2        6470            0.0000000000
     19409      6470  TIP3      H1            -22.6365866405       49.3494177139      -29.6352696465  W2        6470            0.0000000000
     19410      6470  TIP3      H2            -21.4574666405       48.4073177139      -29.7535796465  W2        6470            0.0000000000
     19411      6471  TIP3      OH2           -22.0073366405       47.2953077139      -21.1406296465  W2        6471            0.0000000000
     19412      6471  TIP3      H1            -21.9274266405       48.0587477139      -20.5687796465  W2        6471            0.0000000000
     19413      6471  TIP3      H2            -22.6085666405       47.5745477139      -21.8311196465  W2        6471            0.0000000000
     19414      6472  TIP3      OH2           -30.2593166405       49.7516677139      -28.3258296465  W2        6472            0.0000000000
     19415      6472  TIP3      H1            -30.5897966405       49.3810077139      -29.1441296465  W2        6472            0.0000000000
     19416      6472  TIP3      H2            -29.6709066405       49.0810677139      -27.9789996465  W2        6472            0.0000000000
     19417      6473  TIP3      OH2           -28.8925666405       53.1797277139      -25.6446096465  W2        6473            0.0000000000
     19418      6473  TIP3      H1            -28.9874366405       52.6010377139      -26.4011496465  W2        6473            0.0000000000
     19419      6473  TIP3      H2            -28.1632066405       52.8082977139      -25.1483296465  W2        6473            0.0000000000
     19420      6474  TIP3      OH2           -29.8927666405       48.5202277139      -24.6923296465  W2        6474            0.0000000000
     19421      6474  TIP3      H1            -29.3275166405       48.6416477139      -25.4552096465  W2        6474            0.0000000000
     19422      6474  TIP3      H2            -29.5738766405       49.1577277139      -24.0534796465  W2        6474            0.0000000000
     19423      6475  TIP3      OH2           -23.5835466405       54.0234177139      -23.9582796465  W2        6475            0.0000000000
     19424      6475  TIP3      H1            -23.8238866405       54.6857277139      -23.3103596465  W2        6475            0.0000000000
     19425      6475  TIP3      H2            -23.7817266405       53.1889377139      -23.5333196465  W2        6475            0.0000000000
     19426      6476  TIP3      OH2           -29.0126966405       52.9194977139      -19.9751396465  W2        6476            0.0000000000
     19427      6476  TIP3      H1            -29.3239466405       53.7018177139      -19.5198196465  W2        6476            0.0000000000
     19428      6476  TIP3      H2            -29.6626766405       52.7664077139      -20.6609396465  W2        6476            0.0000000000
     19429      6477  TIP3      OH2           -23.0337366405       48.2833377139      -32.5232096465  W2        6477            0.0000000000
     19430      6477  TIP3      H1            -22.4541866405       48.4333677139      -31.7763196465  W2        6477            0.0000000000
     19431      6477  TIP3      H2            -22.6197366405       48.7540777139      -33.2465696465  W2        6477            0.0000000000
     19432      6478  TIP3      OH2           -32.0927066405       49.1176077139      -20.7465696465  W2        6478            0.0000000000
     19433      6478  TIP3      H1            -32.0223866405       49.7682877139      -20.0480696465  W2        6478            0.0000000000
     19434      6478  TIP3      H2            -32.9834866405       49.2203577139      -21.0814796465  W2        6478            0.0000000000
     19435      6479  TIP3      OH2           -30.7731066405       54.9909977139      -19.2117596465  W2        6479            0.0000000000
     19436      6479  TIP3      H1            -30.7655766405       54.8549677139      -20.1592096465  W2        6479            0.0000000000
     19437      6479  TIP3      H2            -31.6890666405       54.8738077139      -18.9597596465  W2        6479            0.0000000000
     19438      6480  TIP3      OH2           -19.3348966405       40.0333777139      -32.7102396465  W2        6480            0.0000000000
     19439      6480  TIP3      H1            -20.2348266405       40.1722777139      -32.4151796465  W2        6480            0.0000000000
     19440      6480  TIP3      H2            -19.0830566405       40.8648377139      -33.1120696465  W2        6480            0.0000000000
     19441      6481  TIP3      OH2           -31.2690466405       48.8210977139      -30.7365496465  W2        6481            0.0000000000
     19442      6481  TIP3      H1            -31.5609166405       49.5892677139      -31.2274196465  W2        6481            0.0000000000
     19443      6481  TIP3      H2            -31.9435266405       48.1617177139      -30.8994096465  W2        6481            0.0000000000
     19444      6482  TIP3      OH2           -18.1457566405       54.3996177139      -34.3338496465  W2        6482            0.0000000000
     19445      6482  TIP3      H1            -18.0724066405       55.3386377139      -34.1633196465  W2        6482            0.0000000000
     19446      6482  TIP3      H2            -17.2402466405       54.0944777139      -34.3901196465  W2        6482            0.0000000000
     19447      6483  TIP3      OH2           -35.1760366405       51.1840177139      -21.9215696465  W2        6483            0.0000000000
     19448      6483  TIP3      H1            -35.6771966405       51.1559577139      -22.7365996465  W2        6483            0.0000000000
     19449      6483  TIP3      H2            -35.1706666405       50.2783377139      -21.6118396465  W2        6483            0.0000000000
     19450      6484  TIP3      OH2           -35.4257666405       53.9643977139      -25.0375496465  W2        6484            0.0000000000
     19451      6484  TIP3      H1            -34.4797066405       53.8200977139      -25.0565996465  W2        6484            0.0000000000
     19452      6484  TIP3      H2            -35.5381366405       54.7486777139      -24.5004296465  W2        6484            0.0000000000
     19453      6485  TIP3      OH2           -17.2279166405       54.6303677139      -19.3551796465  W2        6485            0.0000000000
     19454      6485  TIP3      H1            -17.2772366405       53.6751777139      -19.3924196465  W2        6485            0.0000000000
     19455      6485  TIP3      H2            -18.0546866405       54.8978977139      -18.9537996465  W2        6485            0.0000000000
     19456      6486  TIP3      OH2           -26.2495166405       54.2042877139      -20.4790396465  W2        6486            0.0000000000
     19457      6486  TIP3      H1            -26.1620566405       55.0307477139      -20.0041296465  W2        6486            0.0000000000
     19458      6486  TIP3      H2            -27.1130066405       53.8746677139      -20.2301096465  W2        6486            0.0000000000
     19459      6487  TIP3      OH2           -20.0759366405       46.1236177139      -18.8749596465  W2        6487            0.0000000000
     19460      6487  TIP3      H1            -20.4832566405       46.6041777139      -19.5956296465  W2        6487            0.0000000000
     19461      6487  TIP3      H2            -20.0353666405       45.2182177139      -19.1828796465  W2        6487            0.0000000000
     19462      6488  TIP3      OH2           -32.9269866405       52.5075577139      -20.8782896465  W2        6488            0.0000000000
     19463      6488  TIP3      H1            -32.7108566405       52.1461177139      -20.0187096465  W2        6488            0.0000000000
     19464      6488  TIP3      H2            -33.7825166405       52.1329377139      -21.0879396465  W2        6488            0.0000000000
     19465      6489  TIP3      OH2           -30.3081866405       40.9776077139      -24.8828696465  W2        6489            0.0000000000
     19466      6489  TIP3      H1            -31.1698166405       40.8904277139      -25.2905796465  W2        6489            0.0000000000
     19467      6489  TIP3      H2            -30.3306166405       41.8336177139      -24.4551096465  W2        6489            0.0000000000
     19468      6490  TIP3      OH2           -25.6454066405       40.6996477139      -21.5081696465  W2        6490            0.0000000000
     19469      6490  TIP3      H1            -25.2250966405       40.2843577139      -20.7551096465  W2        6490            0.0000000000
     19470      6490  TIP3      H2            -26.5784466405       40.5209777139      -21.3909696465  W2        6490            0.0000000000
     19471      6491  TIP3      OH2           -22.3189166405       44.4551677139      -20.6547196465  W2        6491            0.0000000000
     19472      6491  TIP3      H1            -22.8329666405       44.3293877139      -19.8571196465  W2        6491            0.0000000000
     19473      6491  TIP3      H2            -22.4744466405       45.3674777139      -20.8990996465  W2        6491            0.0000000000
     19474      6492  TIP3      OH2           -21.5564266405       49.3161677139      -34.8934196465  W2        6492            0.0000000000
     19475      6492  TIP3      H1            -21.5143466405       49.0935577139      -35.8234196465  W2        6492            0.0000000000
     19476      6492  TIP3      H2            -20.7072166405       49.7148777139      -34.7034296465  W2        6492            0.0000000000
     19477      6493  TIP3      OH2           -25.9836766405       43.1919877139      -34.2230896465  W2        6493            0.0000000000
     19478      6493  TIP3      H1            -26.2371966405       43.2111477139      -33.3002796465  W2        6493            0.0000000000
     19479      6493  TIP3      H2            -26.2404666405       42.3205277139      -34.5244696465  W2        6493            0.0000000000
     19480      6494  TIP3      OH2           -30.2171766405       45.9430577139      -23.7878496465  W2        6494            0.0000000000
     19481      6494  TIP3      H1            -30.8589666405       45.9027877139      -23.0788396465  W2        6494            0.0000000000
     19482      6494  TIP3      H2            -30.1799766405       46.8695277139      -24.0255496465  W2        6494            0.0000000000
     19483      6495  TIP3      OH2           -30.2202666405       46.1640677139      -28.8758496465  W2        6495            0.0000000000
     19484      6495  TIP3      H1            -31.1129766405       45.8236777139      -28.9344696465  W2        6495            0.0000000000
     19485      6495  TIP3      H2            -29.7696066405       45.7871577139      -29.6315296465  W2        6495            0.0000000000
     19486      6496  TIP3      OH2           -24.6847166405       46.5800977139      -30.0587696465  W2        6496            0.0000000000
     19487      6496  TIP3      H1            -25.0936866405       47.3949577139      -30.3502896465  W2        6496            0.0000000000
     19488      6496  TIP3      H2            -23.9640966405       46.4401077139      -30.6730596465  W2        6496            0.0000000000
     19489      6497  TIP3      OH2           -25.5825566405       46.7557377139      -18.5706996465  W2        6497            0.0000000000
     19490      6497  TIP3      H1            -26.1451766405       46.0508977139      -18.2499196465  W2        6497            0.0000000000
     19491      6497  TIP3      H2            -24.7562166405       46.6349277139      -18.1029396465  W2        6497            0.0000000000
     19492      6498  TIP3      OH2           -23.6799466405       46.0261377139      -27.2447996465  W2        6498            0.0000000000
     19493      6498  TIP3      H1            -23.8754966405       46.6318177139      -27.9597396465  W2        6498            0.0000000000
     19494      6498  TIP3      H2            -23.4986866405       45.1926577139      -27.6791696465  W2        6498            0.0000000000
     19495      6499  TIP3      OH2           -32.4671266405       46.2634077139      -21.9206496465  W2        6499            0.0000000000
     19496      6499  TIP3      H1            -32.5051866405       46.6635677139      -21.0519396465  W2        6499            0.0000000000
     19497      6499  TIP3      H2            -32.9580166405       45.4466477139      -21.8303596465  W2        6499            0.0000000000
     19498      6500  TIP3      OH2           -29.1013866405       43.6376377139      -35.1220496465  W2        6500            0.0000000000
     19499      6500  TIP3      H1            -29.5323166405       43.1926477139      -34.3923096465  W2        6500            0.0000000000
     19500      6500  TIP3      H2            -29.8195166405       44.0092677139      -35.6342996465  W2        6500            0.0000000000
     19501      6501  TIP3      OH2           -35.8590466405       43.3795877139      -28.0701796465  W2        6501            0.0000000000
     19502      6501  TIP3      H1            -35.2282766405       43.3507977139      -27.3507896465  W2        6501            0.0000000000
     19503      6501  TIP3      H2            -35.4096166405       42.9544577139      -28.8005896465  W2        6501            0.0000000000
     19504      6502  TIP3      OH2           -34.5848366405       44.1257877139      -32.6461396465  W2        6502            0.0000000000
     19505      6502  TIP3      H1            -34.1106666405       44.7167777139      -33.2310496465  W2        6502            0.0000000000
     19506      6502  TIP3      H2            -35.3021966405       44.6560777139      -32.2991296465  W2        6502            0.0000000000
     19507      6503  TIP3      OH2           -24.4160266405       47.6642677139      -22.5735596465  W2        6503            0.0000000000
     19508      6503  TIP3      H1            -24.0925466405       47.0332377139      -23.2165096465  W2        6503            0.0000000000
     19509      6503  TIP3      H2            -24.8560966405       47.1294877139      -21.9128196465  W2        6503            0.0000000000
     19510      6504  TIP3      OH2           -27.6387366405       43.5918177139      -27.7894396465  W2        6504            0.0000000000
     19511      6504  TIP3      H1            -28.5496266405       43.6484977139      -27.5008396465  W2        6504            0.0000000000
     19512      6504  TIP3      H2            -27.1334466405       43.5313677139      -26.9787196465  W2        6504            0.0000000000
     19513      6505  TIP3      OH2           -32.8103966405       45.2204477139      -28.9626796465  W2        6505            0.0000000000
     19514      6505  TIP3      H1            -33.6995966405       45.3199977139      -29.3027196465  W2        6505            0.0000000000
     19515      6505  TIP3      H2            -32.5139066405       44.3787477139      -29.3088896465  W2        6505            0.0000000000
     19516      6506  TIP3      OH2           -29.1572166405       45.2207077139      -31.3062196465  W2        6506            0.0000000000
     19517      6506  TIP3      H1            -28.2256666405       45.3497077139      -31.1279096465  W2        6506            0.0000000000
     19518      6506  TIP3      H2            -29.3721866405       45.8901377139      -31.9557496465  W2        6506            0.0000000000
     19519      6507  TIP3      OH2           -23.2335466405       42.8264477139      -24.5252596465  W2        6507            0.0000000000
     19520      6507  TIP3      H1            -23.9103866405       42.9577577139      -23.8612896465  W2        6507            0.0000000000
     19521      6507  TIP3      H2            -23.7190566405       42.6713977139      -25.3354896465  W2        6507            0.0000000000
     19522      6508  TIP3      OH2           -30.4831966405       46.4149277139      -33.7396096465  W2        6508            0.0000000000
     19523      6508  TIP3      H1            -31.0256866405       46.0353077139      -34.4308496465  W2        6508            0.0000000000
     19524      6508  TIP3      H2            -29.6497066405       46.6093977139      -34.1681996465  W2        6508            0.0000000000
     19525      6509  TIP3      OH2           -32.3480566405       50.9721177139      -18.6404496465  W2        6509            0.0000000000
     19526      6509  TIP3      H1            -31.6158166405       51.2267077139      -18.0789996465  W2        6509            0.0000000000
     19527      6509  TIP3      H2            -33.1281866405       51.1766577139      -18.1249096465  W2        6509            0.0000000000
     19528      6510  TIP3      OH2           -26.3187666405       46.3791177139      -25.9024796465  W2        6510            0.0000000000
     19529      6510  TIP3      H1            -25.7544266405       45.8327777139      -26.4495196465  W2        6510            0.0000000000
     19530      6510  TIP3      H2            -26.4664266405       45.8573077139      -25.1137196465  W2        6510            0.0000000000
     19531      6511  TIP3      OH2           -31.3167966405       42.5157277139      -29.4839996465  W2        6511            0.0000000000
     19532      6511  TIP3      H1            -31.6338466405       41.6132577139      -29.5194596465  W2        6511            0.0000000000
     19533      6511  TIP3      H2            -30.5353866405       42.5174677139      -30.0368396465  W2        6511            0.0000000000
     19534      6512  TIP3      OH2           -27.6921766405       44.7677277139      -23.4884396465  W2        6512            0.0000000000
     19535      6512  TIP3      H1            -28.5276466405       45.2216777139      -23.3781996465  W2        6512            0.0000000000
     19536      6512  TIP3      H2            -27.1681166405       45.0435777139      -22.7364496465  W2        6512            0.0000000000
     19537      6513  TIP3      OH2           -27.1479166405       50.9804977139      -31.8037996465  W2        6513            0.0000000000
     19538      6513  TIP3      H1            -27.8928166405       50.4730277139      -32.1260096465  W2        6513            0.0000000000
     19539      6513  TIP3      H2            -27.2821966405       51.0292977139      -30.8573196465  W2        6513            0.0000000000
     19540      6514  TIP3      OH2           -19.9980266405       50.1133177139      -23.0170396465  W2        6514            0.0000000000
     19541      6514  TIP3      H1            -19.3561466405       50.5699477139      -23.5608196465  W2        6514            0.0000000000
     19542      6514  TIP3      H2            -20.8283366405       50.2265577139      -23.4796296465  W2        6514            0.0000000000
     19543      6515  TIP3      OH2           -23.2502366405       43.7944877139      -33.6045396465  W2        6515            0.0000000000
     19544      6515  TIP3      H1            -24.1888166405       43.9060477139      -33.7556596465  W2        6515            0.0000000000
     19545      6515  TIP3      H2            -22.9530266405       44.6511777139      -33.2979696465  W2        6515            0.0000000000
     19546      6516  TIP3      OH2           -25.6287066405       51.1648277139      -20.5668896465  W2        6516            0.0000000000
     19547      6516  TIP3      H1            -25.9740966405       50.7830677139      -19.7599296465  W2        6516            0.0000000000
     19548      6516  TIP3      H2            -25.8286966405       52.0981877139      -20.4955996465  W2        6516            0.0000000000
     19549      6517  TIP3      OH2           -22.5318866405       45.6617577139      -31.9437996465  W2        6517            0.0000000000
     19550      6517  TIP3      H1            -21.6399866405       45.5242577139      -31.6246796465  W2        6517            0.0000000000
     19551      6517  TIP3      H2            -22.4755266405       46.4523677139      -32.4804496465  W2        6517            0.0000000000
     19552      6518  TIP3      OH2           -32.0230866405       50.2754977139      -26.0340096465  W2        6518            0.0000000000
     19553      6518  TIP3      H1            -31.2783666405       50.2730677139      -26.6353596465  W2        6518            0.0000000000
     19554      6518  TIP3      H2            -31.9454266405       49.4518777139      -25.5524996465  W2        6518            0.0000000000
     19555      6519  TIP3      OH2           -25.0225066405       52.4389277139      -32.7783396465  W2        6519            0.0000000000
     19556      6519  TIP3      H1            -25.3176666405       53.2657177139      -32.3968596465  W2        6519            0.0000000000
     19557      6519  TIP3      H2            -25.7255066405       51.8196177139      -32.5821996465  W2        6519            0.0000000000
     19558      6520  TIP3      OH2           -35.0151166405       48.7361877139      -20.7191596465  W2        6520            0.0000000000
     19559      6520  TIP3      H1            -34.7922566405       48.3181477139      -19.8874096465  W2        6520            0.0000000000
     19560      6520  TIP3      H2            -35.6171066405       48.1236877139      -21.1418796465  W2        6520            0.0000000000
     19561      6521  TIP3      OH2           -27.9986266405       48.2531777139      -18.5061896465  W2        6521            0.0000000000
     19562      6521  TIP3      H1            -28.2945466405       48.0874777139      -19.4012796465  W2        6521            0.0000000000
     19563      6521  TIP3      H2            -27.0671066405       48.0332077139      -18.5167996465  W2        6521            0.0000000000
     19564      6522  TIP3      OH2           -23.3783466405       53.6263777139      -20.6163896465  W2        6522            0.0000000000
     19565      6522  TIP3      H1            -24.2789166405       53.8096377139      -20.8839996465  W2        6522            0.0000000000
     19566      6522  TIP3      H2            -23.3442366405       53.8853077139      -19.6955096465  W2        6522            0.0000000000
     19567      6523  TIP3      OH2           -17.6470166405       45.8711677139      -32.2491296465  W2        6523            0.0000000000
     19568      6523  TIP3      H1            -18.2013866405       45.4749677139      -32.9213796465  W2        6523            0.0000000000
     19569      6523  TIP3      H2            -17.5466566405       46.7816877139      -32.5267996465  W2        6523            0.0000000000
     19570      6524  TIP3      OH2           -17.6838166405       51.6713377139      -19.4119796465  W2        6524            0.0000000000
     19571      6524  TIP3      H1            -18.5349666405       51.9097177139      -19.7793396465  W2        6524            0.0000000000
     19572      6524  TIP3      H2            -17.0934766405       51.6546577139      -20.1652696465  W2        6524            0.0000000000
     19573      6525  TIP3      OH2           -19.3518466405       54.6572077139      -31.7839196465  W2        6525            0.0000000000
     19574      6525  TIP3      H1            -19.7247366405       53.8315877139      -31.4748596465  W2        6525            0.0000000000
     19575      6525  TIP3      H2            -19.0744966405       54.4741477139      -32.6815796465  W2        6525            0.0000000000
     19576      6526  TIP3      OH2           -22.1914566405       49.4651577139      -24.7627296465  W2        6526            0.0000000000
     19577      6526  TIP3      H1            -23.1197666405       49.2333477139      -24.7897996465  W2        6526            0.0000000000
     19578      6526  TIP3      H2            -21.7403466405       48.6881377139      -25.0928496465  W2        6526            0.0000000000
     19579      6527  TIP3      OH2           -29.6481466405       53.7933177139      -28.6298596465  W2        6527            0.0000000000
     19580      6527  TIP3      H1            -29.1209266405       54.5667577139      -28.8299796465  W2        6527            0.0000000000
     19581      6527  TIP3      H2            -30.5282966405       54.0182377139      -28.9314596465  W2        6527            0.0000000000
     19582      6528  TIP3      OH2           -33.8933766405       48.6557277139      -34.0426196465  W2        6528            0.0000000000
     19583      6528  TIP3      H1            -33.2773866405       49.2824477139      -33.6631396465  W2        6528            0.0000000000
     19584      6528  TIP3      H2            -34.7551166405       48.9717077139      -33.7709696465  W2        6528            0.0000000000
     19585      6529  TIP3      OH2           -28.2209166405       51.4563077139      -29.0534296465  W2        6529            0.0000000000
     19586      6529  TIP3      H1            -28.4619166405       52.3817477139      -29.0118996465  W2        6529            0.0000000000
     19587      6529  TIP3      H2            -28.9615566405       50.9974377139      -28.6570396465  W2        6529            0.0000000000
     19588      6530  TIP3      OH2           -24.1621766405       51.7047377139      -23.0377596465  W2        6530            0.0000000000
     19589      6530  TIP3      H1            -24.5880466405       51.4769077139      -22.2113596465  W2        6530            0.0000000000
     19590      6530  TIP3      H2            -23.5815966405       50.9659177139      -23.2202296465  W2        6530            0.0000000000
     19591      6531  TIP3      OH2           -21.9592866405       52.6337877139      -33.9638596465  W2        6531            0.0000000000
     19592      6531  TIP3      H1            -21.6059766405       52.2537677139      -33.1595096465  W2        6531            0.0000000000
     19593      6531  TIP3      H2            -22.9079366405       52.5402677139      -33.8769296465  W2        6531            0.0000000000
     19594      6532  TIP3      OH2           -33.3811666405       43.4894577139      -21.1610196465  W2        6532            0.0000000000
     19595      6532  TIP3      H1            -34.2739366405       43.8279977139      -21.2286196465  W2        6532            0.0000000000
     19596      6532  TIP3      H2            -33.4798866405       42.6340677139      -20.7429396465  W2        6532            0.0000000000
     19597      6533  TIP3      OH2           -21.0933566405       51.3059877139      -31.7370696465  W2        6533            0.0000000000
     19598      6533  TIP3      H1            -21.3705966405       50.5779177139      -31.1809596465  W2        6533            0.0000000000
     19599      6533  TIP3      H2            -20.1660566405       51.4251877139      -31.5318096465  W2        6533            0.0000000000
     19600      6534  TIP3      OH2           -27.8685066405       53.7453977139      -35.5168596465  W2        6534            0.0000000000
     19601      6534  TIP3      H1            -27.6295266405       52.9972077139      -36.0639696465  W2        6534            0.0000000000
     19602      6534  TIP3      H2            -28.1373766405       53.3575677139      -34.6840796465  W2        6534            0.0000000000
     19603      6535  TIP3      OH2           -28.9314466405       53.3157777139      -33.0605996465  W2        6535            0.0000000000
     19604      6535  TIP3      H1            -28.7846466405       52.7957577139      -32.2705096465  W2        6535            0.0000000000
     19605      6535  TIP3      H2            -28.9342766405       54.2225377139      -32.7540096465  W2        6535            0.0000000000
     19606      6536  TIP3      OH2           -32.4783366405       50.5681077139      -32.5500596465  W2        6536            0.0000000000
     19607      6536  TIP3      H1            -33.1644066405       50.9203577139      -31.9830896465  W2        6536            0.0000000000
     19608      6536  TIP3      H2            -31.9555466405       51.3310677139      -32.7966296465  W2        6536            0.0000000000
     19609      6537  TIP3      OH2           -24.6468266405       43.2304877139      -22.2711596465  W2        6537            0.0000000000
     19610      6537  TIP3      H1            -23.9480366405       43.3043577139      -21.6211896465  W2        6537            0.0000000000
     19611      6537  TIP3      H2            -25.0276866405       42.3659877139      -22.1168696465  W2        6537            0.0000000000
     19612      6538  TIP3      OH2           -23.8623366405       42.8826577139      -31.1739296465  W2        6538            0.0000000000
     19613      6538  TIP3      H1            -23.6425066405       43.3541977139      -31.9773896465  W2        6538            0.0000000000
     19614      6538  TIP3      H2            -23.3039366405       43.2769177139      -30.5038696465  W2        6538            0.0000000000
     19615      6539  TIP3      OH2           -26.6623466405       44.6105377139      -30.3390896465  W2        6539            0.0000000000
     19616      6539  TIP3      H1            -25.8500866405       45.1148577139      -30.2929196465  W2        6539            0.0000000000
     19617      6539  TIP3      H2            -26.9070466405       44.4655077139      -29.4251296465  W2        6539            0.0000000000
     19618      6540  TIP3      OH2           -26.1267066405       45.5968077139      -21.1544296465  W2        6540            0.0000000000
     19619      6540  TIP3      H1            -26.0076766405       46.1703477139      -20.3973896465  W2        6540            0.0000000000
     19620      6540  TIP3      H2            -25.4712466405       44.9087477139      -21.0396496465  W2        6540            0.0000000000
     19621      6541  TIP3      OH2           -25.7786766405       41.6918377139      -29.4009796465  W2        6541            0.0000000000
     19622      6541  TIP3      H1            -26.1253266405       42.3088977139      -28.7565496465  W2        6541            0.0000000000
     19623      6541  TIP3      H2            -25.1199866405       42.1924077139      -29.8824296465  W2        6541            0.0000000000
     19624      6542  TIP3      OH2           -30.1209766405       42.7547777139      -32.7137296465  W2        6542            0.0000000000
     19625      6542  TIP3      H1            -30.2044966405       43.6430877139      -32.3670896465  W2        6542            0.0000000000
     19626      6542  TIP3      H2            -29.2309466405       42.4894477139      -32.4820496465  W2        6542            0.0000000000
     19627      6543  TIP3      OH2           -19.9221266405       43.5038377139      -20.3194596465  W2        6543            0.0000000000
     19628      6543  TIP3      H1            -20.8385466405       43.7660077139      -20.4070896465  W2        6543            0.0000000000
     19629      6543  TIP3      H2            -19.5866266405       43.5007377139      -21.2159296465  W2        6543            0.0000000000
     19630      6544  TIP3      OH2           -21.3200266405       47.2539377139      -26.2237296465  W2        6544            0.0000000000
     19631      6544  TIP3      H1            -22.1175866405       46.8389577139      -26.5522296465  W2        6544            0.0000000000
     19632      6544  TIP3      H2            -20.8749166405       46.5633077139      -25.7326796465  W2        6544            0.0000000000
     19633      6545  TIP3      OH2           -31.8624466405       53.1819977139      -33.6532796465  W2        6545            0.0000000000
     19634      6545  TIP3      H1            -31.2702966405       53.8814777139      -33.3770396465  W2        6545            0.0000000000
     19635      6545  TIP3      H2            -31.4031466405       52.7489477139      -34.3728196465  W2        6545            0.0000000000
     19636      6546  TIP3      OH2           -33.5465266405       45.8462977139      -34.5373396465  W2        6546            0.0000000000
     19637      6546  TIP3      H1            -33.5912666405       46.7856077139      -34.3586396465  W2        6546            0.0000000000
     19638      6546  TIP3      H2            -34.4342066405       45.6107877139      -34.8071296465  W2        6546            0.0000000000
     19639      6547  TIP3      OH2           -32.7383266405       40.6279577139      -25.8642396465  W2        6547            0.0000000000
     19640      6547  TIP3      H1            -32.9673466405       40.6872077139      -26.7917396465  W2        6547            0.0000000000
     19641      6547  TIP3      H2            -33.1809866405       39.8365077139      -25.5578296465  W2        6547            0.0000000000
     19642      6548  TIP3      OH2           -33.8079966405       54.5686677139      -29.7036596465  W2        6548            0.0000000000
     19643      6548  TIP3      H1            -34.6401366405       55.0409377139      -29.6765196465  W2        6548            0.0000000000
     19644      6548  TIP3      H2            -33.2621666405       55.0784277139      -30.3023496465  W2        6548            0.0000000000
     19645      6549  TIP3      OH2           -23.3454166405       54.4805877139      -18.0242896465  W2        6549            0.0000000000
     19646      6549  TIP3      H1            -23.6964666405       53.6238877139      -17.7812496465  W2        6549            0.0000000000
     19647      6549  TIP3      H2            -22.6190966405       54.6232577139      -17.4173896465  W2        6549            0.0000000000
     19648      6550  TIP3      OH2           -34.6126766405       50.9914477139      -17.4194296465  W2        6550            0.0000000000
     19649      6550  TIP3      H1            -34.4686266405       50.0895177139      -17.7057596465  W2        6550            0.0000000000
     19650      6550  TIP3      H2            -35.3849366405       51.2776577139      -17.9071996465  W2        6550            0.0000000000
     19651      6551  TIP3      OH2           -30.2713066405       51.3350177139      -35.2869696465  W2        6551            0.0000000000
     19652      6551  TIP3      H1            -30.2068966405       50.5409777139      -34.7563296465  W2        6551            0.0000000000
     19653      6551  TIP3      H2            -29.6183866405       51.2162977139      -35.9767696465  W2        6551            0.0000000000
     19654      6552  TIP3      OH2           -27.9570666405       50.9612577139      -17.9867896465  W2        6552            0.0000000000
     19655      6552  TIP3      H1            -28.2856866405       51.2320677139      -18.8440496465  W2        6552            0.0000000000
     19656      6552  TIP3      H2            -27.8052466405       50.0202377139      -18.0742896465  W2        6552            0.0000000000
     19657      6553  TIP3      OH2           -24.9189666405       52.3821877139      -35.5511696465  W2        6553            0.0000000000
     19658      6553  TIP3      H1            -25.1875566405       52.5623977139      -34.6502796465  W2        6553            0.0000000000
     19659      6553  TIP3      H2            -25.1254066405       51.4568077139      -35.6825896465  W2        6553            0.0000000000
     19660      6554  TIP3      OH2           -22.2225466405       50.8769877139      -20.6035596465  W2        6554            0.0000000000
     19661      6554  TIP3      H1            -21.4770666405       51.4653577139      -20.7231596465  W2        6554            0.0000000000
     19662      6554  TIP3      H2            -22.9798666405       51.4589577139      -20.5402496465  W2        6554            0.0000000000
     19663      6555  TIP3      OH2           -33.7800266405       48.1917777139      -17.9994996465  W2        6555            0.0000000000
     19664      6555  TIP3      H1            -33.3719066405       47.3344377139      -18.1204396465  W2        6555            0.0000000000
     19665      6555  TIP3      H2            -34.0402666405       48.2059077139      -17.0784696465  W2        6555            0.0000000000
     19666      6556  TIP3      OH2           -29.1219266405       49.3076377139      -32.9811696465  W2        6556            0.0000000000
     19667      6556  TIP3      H1            -29.5817266405       48.8234677139      -32.2953196465  W2        6556            0.0000000000
     19668      6556  TIP3      H2            -28.8670566405       48.6391777139      -33.6171196465  W2        6556            0.0000000000
     19669      6557  TIP3      OH2           -29.8329966405       47.2003477139      -20.6252096465  W2        6557            0.0000000000
     19670      6557  TIP3      H1            -30.4513866405       47.8750077139      -20.3447396465  W2        6557            0.0000000000
     19671      6557  TIP3      H2            -29.4888766405       47.5217377139      -21.4585896465  W2        6557            0.0000000000
     19672      6558  TIP3      OH2           -28.0508866405       47.5508177139      -34.7188496465  W2        6558            0.0000000000
     19673      6558  TIP3      H1            -28.2313866405       47.3959377139      -35.6460196465  W2        6558            0.0000000000
     19674      6558  TIP3      H2            -27.1008366405       47.6586877139      -34.6740596465  W2        6558            0.0000000000
     19675      6559  TIP3      OH2           -24.8131766405       49.6718777139      -17.3477296465  W2        6559            0.0000000000
     19676      6559  TIP3      H1            -23.8600566405       49.7557877139      -17.3751296465  W2        6559            0.0000000000
     19677      6559  TIP3      H2            -24.9737166405       48.9600577139      -16.7282396465  W2        6559            0.0000000000
     19678      6560  TIP3      OH2           -18.6610566405       49.9052377139      -35.2730396465  W2        6560            0.0000000000
     19679      6560  TIP3      H1            -18.9345766405       49.4807877139      -36.0862096465  W2        6560            0.0000000000
     19680      6560  TIP3      H2            -18.6216466405       50.8366877139      -35.4899996465  W2        6560            0.0000000000
     19681      6561  TIP3      OH2           -29.4936266405       44.5554277139      -19.5428996465  W2        6561            0.0000000000
     19682      6561  TIP3      H1            -29.3435366405       43.8265577139      -20.1449296465  W2        6561            0.0000000000
     19683      6561  TIP3      H2            -29.4913866405       45.3325977139      -20.1016796465  W2        6561            0.0000000000
     19684      6562  TIP3      OH2           -29.0810566405       42.9250077139      -22.0501596465  W2        6562            0.0000000000
     19685      6562  TIP3      H1            -28.5453066405       43.3766777139      -22.7022296465  W2        6562            0.0000000000
     19686      6562  TIP3      H2            -29.9330966405       42.8169877139      -22.4727496465  W2        6562            0.0000000000
     19687      6563  TIP3      OH2           -27.4992166405       48.3646277139      -21.8106396465  W2        6563            0.0000000000
     19688      6563  TIP3      H1            -26.7487366405       48.2083777139      -22.3838596465  W2        6563            0.0000000000
     19689      6563  TIP3      H2            -27.8383866405       49.2162877139      -22.0860896465  W2        6563            0.0000000000
     19690      6564  TIP3      OH2           -23.0835966405       46.1798077139      -16.7821096465  W2        6564            0.0000000000
     19691      6564  TIP3      H1            -22.8914666405       45.2487477139      -16.8936596465  W2        6564            0.0000000000
     19692      6564  TIP3      H2            -22.2259666405       46.6047577139      -16.7925696465  W2        6564            0.0000000000
     19693      6565  TIP3      OH2           -21.7668766405       48.9683277139      -18.7048396465  W2        6565            0.0000000000
     19694      6565  TIP3      H1            -22.0483766405       49.6777877139      -19.2824596465  W2        6565            0.0000000000
     19695      6565  TIP3      H2            -20.8244466405       48.8956277139      -18.8557196465  W2        6565            0.0000000000
     19696      6566  TIP3      OH2           -31.0149966405       45.7537777139      -17.6313396465  W2        6566            0.0000000000
     19697      6566  TIP3      H1            -31.7820966405       45.2212577139      -17.8415796465  W2        6566            0.0000000000
     19698      6566  TIP3      H2            -30.3360966405       45.4438177139      -18.2307096465  W2        6566            0.0000000000
     19699      6567  TIP3      OH2           -28.2755066405       40.3815777139      -21.6187996465  W2        6567            0.0000000000
     19700      6567  TIP3      H1            -28.3735466405       41.3278977139      -21.7241796465  W2        6567            0.0000000000
     19701      6567  TIP3      H2            -29.0178866405       40.0089577139      -22.0944496465  W2        6567            0.0000000000
     19702      6568  TIP3      OH2           -27.0114566405       44.7031177139      -18.0549596465  W2        6568            0.0000000000
     19703      6568  TIP3      H1            -27.2469166405       44.4837877139      -17.1534696465  W2        6568            0.0000000000
     19704      6568  TIP3      H2            -27.7947666405       44.4962377139      -18.5647096465  W2        6568            0.0000000000
     19705      6569  TIP3      OH2           -24.2957966405       43.8304677139      -18.9796096465  W2        6569            0.0000000000
     19706      6569  TIP3      H1            -25.2432566405       43.8624377139      -18.8472796465  W2        6569            0.0000000000
     19707      6569  TIP3      H2            -23.9831266405       43.2051777139      -18.3257896465  W2        6569            0.0000000000
     19708      6570  TIP3      OH2           -22.6616466405       42.4645777139      -16.9744196465  W2        6570            0.0000000000
     19709      6570  TIP3      H1            -22.7584666405       41.5123077139      -16.9802296465  W2        6570            0.0000000000
     19710      6570  TIP3      H2            -22.9833366405       42.7332577139      -16.1138696465  W2        6570            0.0000000000
     19711      6571  TIP3      OH2           -32.8347166405       43.6741577139      -17.9268696465  W2        6571            0.0000000000
     19712      6571  TIP3      H1            -32.6229766405       42.9677677139      -18.5371196465  W2        6571            0.0000000000
     19713      6571  TIP3      H2            -32.9459666405       43.2367577139      -17.0827496465  W2        6571            0.0000000000
     19714      6572  TIP3      OH2           -28.0536966405       39.6753177139      -18.9475196465  W2        6572            0.0000000000
     19715      6572  TIP3      H1            -27.3418566405       39.0355377139      -18.9616096465  W2        6572            0.0000000000
     19716      6572  TIP3      H2            -28.1546566405       39.9421477139      -19.8612096465  W2        6572            0.0000000000
     19717      6573  TIP3      OH2           -27.6999466405       41.3581577139      -16.8938896465  W2        6573            0.0000000000
     19718      6573  TIP3      H1            -27.8317266405       40.8825377139      -17.7140396465  W2        6573            0.0000000000
     19719      6573  TIP3      H2            -28.2992066405       42.1025177139      -16.9491796465  W2        6573            0.0000000000
     19720      6574  TIP3      OH2           -34.5852266405       52.8775677139      -34.2346796465  W2        6574            0.0000000000
     19721      6574  TIP3      H1            -33.6713066405       52.9564577139      -33.9612896465  W2        6574            0.0000000000
     19722      6574  TIP3      H2            -34.5779166405       52.1905277139      -34.9011196465  W2        6574            0.0000000000
     19723      6575  TIP3      OH2           -19.5037466405       52.5176777139      -16.8122496465  W2        6575            0.0000000000
     19724      6575  TIP3      H1            -20.3696366405       52.4126477139      -16.4180196465  W2        6575            0.0000000000
     19725      6575  TIP3      H2            -19.1271566405       53.2760077139      -16.3657796465  W2        6575            0.0000000000
     19726      6576  TIP3      OH2           -18.2027766405       50.7740477139      -31.2979996465  W2        6576            0.0000000000
     19727      6576  TIP3      H1            -17.3526366405       51.1951377139      -31.1708396465  W2        6576            0.0000000000
     19728      6576  TIP3      H2            -18.1972666405       50.0340577139      -30.6908596465  W2        6576            0.0000000000
     19729      6577  TIP3      OH2           -17.8082166405       48.8277877139      -29.4744296465  W2        6577            0.0000000000
     19730      6577  TIP3      H1            -18.5347566405       48.3480477139      -29.0766696465  W2        6577            0.0000000000
     19731      6577  TIP3      H2            -17.2268866405       49.0332577139      -28.7422696465  W2        6577            0.0000000000
     19732      6578  TIP3      OH2           -18.0490966405       51.6125377139      -24.5266696465  W2        6578            0.0000000000
     19733      6578  TIP3      H1            -17.2156766405       51.2345377139      -24.8073096465  W2        6578            0.0000000000
     19734      6578  TIP3      H2            -17.9370666405       52.5556577139      -24.6457596465  W2        6578            0.0000000000
     19735      6579  TIP3      OH2           -19.5628666405       54.4902877139      -22.2198296465  W2        6579            0.0000000000
     19736      6579  TIP3      H1            -20.2103366405       54.8154377139      -21.5943096465  W2        6579            0.0000000000
     19737      6579  TIP3      H2            -20.0804666405       54.0500577139      -22.8939996465  W2        6579            0.0000000000
     19738      6580  TIP3      OH2           -17.5399066405       48.7286377139      -33.0832996465  W2        6580            0.0000000000
     19739      6580  TIP3      H1            -18.0617966405       49.0850477139      -33.8022096465  W2        6580            0.0000000000
     19740      6580  TIP3      H2            -17.5729866405       49.4034177139      -32.4052096465  W2        6580            0.0000000000
     19741      6581  TIP3      OH2           -19.1910066405       45.9681977139      -34.5325896465  W2        6581            0.0000000000
     19742      6581  TIP3      H1            -19.0945666405       46.6348977139      -35.2126196465  W2        6581            0.0000000000
     19743      6581  TIP3      H2            -19.3310466405       45.1528277139      -35.0140396465  W2        6581            0.0000000000
     19744      6582  TIP3      OH2           -20.0215366405       47.3484377139      -28.9115596465  W2        6582            0.0000000000
     19745      6582  TIP3      H1            -20.1716566405       46.4032977139      -28.9317796465  W2        6582            0.0000000000
     19746      6582  TIP3      H2            -20.3750866405       47.6295777139      -28.0676496465  W2        6582            0.0000000000
     19747      6583  TIP3      OH2           -34.9862966405       49.4266577139      -24.9011796465  W2        6583            0.0000000000
     19748      6583  TIP3      H1            -34.8020066405       49.3448277139      -25.8368896465  W2        6583            0.0000000000
     19749      6583  TIP3      H2            -34.1370066405       49.3023577139      -24.4775396465  W2        6583            0.0000000000
     19750      6584  TIP3      OH2           -19.1652466405       49.3187677139      -19.2727296465  W2        6584            0.0000000000
     19751      6584  TIP3      H1            -18.5825166405       48.5839977139      -19.0810096465  W2        6584            0.0000000000
     19752      6584  TIP3      H2            -18.6013166405       50.0907977139      -19.2261496465  W2        6584            0.0000000000
     19753      6585  TIP3      OH2           -17.6685366405       47.2213477139      -18.5881896465  W2        6585            0.0000000000
     19754      6585  TIP3      H1            -18.5318666405       46.8425577139      -18.7537196465  W2        6585            0.0000000000
     19755      6585  TIP3      H2            -17.0641666405       46.4828277139      -18.6626096465  W2        6585            0.0000000000
     19756      6586  TIP3      OH2           -19.9436266405       43.3761777139      -35.4150396465  W2        6586            0.0000000000
     19757      6586  TIP3      H1            -19.3330466405       43.0048577139      -34.7782196465  W2        6586            0.0000000000
     19758      6586  TIP3      H2            -20.7804766405       42.9548677139      -35.2190396465  W2        6586            0.0000000000
     19759      6587  TIP3      OH2           -20.3110566405       44.9310177139      -30.4490496465  W2        6587            0.0000000000
     19760      6587  TIP3      H1            -20.0313466405       44.0240577139      -30.3248796465  W2        6587            0.0000000000
     19761      6587  TIP3      H2            -19.5518866405       45.3651677139      -30.8381296465  W2        6587            0.0000000000
     19762      6588  TIP3      OH2           -19.6992266405       45.5127577139      -25.0131596465  W2        6588            0.0000000000
     19763      6588  TIP3      H1            -18.7664266405       45.7247477139      -25.0475596465  W2        6588            0.0000000000
     19764      6588  TIP3      H2            -19.9344766405       45.6139677139      -24.0908596465  W2        6588            0.0000000000
     19765      6589  TIP3      OH2           -19.6700366405       46.2492877139      -22.2372196465  W2        6589            0.0000000000
     19766      6589  TIP3      H1            -20.5129066405       46.5173277139      -21.8712396465  W2        6589            0.0000000000
     19767      6589  TIP3      H2            -19.2276066405       47.0714777139      -22.4481096465  W2        6589            0.0000000000
     19768      6590  TIP3      OH2           -35.3888166405       44.6971577139      -18.7602996465  W2        6590            0.0000000000
     19769      6590  TIP3      H1            -34.4693266405       44.5749877139      -18.5239896465  W2        6590            0.0000000000
     19770      6590  TIP3      H2            -35.8383666405       43.9471277139      -18.3709496465  W2        6590            0.0000000000
     19771      6591  TIP3      OH2           -17.3868766405       40.2293077139      -16.8837196465  W2        6591            0.0000000000
     19772      6591  TIP3      H1            -17.0371766405       39.5756577139      -17.4892496465  W2        6591            0.0000000000
     19773      6591  TIP3      H2            -17.2399266405       41.0667177139      -17.3234596465  W2        6591            0.0000000000
     19774      6592  TIP3      OH2           -19.6975766405       42.1939477139      -30.4008496465  W2        6592            0.0000000000
     19775      6592  TIP3      H1            -19.5150766405       41.7450977139      -29.5753496465  W2        6592            0.0000000000
     19776      6592  TIP3      H2            -20.2972866405       41.6093877139      -30.8643896465  W2        6592            0.0000000000
     19777      6593  TIP3      OH2           -34.1675666405       43.0093177139      -25.8690096465  W2        6593            0.0000000000
     19778      6593  TIP3      H1            -33.7224066405       42.2175677139      -25.5670396465  W2        6593            0.0000000000
     19779      6593  TIP3      H2            -33.7012666405       43.7258377139      -25.4384496465  W2        6593            0.0000000000
     19780      6594  TIP3      OH2           -35.8635366405       46.0086177139      -24.7999896465  W2        6594            0.0000000000
     19781      6594  TIP3      H1            -35.3715566405       45.7876677139      -25.5907896465  W2        6594            0.0000000000
     19782      6594  TIP3      H2            -35.5014466405       46.8489577139      -24.5190396465  W2        6594            0.0000000000
     19783      6595  TIP3      OH2           -17.8671566405       42.3387677139      -18.5345896465  W2        6595            0.0000000000
     19784      6595  TIP3      H1            -18.7845866405       42.6094777139      -18.5702396465  W2        6595            0.0000000000
     19785      6595  TIP3      H2            -17.7442166405       41.8036077139      -19.3186196465  W2        6595            0.0000000000
     19786      6596  TIP3      OH2           -17.8309566405       42.2617577139      -33.8728196465  W2        6596            0.0000000000
     19787      6596  TIP3      H1            -17.4186966405       41.5403277139      -34.3480196465  W2        6596            0.0000000000
     19788      6596  TIP3      H2            -17.1493066405       42.9312177139      -33.8143896465  W2        6596            0.0000000000
     19789      6597  TIP3      OH2           -35.5498866405       42.2665277139      -30.7457496465  W2        6597            0.0000000000
     19790      6597  TIP3      H1            -36.4750466405       42.4751877139      -30.8751996465  W2        6597            0.0000000000
     19791      6597  TIP3      H2            -35.0958966405       42.7506077139      -31.4355196465  W2        6597            0.0000000000
     19792      6598  TIP3      OH2           -35.5863466405       41.0044277139      -22.4014996465  W2        6598            0.0000000000
     19793      6598  TIP3      H1            -36.2512966405       40.7584577139      -21.7584096465  W2        6598            0.0000000000
     19794      6598  TIP3      H2            -36.0292166405       41.6264677139      -22.9786996465  W2        6598            0.0000000000
     19795      6599  TIP3      OH2           -33.3944166405       54.1798377139      -18.2569196465  W2        6599            0.0000000000
     19796      6599  TIP3      H1            -34.2151666405       54.3544877139      -18.7174496465  W2        6599            0.0000000000
     19797      6599  TIP3      H2            -33.6466366405       54.1063077139      -17.3364796465  W2        6599            0.0000000000
     19798      6600  TIP3      OH2           -18.8665666405       40.4283977139      -20.7155096465  W2        6600            0.0000000000
     19799      6600  TIP3      H1            -19.6792166405       40.7534277139      -21.1030396465  W2        6600            0.0000000000
     19800      6600  TIP3      H2            -18.6337166405       39.6682477139      -21.2485996465  W2        6600            0.0000000000
     19801      6601  TIP3      OH2           -25.4367166405       41.8774577139      -26.3926896465  W2        6601            0.0000000000
     19802      6601  TIP3      H1            -26.1110366405       41.2480177139      -26.1371096465  W2        6601            0.0000000000
     19803      6601  TIP3      H2            -24.8727966405       41.3933477139      -26.9958996465  W2        6601            0.0000000000
     19804      6602  TIP3      OH2           -20.2939966405       39.9848577139      -26.2799796465  W2        6602            0.0000000000
     19805      6602  TIP3      H1            -19.6902366405       40.5323977139      -26.7818796465  W2        6602            0.0000000000
     19806      6602  TIP3      H2            -21.1637966405       40.3038977139      -26.5205696465  W2        6602            0.0000000000
     19807      6603  TIP3      OH2           -18.5669566405       41.1237277139      -27.9468896465  W2        6603            0.0000000000
     19808      6603  TIP3      H1            -17.9552066405       40.6092977139      -28.4735296465  W2        6603            0.0000000000
     19809      6603  TIP3      H2            -18.1846166405       42.0009377139      -27.9234496465  W2        6603            0.0000000000
     19810      6604  TIP3      OH2           -33.1099666405       40.5114877139      -28.5706996465  W2        6604            0.0000000000
     19811      6604  TIP3      H1            -33.8869866405       40.2769777139      -29.0781096465  W2        6604            0.0000000000
     19812      6604  TIP3      H2            -32.5796066405       39.7146977139      -28.5618996465  W2        6604            0.0000000000
     19813      6605  TIP3      OH2           -34.2736266405       40.3092977139      -32.7670896465  W2        6605            0.0000000000
     19814      6605  TIP3      H1            -33.8345566405       40.9203477139      -33.3587396465  W2        6605            0.0000000000
     19815      6605  TIP3      H2            -34.9073866405       40.8477077139      -32.2930896465  W2        6605            0.0000000000
     19816      6606  TIP3      OH2           -28.5307066405       40.4381977139      -28.7573896465  W2        6606            0.0000000000
     19817      6606  TIP3      H1            -27.6563666405       40.8266277139      -28.7869596465  W2        6606            0.0000000000
     19818      6606  TIP3      H2            -28.6666266405       40.2229777139      -27.8346696465  W2        6606            0.0000000000
     19819      6607  TIP3      OH2           -22.9738666405       40.4681777139      -27.1082196465  W2        6607            0.0000000000
     19820      6607  TIP3      H1            -22.8977066405       40.5633377139      -28.0576196465  W2        6607            0.0000000000
     19821      6607  TIP3      H2            -23.2489466405       39.5604677139      -26.9793096465  W2        6607            0.0000000000
     19822      6608  TIP3      OH2           -21.6206066405       40.4939577139      -31.4157196465  W2        6608            0.0000000000
     19823      6608  TIP3      H1            -22.3234966405       41.1088777139      -31.6255796465  W2        6608            0.0000000000
     19824      6608  TIP3      H2            -22.0654666405       39.6566277139      -31.2846296465  W2        6608            0.0000000000
     19825      6609  TIP3      OH2           -32.4127166405       42.2254477139      -34.3246796465  W2        6609            0.0000000000
     19826      6609  TIP3      H1            -31.9213766405       41.5956877139      -34.8521296465  W2        6609            0.0000000000
     19827      6609  TIP3      H2            -31.7890866405       42.5213877139      -33.6615596465  W2        6609            0.0000000000
     19828      6610  TIP3      OH2           -27.3867066405       42.5185977139      -31.8676296465  W2        6610            0.0000000000
     19829      6610  TIP3      H1            -27.2085766405       41.8719177139      -31.1847696465  W2        6610            0.0000000000
     19830      6610  TIP3      H2            -27.4400866405       43.3523677139      -31.4005196465  W2        6610            0.0000000000
     19831      6611  TIP3      OH2           -33.1521666405       41.0256777139      -19.0530796465  W2        6611            0.0000000000
     19832      6611  TIP3      H1            -33.5183466405       40.2599377139      -18.6106096465  W2        6611            0.0000000000
     19833      6611  TIP3      H2            -32.2393166405       41.0546977139      -18.7665696465  W2        6611            0.0000000000
     19834      6612  TIP3      OH2           -31.1790866405       40.3761177139      -17.5173696465  W2        6612            0.0000000000
     19835      6612  TIP3      H1            -30.2807266405       40.1021377139      -17.7020296465  W2        6612            0.0000000000
     19836      6612  TIP3      H2            -31.5657766405       39.6337177139      -17.0531096465  W2        6612            0.0000000000
     19837      6613  TIP3      OH2           -22.7578566405       39.7086477139      -17.3350896465  W2        6613            0.0000000000
     19838      6613  TIP3      H1            -22.6811366405       39.2827177139      -16.4813196465  W2        6613            0.0000000000
     19839      6613  TIP3      H2            -21.8641966405       39.7221177139      -17.6777396465  W2        6613            0.0000000000
     19840      6614  TIP3      OH2            -5.1757066405       49.6677177139      -28.6119496465  W2        6614            0.0000000000
     19841      6614  TIP3      H1             -5.0865966405       50.6115377139      -28.7442396465  W2        6614            0.0000000000
     19842      6614  TIP3      H2             -5.8139466405       49.3923577139      -29.2700096465  W2        6614            0.0000000000
     19843      6615  TIP3      OH2            -6.2425766405       48.9227877139      -25.1931296465  W2        6615            0.0000000000
     19844      6615  TIP3      H1             -6.2808266405       48.2764177139      -24.4881696465  W2        6615            0.0000000000
     19845      6615  TIP3      H2             -6.5649266405       48.4562277139      -25.9642596465  W2        6615            0.0000000000
     19846      6616  TIP3      OH2           -13.8740766405       48.5369977139      -23.6001396465  W2        6616            0.0000000000
     19847      6616  TIP3      H1            -13.8328666405       47.9113277139      -22.8768996465  W2        6616            0.0000000000
     19848      6616  TIP3      H2            -13.1713066405       49.1608577139      -23.4180996465  W2        6616            0.0000000000
     19849      6617  TIP3      OH2            -2.5365566405       51.8618277139      -26.8916196465  W2        6617            0.0000000000
     19850      6617  TIP3      H1             -2.9772866405       51.1414277139      -26.4410596465  W2        6617            0.0000000000
     19851      6617  TIP3      H2             -2.5495866405       52.5825477139      -26.2618496465  W2        6617            0.0000000000
     19852      6618  TIP3      OH2           -12.9507666405       52.9868877139      -25.0652296465  W2        6618            0.0000000000
     19853      6618  TIP3      H1            -13.3202466405       52.1849377139      -25.4347996465  W2        6618            0.0000000000
     19854      6618  TIP3      H2            -12.0096566405       52.8183777139      -25.0188896465  W2        6618            0.0000000000
     19855      6619  TIP3      OH2           -16.3407166405       46.6471477139      -29.6723496465  W2        6619            0.0000000000
     19856      6619  TIP3      H1            -16.7883766405       47.4930177139      -29.6906996465  W2        6619            0.0000000000
     19857      6619  TIP3      H2            -16.9015966405       46.0675677139      -30.1878396465  W2        6619            0.0000000000
     19858      6620  TIP3      OH2           -15.6301066405       48.8091077139      -27.5465496465  W2        6620            0.0000000000
     19859      6620  TIP3      H1            -15.4167566405       48.0392677139      -27.0192496465  W2        6620            0.0000000000
     19860      6620  TIP3      H2            -14.8923466405       48.8987777139      -28.1497896465  W2        6620            0.0000000000
     19861      6621  TIP3      OH2            -7.8531366405       51.3549277139      -24.7870296465  W2        6621            0.0000000000
     19862      6621  TIP3      H1             -7.5493466405       50.6690677139      -25.3816196465  W2        6621            0.0000000000
     19863      6621  TIP3      H2             -7.1317366405       51.4737977139      -24.1692296465  W2        6621            0.0000000000
     19864      6622  TIP3      OH2             0.8098433595       42.9564577139      -23.9264096465  W2        6622            0.0000000000
     19865      6622  TIP3      H1              0.8590633595       43.5665777139      -23.1904996465  W2        6622            0.0000000000
     19866      6622  TIP3      H2              1.2353533595       43.4175477139      -24.6492996465  W2        6622            0.0000000000
     19867      6623  TIP3      OH2            -4.7124366405       45.7491677139      -24.4595496465  W2        6623            0.0000000000
     19868      6623  TIP3      H1             -4.5698466405       44.8028677139      -24.4393896465  W2        6623            0.0000000000
     19869      6623  TIP3      H2             -4.8185366405       45.9561477139      -25.3880596465  W2        6623            0.0000000000
     19870      6624  TIP3      OH2           -11.5576066405       43.8508077139      -27.1870696465  W2        6624            0.0000000000
     19871      6624  TIP3      H1            -11.5144966405       44.7106577139      -27.6054396465  W2        6624            0.0000000000
     19872      6624  TIP3      H2            -12.0151966405       43.2982777139      -27.8207496465  W2        6624            0.0000000000
     19873      6625  TIP3      OH2            -3.8353366405       43.9813677139      -28.7862396465  W2        6625            0.0000000000
     19874      6625  TIP3      H1             -3.1889066405       43.6526877139      -28.1614796465  W2        6625            0.0000000000
     19875      6625  TIP3      H2             -3.3253966405       44.4992677139      -29.4090996465  W2        6625            0.0000000000
     19876      6626  TIP3      OH2           -14.9374566405       46.2473877139      -26.4249296465  W2        6626            0.0000000000
     19877      6626  TIP3      H1            -14.2837966405       45.6975577139      -25.9929196465  W2        6626            0.0000000000
     19878      6626  TIP3      H2            -14.9135266405       45.9732877139      -27.3417296465  W2        6626            0.0000000000
     19879      6627  TIP3      OH2            -9.7810066405       47.7975177139      -27.2097796465  W2        6627            0.0000000000
     19880      6627  TIP3      H1             -9.1649066405       47.2710577139      -26.7003796465  W2        6627            0.0000000000
     19881      6627  TIP3      H2            -10.3671266405       47.1573877139      -27.6134196465  W2        6627            0.0000000000
     19882      6628  TIP3      OH2             1.2013033595       44.4343777139      -21.6904296465  W2        6628            0.0000000000
     19883      6628  TIP3      H1              0.5127633595       45.0924477139      -21.7857696465  W2        6628            0.0000000000
     19884      6628  TIP3      H2              1.2167633595       44.2371677139      -20.7538896465  W2        6628            0.0000000000
     19885      6629  TIP3      OH2           -12.7474166405       42.7686477139      -23.1129896465  W2        6629            0.0000000000
     19886      6629  TIP3      H1            -12.9662466405       43.2987077139      -23.8793896465  W2        6629            0.0000000000
     19887      6629  TIP3      H2            -13.4153266405       42.9951977139      -22.4658496465  W2        6629            0.0000000000
     19888      6630  TIP3      OH2            -5.3784366405       52.2687577139      -29.5690796465  W2        6630            0.0000000000
     19889      6630  TIP3      H1             -5.6739266405       51.9459877139      -30.4203896465  W2        6630            0.0000000000
     19890      6630  TIP3      H2             -5.7026566405       53.1684277139      -29.5278196465  W2        6630            0.0000000000
     19891      6631  TIP3      OH2           -10.1782766405       50.4442177139      -22.8256196465  W2        6631            0.0000000000
     19892      6631  TIP3      H1            -10.9183666405       51.0423677139      -22.7220996465  W2        6631            0.0000000000
     19893      6631  TIP3      H2             -9.4643266405       50.9981777139      -23.1412596465  W2        6631            0.0000000000
     19894      6632  TIP3      OH2            -2.0714966405       43.2722977139      -26.8056496465  W2        6632            0.0000000000
     19895      6632  TIP3      H1             -2.2866966405       42.5066377139      -26.2730496465  W2        6632            0.0000000000
     19896      6632  TIP3      H2             -1.4157566405       43.7447577139      -26.2927996465  W2        6632            0.0000000000
     19897      6633  TIP3      OH2           -13.1536866405       44.6608277139      -25.1607696465  W2        6633            0.0000000000
     19898      6633  TIP3      H1            -12.5400566405       45.2935877139      -24.7875296465  W2        6633            0.0000000000
     19899      6633  TIP3      H2            -12.6416166405       44.1883277139      -25.8170796465  W2        6633            0.0000000000
     19900      6634  TIP3      OH2           -11.7708466405       52.4085177139      -22.0384696465  W2        6634            0.0000000000
     19901      6634  TIP3      H1            -11.7760866405       53.2878677139      -22.4165396465  W2        6634            0.0000000000
     19902      6634  TIP3      H2            -12.6244366405       52.3249277139      -21.6134796465  W2        6634            0.0000000000
     19903      6635  TIP3      OH2           -15.6497566405       52.0793077139      -31.2565396465  W2        6635            0.0000000000
     19904      6635  TIP3      H1            -15.9216666405       52.3084077139      -32.1452496465  W2        6635            0.0000000000
     19905      6635  TIP3      H2            -15.6041866405       52.9171877139      -30.7960096465  W2        6635            0.0000000000
     19906      6636  TIP3      OH2            -2.0247866405       53.7008977139      -24.5436896465  W2        6636            0.0000000000
     19907      6636  TIP3      H1             -2.9664166405       53.7592877139      -24.3819996465  W2        6636            0.0000000000
     19908      6636  TIP3      H2             -1.7481766405       54.6069477139      -24.6807196465  W2        6636            0.0000000000
     19909      6637  TIP3      OH2            -1.7240866405       41.9874277139      -23.1262996465  W2        6637            0.0000000000
     19910      6637  TIP3      H1             -2.4601666405       42.5981377139      -23.1641696465  W2        6637            0.0000000000
     19911      6637  TIP3      H2             -1.0406866405       42.4023277139      -23.6526596465  W2        6637            0.0000000000
     19912      6638  TIP3      OH2            -8.7209466405       40.0741577139      -25.6604996465  W2        6638            0.0000000000
     19913      6638  TIP3      H1             -8.8385266405       39.1257577139      -25.7146696465  W2        6638            0.0000000000
     19914      6638  TIP3      H2             -9.5759366405       40.4067677139      -25.3873896465  W2        6638            0.0000000000
     19915      6639  TIP3      OH2            -2.6130166405       53.3830977139      -29.4098696465  W2        6639            0.0000000000
     19916      6639  TIP3      H1             -2.8705366405       52.6931077139      -30.0212796465  W2        6639            0.0000000000
     19917      6639  TIP3      H2             -2.5419366405       52.9402177139      -28.5642796465  W2        6639            0.0000000000
     19918      6640  TIP3      OH2            -0.9269966405       51.9497677139      -20.9325196465  W2        6640            0.0000000000
     19919      6640  TIP3      H1             -0.7873666405       51.3580177139      -21.6718196465  W2        6640            0.0000000000
     19920      6640  TIP3      H2             -0.7597166405       52.8223577139      -21.2886396465  W2        6640            0.0000000000
     19921      6641  TIP3      OH2            -6.4544566405       48.9117177139      -31.1599196465  W2        6641            0.0000000000
     19922      6641  TIP3      H1             -7.1659066405       49.4466877139      -31.5118696465  W2        6641            0.0000000000
     19923      6641  TIP3      H2             -5.7634966405       48.9669277139      -31.8200296465  W2        6641            0.0000000000
     19924      6642  TIP3      OH2            -6.4005366405       47.3691477139      -34.1214196465  W2        6642            0.0000000000
     19925      6642  TIP3      H1             -5.6995466405       47.3918377139      -33.4700196465  W2        6642            0.0000000000
     19926      6642  TIP3      H2             -6.0982466405       46.7411177139      -34.7774896465  W2        6642            0.0000000000
     19927      6643  TIP3      OH2             0.9149333595       48.2895677139      -22.8664796465  W2        6643            0.0000000000
     19928      6643  TIP3      H1              0.2623433595       48.9841277139      -22.7773896465  W2        6643            0.0000000000
     19929      6643  TIP3      H2              1.3799633595       48.4996577139      -23.6763196465  W2        6643            0.0000000000
     19930      6644  TIP3      OH2            -3.0486866405       49.1210477139      -30.2083296465  W2        6644            0.0000000000
     19931      6644  TIP3      H1             -3.7805866405       49.3494177139      -29.6352696465  W2        6644            0.0000000000
     19932      6644  TIP3      H2             -2.6014666405       48.4073177139      -29.7535796465  W2        6644            0.0000000000
     19933      6645  TIP3      OH2            -3.1513366405       47.2953077139      -21.1406296465  W2        6645            0.0000000000
     19934      6645  TIP3      H1             -3.0714266405       48.0587477139      -20.5687796465  W2        6645            0.0000000000
     19935      6645  TIP3      H2             -3.7525666405       47.5745477139      -21.8311196465  W2        6645            0.0000000000
     19936      6646  TIP3      OH2           -11.4033166405       49.7516677139      -28.3258296465  W2        6646            0.0000000000
     19937      6646  TIP3      H1            -11.7337966405       49.3810077139      -29.1441296465  W2        6646            0.0000000000
     19938      6646  TIP3      H2            -10.8149066405       49.0810677139      -27.9789996465  W2        6646            0.0000000000
     19939      6647  TIP3      OH2           -10.0365666405       53.1797277139      -25.6446096465  W2        6647            0.0000000000
     19940      6647  TIP3      H1            -10.1314366405       52.6010377139      -26.4011496465  W2        6647            0.0000000000
     19941      6647  TIP3      H2             -9.3072066405       52.8082977139      -25.1483296465  W2        6647            0.0000000000
     19942      6648  TIP3      OH2           -11.0367666405       48.5202277139      -24.6923296465  W2        6648            0.0000000000
     19943      6648  TIP3      H1            -10.4715166405       48.6416477139      -25.4552096465  W2        6648            0.0000000000
     19944      6648  TIP3      H2            -10.7178766405       49.1577277139      -24.0534796465  W2        6648            0.0000000000
     19945      6649  TIP3      OH2            -4.7275466405       54.0234177139      -23.9582796465  W2        6649            0.0000000000
     19946      6649  TIP3      H1             -4.9678866405       54.6857277139      -23.3103596465  W2        6649            0.0000000000
     19947      6649  TIP3      H2             -4.9257266405       53.1889377139      -23.5333196465  W2        6649            0.0000000000
     19948      6650  TIP3      OH2           -10.1566966405       52.9194977139      -19.9751396465  W2        6650            0.0000000000
     19949      6650  TIP3      H1            -10.4679466405       53.7018177139      -19.5198196465  W2        6650            0.0000000000
     19950      6650  TIP3      H2            -10.8066766405       52.7664077139      -20.6609396465  W2        6650            0.0000000000
     19951      6651  TIP3      OH2            -4.1777366405       48.2833377139      -32.5232096465  W2        6651            0.0000000000
     19952      6651  TIP3      H1             -3.5981866405       48.4333677139      -31.7763196465  W2        6651            0.0000000000
     19953      6651  TIP3      H2             -3.7637366405       48.7540777139      -33.2465696465  W2        6651            0.0000000000
     19954      6652  TIP3      OH2           -13.2367066405       49.1176077139      -20.7465696465  W2        6652            0.0000000000
     19955      6652  TIP3      H1            -13.1663866405       49.7682877139      -20.0480696465  W2        6652            0.0000000000
     19956      6652  TIP3      H2            -14.1274866405       49.2203577139      -21.0814796465  W2        6652            0.0000000000
     19957      6653  TIP3      OH2           -11.9171066405       54.9909977139      -19.2117596465  W2        6653            0.0000000000
     19958      6653  TIP3      H1            -11.9095766405       54.8549677139      -20.1592096465  W2        6653            0.0000000000
     19959      6653  TIP3      H2            -12.8330666405       54.8738077139      -18.9597596465  W2        6653            0.0000000000
     19960      6654  TIP3      OH2            -0.4788966405       40.0333777139      -32.7102396465  W2        6654            0.0000000000
     19961      6654  TIP3      H1             -1.3788266405       40.1722777139      -32.4151796465  W2        6654            0.0000000000
     19962      6654  TIP3      H2             -0.2270566405       40.8648377139      -33.1120696465  W2        6654            0.0000000000
     19963      6655  TIP3      OH2           -12.4130466405       48.8210977139      -30.7365496465  W2        6655            0.0000000000
     19964      6655  TIP3      H1            -12.7049166405       49.5892677139      -31.2274196465  W2        6655            0.0000000000
     19965      6655  TIP3      H2            -13.0875266405       48.1617177139      -30.8994096465  W2        6655            0.0000000000
     19966      6656  TIP3      OH2             0.7102433595       54.3996177139      -34.3338496465  W2        6656            0.0000000000
     19967      6656  TIP3      H1              0.7835933595       55.3386377139      -34.1633196465  W2        6656            0.0000000000
     19968      6656  TIP3      H2              1.6157533595       54.0944777139      -34.3901196465  W2        6656            0.0000000000
     19969      6657  TIP3      OH2           -16.3200366405       51.1840177139      -21.9215696465  W2        6657            0.0000000000
     19970      6657  TIP3      H1            -16.8211966405       51.1559577139      -22.7365996465  W2        6657            0.0000000000
     19971      6657  TIP3      H2            -16.3146666405       50.2783377139      -21.6118396465  W2        6657            0.0000000000
     19972      6658  TIP3      OH2           -16.5697666405       53.9643977139      -25.0375496465  W2        6658            0.0000000000
     19973      6658  TIP3      H1            -15.6237066405       53.8200977139      -25.0565996465  W2        6658            0.0000000000
     19974      6658  TIP3      H2            -16.6821366405       54.7486777139      -24.5004296465  W2        6658            0.0000000000
     19975      6659  TIP3      OH2             1.6280833595       54.6303677139      -19.3551796465  W2        6659            0.0000000000
     19976      6659  TIP3      H1              1.5787633595       53.6751777139      -19.3924196465  W2        6659            0.0000000000
     19977      6659  TIP3      H2              0.8013133595       54.8978977139      -18.9537996465  W2        6659            0.0000000000
     19978      6660  TIP3      OH2            -7.3935166405       54.2042877139      -20.4790396465  W2        6660            0.0000000000
     19979      6660  TIP3      H1             -7.3060566405       55.0307477139      -20.0041296465  W2        6660            0.0000000000
     19980      6660  TIP3      H2             -8.2570066405       53.8746677139      -20.2301096465  W2        6660            0.0000000000
     19981      6661  TIP3      OH2            -1.2199366405       46.1236177139      -18.8749596465  W2        6661            0.0000000000
     19982      6661  TIP3      H1             -1.6272566405       46.6041777139      -19.5956296465  W2        6661            0.0000000000
     19983      6661  TIP3      H2             -1.1793666405       45.2182177139      -19.1828796465  W2        6661            0.0000000000
     19984      6662  TIP3      OH2           -14.0709866405       52.5075577139      -20.8782896465  W2        6662            0.0000000000
     19985      6662  TIP3      H1            -13.8548566405       52.1461177139      -20.0187096465  W2        6662            0.0000000000
     19986      6662  TIP3      H2            -14.9265166405       52.1329377139      -21.0879396465  W2        6662            0.0000000000
     19987      6663  TIP3      OH2           -11.4521866405       40.9776077139      -24.8828696465  W2        6663            0.0000000000
     19988      6663  TIP3      H1            -12.3138166405       40.8904277139      -25.2905796465  W2        6663            0.0000000000
     19989      6663  TIP3      H2            -11.4746166405       41.8336177139      -24.4551096465  W2        6663            0.0000000000
     19990      6664  TIP3      OH2            -6.7894066405       40.6996477139      -21.5081696465  W2        6664            0.0000000000
     19991      6664  TIP3      H1             -6.3690966405       40.2843577139      -20.7551096465  W2        6664            0.0000000000
     19992      6664  TIP3      H2             -7.7224466405       40.5209777139      -21.3909696465  W2        6664            0.0000000000
     19993      6665  TIP3      OH2            -3.4629166405       44.4551677139      -20.6547196465  W2        6665            0.0000000000
     19994      6665  TIP3      H1             -3.9769666405       44.3293877139      -19.8571196465  W2        6665            0.0000000000
     19995      6665  TIP3      H2             -3.6184466405       45.3674777139      -20.8990996465  W2        6665            0.0000000000
     19996      6666  TIP3      OH2            -2.7004266405       49.3161677139      -34.8934196465  W2        6666            0.0000000000
     19997      6666  TIP3      H1             -2.6583466405       49.0935577139      -35.8234196465  W2        6666            0.0000000000
     19998      6666  TIP3      H2             -1.8512166405       49.7148777139      -34.7034296465  W2        6666            0.0000000000
     19999      6667  TIP3      OH2            -7.1276766405       43.1919877139      -34.2230896465  W2        6667            0.0000000000
     20000      6667  TIP3      H1             -7.3811966405       43.2111477139      -33.3002796465  W2        6667            0.0000000000
     20001      6667  TIP3      H2             -7.3844666405       42.3205277139      -34.5244696465  W2        6667            0.0000000000
     20002      6668  TIP3      OH2           -11.3611766405       45.9430577139      -23.7878496465  W2        6668            0.0000000000
     20003      6668  TIP3      H1            -12.0029666405       45.9027877139      -23.0788396465  W2        6668            0.0000000000
     20004      6668  TIP3      H2            -11.3239766405       46.8695277139      -24.0255496465  W2        6668            0.0000000000
     20005      6669  TIP3      OH2           -11.3642666405       46.1640677139      -28.8758496465  W2        6669            0.0000000000
     20006      6669  TIP3      H1            -12.2569766405       45.8236777139      -28.9344696465  W2        6669            0.0000000000
     20007      6669  TIP3      H2            -10.9136066405       45.7871577139      -29.6315296465  W2        6669            0.0000000000
     20008      6670  TIP3      OH2            -5.8287166405       46.5800977139      -30.0587696465  W2        6670            0.0000000000
     20009      6670  TIP3      H1             -6.2376866405       47.3949577139      -30.3502896465  W2        6670            0.0000000000
     20010      6670  TIP3      H2             -5.1080966405       46.4401077139      -30.6730596465  W2        6670            0.0000000000
     20011      6671  TIP3      OH2            -6.7265566405       46.7557377139      -18.5706996465  W2        6671            0.0000000000
     20012      6671  TIP3      H1             -7.2891766405       46.0508977139      -18.2499196465  W2        6671            0.0000000000
     20013      6671  TIP3      H2             -5.9002166405       46.6349277139      -18.1029396465  W2        6671            0.0000000000
     20014      6672  TIP3      OH2            -4.8239466405       46.0261377139      -27.2447996465  W2        6672            0.0000000000
     20015      6672  TIP3      H1             -5.0194966405       46.6318177139      -27.9597396465  W2        6672            0.0000000000
     20016      6672  TIP3      H2             -4.6426866405       45.1926577139      -27.6791696465  W2        6672            0.0000000000
     20017      6673  TIP3      OH2           -13.6111266405       46.2634077139      -21.9206496465  W2        6673            0.0000000000
     20018      6673  TIP3      H1            -13.6491866405       46.6635677139      -21.0519396465  W2        6673            0.0000000000
     20019      6673  TIP3      H2            -14.1020166405       45.4466477139      -21.8303596465  W2        6673            0.0000000000
     20020      6674  TIP3      OH2           -10.2453866405       43.6376377139      -35.1220496465  W2        6674            0.0000000000
     20021      6674  TIP3      H1            -10.6763166405       43.1926477139      -34.3923096465  W2        6674            0.0000000000
     20022      6674  TIP3      H2            -10.9635166405       44.0092677139      -35.6342996465  W2        6674            0.0000000000
     20023      6675  TIP3      OH2           -17.0030466405       43.3795877139      -28.0701796465  W2        6675            0.0000000000
     20024      6675  TIP3      H1            -16.3722766405       43.3507977139      -27.3507896465  W2        6675            0.0000000000
     20025      6675  TIP3      H2            -16.5536166405       42.9544577139      -28.8005896465  W2        6675            0.0000000000
     20026      6676  TIP3      OH2           -15.7288366405       44.1257877139      -32.6461396465  W2        6676            0.0000000000
     20027      6676  TIP3      H1            -15.2546666405       44.7167777139      -33.2310496465  W2        6676            0.0000000000
     20028      6676  TIP3      H2            -16.4461966405       44.6560777139      -32.2991296465  W2        6676            0.0000000000
     20029      6677  TIP3      OH2            -5.5600266405       47.6642677139      -22.5735596465  W2        6677            0.0000000000
     20030      6677  TIP3      H1             -5.2365466405       47.0332377139      -23.2165096465  W2        6677            0.0000000000
     20031      6677  TIP3      H2             -6.0000966405       47.1294877139      -21.9128196465  W2        6677            0.0000000000
     20032      6678  TIP3      OH2            -8.7827366405       43.5918177139      -27.7894396465  W2        6678            0.0000000000
     20033      6678  TIP3      H1             -9.6936266405       43.6484977139      -27.5008396465  W2        6678            0.0000000000
     20034      6678  TIP3      H2             -8.2774466405       43.5313677139      -26.9787196465  W2        6678            0.0000000000
     20035      6679  TIP3      OH2           -13.9543966405       45.2204477139      -28.9626796465  W2        6679            0.0000000000
     20036      6679  TIP3      H1            -14.8435966405       45.3199977139      -29.3027196465  W2        6679            0.0000000000
     20037      6679  TIP3      H2            -13.6579066405       44.3787477139      -29.3088896465  W2        6679            0.0000000000
     20038      6680  TIP3      OH2           -10.3012166405       45.2207077139      -31.3062196465  W2        6680            0.0000000000
     20039      6680  TIP3      H1             -9.3696666405       45.3497077139      -31.1279096465  W2        6680            0.0000000000
     20040      6680  TIP3      H2            -10.5161866405       45.8901377139      -31.9557496465  W2        6680            0.0000000000
     20041      6681  TIP3      OH2            -4.3775466405       42.8264477139      -24.5252596465  W2        6681            0.0000000000
     20042      6681  TIP3      H1             -5.0543866405       42.9577577139      -23.8612896465  W2        6681            0.0000000000
     20043      6681  TIP3      H2             -4.8630566405       42.6713977139      -25.3354896465  W2        6681            0.0000000000
     20044      6682  TIP3      OH2           -11.6271966405       46.4149277139      -33.7396096465  W2        6682            0.0000000000
     20045      6682  TIP3      H1            -12.1696866405       46.0353077139      -34.4308496465  W2        6682            0.0000000000
     20046      6682  TIP3      H2            -10.7937066405       46.6093977139      -34.1681996465  W2        6682            0.0000000000
     20047      6683  TIP3      OH2           -13.4920566405       50.9721177139      -18.6404496465  W2        6683            0.0000000000
     20048      6683  TIP3      H1            -12.7598166405       51.2267077139      -18.0789996465  W2        6683            0.0000000000
     20049      6683  TIP3      H2            -14.2721866405       51.1766577139      -18.1249096465  W2        6683            0.0000000000
     20050      6684  TIP3      OH2            -7.4627666405       46.3791177139      -25.9024796465  W2        6684            0.0000000000
     20051      6684  TIP3      H1             -6.8984266405       45.8327777139      -26.4495196465  W2        6684            0.0000000000
     20052      6684  TIP3      H2             -7.6104266405       45.8573077139      -25.1137196465  W2        6684            0.0000000000
     20053      6685  TIP3      OH2           -12.4607966405       42.5157277139      -29.4839996465  W2        6685            0.0000000000
     20054      6685  TIP3      H1            -12.7778466405       41.6132577139      -29.5194596465  W2        6685            0.0000000000
     20055      6685  TIP3      H2            -11.6793866405       42.5174677139      -30.0368396465  W2        6685            0.0000000000
     20056      6686  TIP3      OH2            -8.8361766405       44.7677277139      -23.4884396465  W2        6686            0.0000000000
     20057      6686  TIP3      H1             -9.6716466405       45.2216777139      -23.3781996465  W2        6686            0.0000000000
     20058      6686  TIP3      H2             -8.3121166405       45.0435777139      -22.7364496465  W2        6686            0.0000000000
     20059      6687  TIP3      OH2            -8.2919166405       50.9804977139      -31.8037996465  W2        6687            0.0000000000
     20060      6687  TIP3      H1             -9.0368166405       50.4730277139      -32.1260096465  W2        6687            0.0000000000
     20061      6687  TIP3      H2             -8.4261966405       51.0292977139      -30.8573196465  W2        6687            0.0000000000
     20062      6688  TIP3      OH2            -1.1420266405       50.1133177139      -23.0170396465  W2        6688            0.0000000000
     20063      6688  TIP3      H1             -0.5001466405       50.5699477139      -23.5608196465  W2        6688            0.0000000000
     20064      6688  TIP3      H2             -1.9723366405       50.2265577139      -23.4796296465  W2        6688            0.0000000000
     20065      6689  TIP3      OH2            -4.3942366405       43.7944877139      -33.6045396465  W2        6689            0.0000000000
     20066      6689  TIP3      H1             -5.3328166405       43.9060477139      -33.7556596465  W2        6689            0.0000000000
     20067      6689  TIP3      H2             -4.0970266405       44.6511777139      -33.2979696465  W2        6689            0.0000000000
     20068      6690  TIP3      OH2            -6.7727066405       51.1648277139      -20.5668896465  W2        6690            0.0000000000
     20069      6690  TIP3      H1             -7.1180966405       50.7830677139      -19.7599296465  W2        6690            0.0000000000
     20070      6690  TIP3      H2             -6.9726966405       52.0981877139      -20.4955996465  W2        6690            0.0000000000
     20071      6691  TIP3      OH2            -3.6758866405       45.6617577139      -31.9437996465  W2        6691            0.0000000000
     20072      6691  TIP3      H1             -2.7839866405       45.5242577139      -31.6246796465  W2        6691            0.0000000000
     20073      6691  TIP3      H2             -3.6195266405       46.4523677139      -32.4804496465  W2        6691            0.0000000000
     20074      6692  TIP3      OH2           -13.1670866405       50.2754977139      -26.0340096465  W2        6692            0.0000000000
     20075      6692  TIP3      H1            -12.4223666405       50.2730677139      -26.6353596465  W2        6692            0.0000000000
     20076      6692  TIP3      H2            -13.0894266405       49.4518777139      -25.5524996465  W2        6692            0.0000000000
     20077      6693  TIP3      OH2            -6.1665066405       52.4389277139      -32.7783396465  W2        6693            0.0000000000
     20078      6693  TIP3      H1             -6.4616666405       53.2657177139      -32.3968596465  W2        6693            0.0000000000
     20079      6693  TIP3      H2             -6.8695066405       51.8196177139      -32.5821996465  W2        6693            0.0000000000
     20080      6694  TIP3      OH2           -16.1591166405       48.7361877139      -20.7191596465  W2        6694            0.0000000000
     20081      6694  TIP3      H1            -15.9362566405       48.3181477139      -19.8874096465  W2        6694            0.0000000000
     20082      6694  TIP3      H2            -16.7611066405       48.1236877139      -21.1418796465  W2        6694            0.0000000000
     20083      6695  TIP3      OH2            -9.1426266405       48.2531777139      -18.5061896465  W2        6695            0.0000000000
     20084      6695  TIP3      H1             -9.4385466405       48.0874777139      -19.4012796465  W2        6695            0.0000000000
     20085      6695  TIP3      H2             -8.2111066405       48.0332077139      -18.5167996465  W2        6695            0.0000000000
     20086      6696  TIP3      OH2            -4.5223466405       53.6263777139      -20.6163896465  W2        6696            0.0000000000
     20087      6696  TIP3      H1             -5.4229166405       53.8096377139      -20.8839996465  W2        6696            0.0000000000
     20088      6696  TIP3      H2             -4.4882366405       53.8853077139      -19.6955096465  W2        6696            0.0000000000
     20089      6697  TIP3      OH2             1.2089833595       45.8711677139      -32.2491296465  W2        6697            0.0000000000
     20090      6697  TIP3      H1              0.6546133595       45.4749677139      -32.9213796465  W2        6697            0.0000000000
     20091      6697  TIP3      H2              1.3093433595       46.7816877139      -32.5267996465  W2        6697            0.0000000000
     20092      6698  TIP3      OH2             1.1721833595       51.6713377139      -19.4119796465  W2        6698            0.0000000000
     20093      6698  TIP3      H1              0.3210333595       51.9097177139      -19.7793396465  W2        6698            0.0000000000
     20094      6698  TIP3      H2              1.7625233595       51.6546577139      -20.1652696465  W2        6698            0.0000000000
     20095      6699  TIP3      OH2            -0.4958466405       54.6572077139      -31.7839196465  W2        6699            0.0000000000
     20096      6699  TIP3      H1             -0.8687366405       53.8315877139      -31.4748596465  W2        6699            0.0000000000
     20097      6699  TIP3      H2             -0.2184966405       54.4741477139      -32.6815796465  W2        6699            0.0000000000
     20098      6700  TIP3      OH2            -3.3354566405       49.4651577139      -24.7627296465  W2        6700            0.0000000000
     20099      6700  TIP3      H1             -4.2637666405       49.2333477139      -24.7897996465  W2        6700            0.0000000000
     20100      6700  TIP3      H2             -2.8843466405       48.6881377139      -25.0928496465  W2        6700            0.0000000000
     20101      6701  TIP3      OH2           -10.7921466405       53.7933177139      -28.6298596465  W2        6701            0.0000000000
     20102      6701  TIP3      H1            -10.2649266405       54.5667577139      -28.8299796465  W2        6701            0.0000000000
     20103      6701  TIP3      H2            -11.6722966405       54.0182377139      -28.9314596465  W2        6701            0.0000000000
     20104      6702  TIP3      OH2           -15.0373766405       48.6557277139      -34.0426196465  W2        6702            0.0000000000
     20105      6702  TIP3      H1            -14.4213866405       49.2824477139      -33.6631396465  W2        6702            0.0000000000
     20106      6702  TIP3      H2            -15.8991166405       48.9717077139      -33.7709696465  W2        6702            0.0000000000
     20107      6703  TIP3      OH2            -9.3649166405       51.4563077139      -29.0534296465  W2        6703            0.0000000000
     20108      6703  TIP3      H1             -9.6059166405       52.3817477139      -29.0118996465  W2        6703            0.0000000000
     20109      6703  TIP3      H2            -10.1055566405       50.9974377139      -28.6570396465  W2        6703            0.0000000000
     20110      6704  TIP3      OH2            -5.3061766405       51.7047377139      -23.0377596465  W2        6704            0.0000000000
     20111      6704  TIP3      H1             -5.7320466405       51.4769077139      -22.2113596465  W2        6704            0.0000000000
     20112      6704  TIP3      H2             -4.7255966405       50.9659177139      -23.2202296465  W2        6704            0.0000000000
     20113      6705  TIP3      OH2            -3.1032866405       52.6337877139      -33.9638596465  W2        6705            0.0000000000
     20114      6705  TIP3      H1             -2.7499766405       52.2537677139      -33.1595096465  W2        6705            0.0000000000
     20115      6705  TIP3      H2             -4.0519366405       52.5402677139      -33.8769296465  W2        6705            0.0000000000
     20116      6706  TIP3      OH2           -14.5251666405       43.4894577139      -21.1610196465  W2        6706            0.0000000000
     20117      6706  TIP3      H1            -15.4179366405       43.8279977139      -21.2286196465  W2        6706            0.0000000000
     20118      6706  TIP3      H2            -14.6238866405       42.6340677139      -20.7429396465  W2        6706            0.0000000000
     20119      6707  TIP3      OH2            -2.2373566405       51.3059877139      -31.7370696465  W2        6707            0.0000000000
     20120      6707  TIP3      H1             -2.5145966405       50.5779177139      -31.1809596465  W2        6707            0.0000000000
     20121      6707  TIP3      H2             -1.3100566405       51.4251877139      -31.5318096465  W2        6707            0.0000000000
     20122      6708  TIP3      OH2            -9.0125066405       53.7453977139      -35.5168596465  W2        6708            0.0000000000
     20123      6708  TIP3      H1             -8.7735266405       52.9972077139      -36.0639696465  W2        6708            0.0000000000
     20124      6708  TIP3      H2             -9.2813766405       53.3575677139      -34.6840796465  W2        6708            0.0000000000
     20125      6709  TIP3      OH2           -10.0754466405       53.3157777139      -33.0605996465  W2        6709            0.0000000000
     20126      6709  TIP3      H1             -9.9286466405       52.7957577139      -32.2705096465  W2        6709            0.0000000000
     20127      6709  TIP3      H2            -10.0782766405       54.2225377139      -32.7540096465  W2        6709            0.0000000000
     20128      6710  TIP3      OH2           -13.6223366405       50.5681077139      -32.5500596465  W2        6710            0.0000000000
     20129      6710  TIP3      H1            -14.3084066405       50.9203577139      -31.9830896465  W2        6710            0.0000000000
     20130      6710  TIP3      H2            -13.0995466405       51.3310677139      -32.7966296465  W2        6710            0.0000000000
     20131      6711  TIP3      OH2            -5.7908266405       43.2304877139      -22.2711596465  W2        6711            0.0000000000
     20132      6711  TIP3      H1             -5.0920366405       43.3043577139      -21.6211896465  W2        6711            0.0000000000
     20133      6711  TIP3      H2             -6.1716866405       42.3659877139      -22.1168696465  W2        6711            0.0000000000
     20134      6712  TIP3      OH2            -5.0063366405       42.8826577139      -31.1739296465  W2        6712            0.0000000000
     20135      6712  TIP3      H1             -4.7865066405       43.3541977139      -31.9773896465  W2        6712            0.0000000000
     20136      6712  TIP3      H2             -4.4479366405       43.2769177139      -30.5038696465  W2        6712            0.0000000000
     20137      6713  TIP3      OH2            -7.8063466405       44.6105377139      -30.3390896465  W2        6713            0.0000000000
     20138      6713  TIP3      H1             -6.9940866405       45.1148577139      -30.2929196465  W2        6713            0.0000000000
     20139      6713  TIP3      H2             -8.0510466405       44.4655077139      -29.4251296465  W2        6713            0.0000000000
     20140      6714  TIP3      OH2            -7.2707066405       45.5968077139      -21.1544296465  W2        6714            0.0000000000
     20141      6714  TIP3      H1             -7.1516766405       46.1703477139      -20.3973896465  W2        6714            0.0000000000
     20142      6714  TIP3      H2             -6.6152466405       44.9087477139      -21.0396496465  W2        6714            0.0000000000
     20143      6715  TIP3      OH2            -6.9226766405       41.6918377139      -29.4009796465  W2        6715            0.0000000000
     20144      6715  TIP3      H1             -7.2693266405       42.3088977139      -28.7565496465  W2        6715            0.0000000000
     20145      6715  TIP3      H2             -6.2639866405       42.1924077139      -29.8824296465  W2        6715            0.0000000000
     20146      6716  TIP3      OH2           -11.2649766405       42.7547777139      -32.7137296465  W2        6716            0.0000000000
     20147      6716  TIP3      H1            -11.3484966405       43.6430877139      -32.3670896465  W2        6716            0.0000000000
     20148      6716  TIP3      H2            -10.3749466405       42.4894477139      -32.4820496465  W2        6716            0.0000000000
     20149      6717  TIP3      OH2            -1.0661266405       43.5038377139      -20.3194596465  W2        6717            0.0000000000
     20150      6717  TIP3      H1             -1.9825466405       43.7660077139      -20.4070896465  W2        6717            0.0000000000
     20151      6717  TIP3      H2             -0.7306266405       43.5007377139      -21.2159296465  W2        6717            0.0000000000
     20152      6718  TIP3      OH2            -2.4640266405       47.2539377139      -26.2237296465  W2        6718            0.0000000000
     20153      6718  TIP3      H1             -3.2615866405       46.8389577139      -26.5522296465  W2        6718            0.0000000000
     20154      6718  TIP3      H2             -2.0189166405       46.5633077139      -25.7326796465  W2        6718            0.0000000000
     20155      6719  TIP3      OH2           -13.0064466405       53.1819977139      -33.6532796465  W2        6719            0.0000000000
     20156      6719  TIP3      H1            -12.4142966405       53.8814777139      -33.3770396465  W2        6719            0.0000000000
     20157      6719  TIP3      H2            -12.5471466405       52.7489477139      -34.3728196465  W2        6719            0.0000000000
     20158      6720  TIP3      OH2           -14.6905266405       45.8462977139      -34.5373396465  W2        6720            0.0000000000
     20159      6720  TIP3      H1            -14.7352666405       46.7856077139      -34.3586396465  W2        6720            0.0000000000
     20160      6720  TIP3      H2            -15.5782066405       45.6107877139      -34.8071296465  W2        6720            0.0000000000
     20161      6721  TIP3      OH2           -13.8823266405       40.6279577139      -25.8642396465  W2        6721            0.0000000000
     20162      6721  TIP3      H1            -14.1113466405       40.6872077139      -26.7917396465  W2        6721            0.0000000000
     20163      6721  TIP3      H2            -14.3249866405       39.8365077139      -25.5578296465  W2        6721            0.0000000000
     20164      6722  TIP3      OH2           -14.9519966405       54.5686677139      -29.7036596465  W2        6722            0.0000000000
     20165      6722  TIP3      H1            -15.7841366405       55.0409377139      -29.6765196465  W2        6722            0.0000000000
     20166      6722  TIP3      H2            -14.4061666405       55.0784277139      -30.3023496465  W2        6722            0.0000000000
     20167      6723  TIP3      OH2            -4.4894166405       54.4805877139      -18.0242896465  W2        6723            0.0000000000
     20168      6723  TIP3      H1             -4.8404666405       53.6238877139      -17.7812496465  W2        6723            0.0000000000
     20169      6723  TIP3      H2             -3.7630966405       54.6232577139      -17.4173896465  W2        6723            0.0000000000
     20170      6724  TIP3      OH2           -15.7566766405       50.9914477139      -17.4194296465  W2        6724            0.0000000000
     20171      6724  TIP3      H1            -15.6126266405       50.0895177139      -17.7057596465  W2        6724            0.0000000000
     20172      6724  TIP3      H2            -16.5289366405       51.2776577139      -17.9071996465  W2        6724            0.0000000000
     20173      6725  TIP3      OH2           -11.4153066405       51.3350177139      -35.2869696465  W2        6725            0.0000000000
     20174      6725  TIP3      H1            -11.3508966405       50.5409777139      -34.7563296465  W2        6725            0.0000000000
     20175      6725  TIP3      H2            -10.7623866405       51.2162977139      -35.9767696465  W2        6725            0.0000000000
     20176      6726  TIP3      OH2            -9.1010666405       50.9612577139      -17.9867896465  W2        6726            0.0000000000
     20177      6726  TIP3      H1             -9.4296866405       51.2320677139      -18.8440496465  W2        6726            0.0000000000
     20178      6726  TIP3      H2             -8.9492466405       50.0202377139      -18.0742896465  W2        6726            0.0000000000
     20179      6727  TIP3      OH2            -6.0629666405       52.3821877139      -35.5511696465  W2        6727            0.0000000000
     20180      6727  TIP3      H1             -6.3315566405       52.5623977139      -34.6502796465  W2        6727            0.0000000000
     20181      6727  TIP3      H2             -6.2694066405       51.4568077139      -35.6825896465  W2        6727            0.0000000000
     20182      6728  TIP3      OH2            -3.3665466405       50.8769877139      -20.6035596465  W2        6728            0.0000000000
     20183      6728  TIP3      H1             -2.6210666405       51.4653577139      -20.7231596465  W2        6728            0.0000000000
     20184      6728  TIP3      H2             -4.1238666405       51.4589577139      -20.5402496465  W2        6728            0.0000000000
     20185      6729  TIP3      OH2           -14.9240266405       48.1917777139      -17.9994996465  W2        6729            0.0000000000
     20186      6729  TIP3      H1            -14.5159066405       47.3344377139      -18.1204396465  W2        6729            0.0000000000
     20187      6729  TIP3      H2            -15.1842666405       48.2059077139      -17.0784696465  W2        6729            0.0000000000
     20188      6730  TIP3      OH2           -10.2659266405       49.3076377139      -32.9811696465  W2        6730            0.0000000000
     20189      6730  TIP3      H1            -10.7257266405       48.8234677139      -32.2953196465  W2        6730            0.0000000000
     20190      6730  TIP3      H2            -10.0110566405       48.6391777139      -33.6171196465  W2        6730            0.0000000000
     20191      6731  TIP3      OH2           -10.9769966405       47.2003477139      -20.6252096465  W2        6731            0.0000000000
     20192      6731  TIP3      H1            -11.5953866405       47.8750077139      -20.3447396465  W2        6731            0.0000000000
     20193      6731  TIP3      H2            -10.6328766405       47.5217377139      -21.4585896465  W2        6731            0.0000000000
     20194      6732  TIP3      OH2            -9.1948866405       47.5508177139      -34.7188496465  W2        6732            0.0000000000
     20195      6732  TIP3      H1             -9.3753866405       47.3959377139      -35.6460196465  W2        6732            0.0000000000
     20196      6732  TIP3      H2             -8.2448366405       47.6586877139      -34.6740596465  W2        6732            0.0000000000
     20197      6733  TIP3      OH2            -5.9571766405       49.6718777139      -17.3477296465  W2        6733            0.0000000000
     20198      6733  TIP3      H1             -5.0040566405       49.7557877139      -17.3751296465  W2        6733            0.0000000000
     20199      6733  TIP3      H2             -6.1177166405       48.9600577139      -16.7282396465  W2        6733            0.0000000000
     20200      6734  TIP3      OH2             0.1949433595       49.9052377139      -35.2730396465  W2        6734            0.0000000000
     20201      6734  TIP3      H1             -0.0785766405       49.4807877139      -36.0862096465  W2        6734            0.0000000000
     20202      6734  TIP3      H2              0.2343533595       50.8366877139      -35.4899996465  W2        6734            0.0000000000
     20203      6735  TIP3      OH2           -10.6376266405       44.5554277139      -19.5428996465  W2        6735            0.0000000000
     20204      6735  TIP3      H1            -10.4875366405       43.8265577139      -20.1449296465  W2        6735            0.0000000000
     20205      6735  TIP3      H2            -10.6353866405       45.3325977139      -20.1016796465  W2        6735            0.0000000000
     20206      6736  TIP3      OH2           -10.2250566405       42.9250077139      -22.0501596465  W2        6736            0.0000000000
     20207      6736  TIP3      H1             -9.6893066405       43.3766777139      -22.7022296465  W2        6736            0.0000000000
     20208      6736  TIP3      H2            -11.0770966405       42.8169877139      -22.4727496465  W2        6736            0.0000000000
     20209      6737  TIP3      OH2            -8.6432166405       48.3646277139      -21.8106396465  W2        6737            0.0000000000
     20210      6737  TIP3      H1             -7.8927366405       48.2083777139      -22.3838596465  W2        6737            0.0000000000
     20211      6737  TIP3      H2             -8.9823866405       49.2162877139      -22.0860896465  W2        6737            0.0000000000
     20212      6738  TIP3      OH2            -4.2275966405       46.1798077139      -16.7821096465  W2        6738            0.0000000000
     20213      6738  TIP3      H1             -4.0354666405       45.2487477139      -16.8936596465  W2        6738            0.0000000000
     20214      6738  TIP3      H2             -3.3699666405       46.6047577139      -16.7925696465  W2        6738            0.0000000000
     20215      6739  TIP3      OH2            -2.9108766405       48.9683277139      -18.7048396465  W2        6739            0.0000000000
     20216      6739  TIP3      H1             -3.1923766405       49.6777877139      -19.2824596465  W2        6739            0.0000000000
     20217      6739  TIP3      H2             -1.9684466405       48.8956277139      -18.8557196465  W2        6739            0.0000000000
     20218      6740  TIP3      OH2           -12.1589966405       45.7537777139      -17.6313396465  W2        6740            0.0000000000
     20219      6740  TIP3      H1            -12.9260966405       45.2212577139      -17.8415796465  W2        6740            0.0000000000
     20220      6740  TIP3      H2            -11.4800966405       45.4438177139      -18.2307096465  W2        6740            0.0000000000
     20221      6741  TIP3      OH2            -9.4195066405       40.3815777139      -21.6187996465  W2        6741            0.0000000000
     20222      6741  TIP3      H1             -9.5175466405       41.3278977139      -21.7241796465  W2        6741            0.0000000000
     20223      6741  TIP3      H2            -10.1618866405       40.0089577139      -22.0944496465  W2        6741            0.0000000000
     20224      6742  TIP3      OH2            -8.1554566405       44.7031177139      -18.0549596465  W2        6742            0.0000000000
     20225      6742  TIP3      H1             -8.3909166405       44.4837877139      -17.1534696465  W2        6742            0.0000000000
     20226      6742  TIP3      H2             -8.9387666405       44.4962377139      -18.5647096465  W2        6742            0.0000000000
     20227      6743  TIP3      OH2            -5.4397966405       43.8304677139      -18.9796096465  W2        6743            0.0000000000
     20228      6743  TIP3      H1             -6.3872566405       43.8624377139      -18.8472796465  W2        6743            0.0000000000
     20229      6743  TIP3      H2             -5.1271266405       43.2051777139      -18.3257896465  W2        6743            0.0000000000
     20230      6744  TIP3      OH2            -3.8056466405       42.4645777139      -16.9744196465  W2        6744            0.0000000000
     20231      6744  TIP3      H1             -3.9024666405       41.5123077139      -16.9802296465  W2        6744            0.0000000000
     20232      6744  TIP3      H2             -4.1273366405       42.7332577139      -16.1138696465  W2        6744            0.0000000000
     20233      6745  TIP3      OH2           -13.9787166405       43.6741577139      -17.9268696465  W2        6745            0.0000000000
     20234      6745  TIP3      H1            -13.7669766405       42.9677677139      -18.5371196465  W2        6745            0.0000000000
     20235      6745  TIP3      H2            -14.0899666405       43.2367577139      -17.0827496465  W2        6745            0.0000000000
     20236      6746  TIP3      OH2            -9.1976966405       39.6753177139      -18.9475196465  W2        6746            0.0000000000
     20237      6746  TIP3      H1             -8.4858566405       39.0355377139      -18.9616096465  W2        6746            0.0000000000
     20238      6746  TIP3      H2             -9.2986566405       39.9421477139      -19.8612096465  W2        6746            0.0000000000
     20239      6747  TIP3      OH2            -8.8439466405       41.3581577139      -16.8938896465  W2        6747            0.0000000000
     20240      6747  TIP3      H1             -8.9757266405       40.8825377139      -17.7140396465  W2        6747            0.0000000000
     20241      6747  TIP3      H2             -9.4432066405       42.1025177139      -16.9491796465  W2        6747            0.0000000000
     20242      6748  TIP3      OH2           -15.7292266405       52.8775677139      -34.2346796465  W2        6748            0.0000000000
     20243      6748  TIP3      H1            -14.8153066405       52.9564577139      -33.9612896465  W2        6748            0.0000000000
     20244      6748  TIP3      H2            -15.7219166405       52.1905277139      -34.9011196465  W2        6748            0.0000000000
     20245      6749  TIP3      OH2            -0.6477466405       52.5176777139      -16.8122496465  W2        6749            0.0000000000
     20246      6749  TIP3      H1             -1.5136366405       52.4126477139      -16.4180196465  W2        6749            0.0000000000
     20247      6749  TIP3      H2             -0.2711566405       53.2760077139      -16.3657796465  W2        6749            0.0000000000
     20248      6750  TIP3      OH2             0.6532233595       50.7740477139      -31.2979996465  W2        6750            0.0000000000
     20249      6750  TIP3      H1              1.5033633595       51.1951377139      -31.1708396465  W2        6750            0.0000000000
     20250      6750  TIP3      H2              0.6587333595       50.0340577139      -30.6908596465  W2        6750            0.0000000000
     20251      6751  TIP3      OH2             1.0477833595       48.8277877139      -29.4744296465  W2        6751            0.0000000000
     20252      6751  TIP3      H1              0.3212433595       48.3480477139      -29.0766696465  W2        6751            0.0000000000
     20253      6751  TIP3      H2              1.6291133595       49.0332577139      -28.7422696465  W2        6751            0.0000000000
     20254      6752  TIP3      OH2             0.8069033595       51.6125377139      -24.5266696465  W2        6752            0.0000000000
     20255      6752  TIP3      H1              1.6403233595       51.2345377139      -24.8073096465  W2        6752            0.0000000000
     20256      6752  TIP3      H2              0.9189333595       52.5556577139      -24.6457596465  W2        6752            0.0000000000
     20257      6753  TIP3      OH2            -0.7068666405       54.4902877139      -22.2198296465  W2        6753            0.0000000000
     20258      6753  TIP3      H1             -1.3543366405       54.8154377139      -21.5943096465  W2        6753            0.0000000000
     20259      6753  TIP3      H2             -1.2244666405       54.0500577139      -22.8939996465  W2        6753            0.0000000000
     20260      6754  TIP3      OH2             1.3160933595       48.7286377139      -33.0832996465  W2        6754            0.0000000000
     20261      6754  TIP3      H1              0.7942033595       49.0850477139      -33.8022096465  W2        6754            0.0000000000
     20262      6754  TIP3      H2              1.2830133595       49.4034177139      -32.4052096465  W2        6754            0.0000000000
     20263      6755  TIP3      OH2            -0.3350066405       45.9681977139      -34.5325896465  W2        6755            0.0000000000
     20264      6755  TIP3      H1             -0.2385666405       46.6348977139      -35.2126196465  W2        6755            0.0000000000
     20265      6755  TIP3      H2             -0.4750466405       45.1528277139      -35.0140396465  W2        6755            0.0000000000
     20266      6756  TIP3      OH2            -1.1655366405       47.3484377139      -28.9115596465  W2        6756            0.0000000000
     20267      6756  TIP3      H1             -1.3156566405       46.4032977139      -28.9317796465  W2        6756            0.0000000000
     20268      6756  TIP3      H2             -1.5190866405       47.6295777139      -28.0676496465  W2        6756            0.0000000000
     20269      6757  TIP3      OH2           -16.1302966405       49.4266577139      -24.9011796465  W2        6757            0.0000000000
     20270      6757  TIP3      H1            -15.9460066405       49.3448277139      -25.8368896465  W2        6757            0.0000000000
     20271      6757  TIP3      H2            -15.2810066405       49.3023577139      -24.4775396465  W2        6757            0.0000000000
     20272      6758  TIP3      OH2            -0.3092466405       49.3187677139      -19.2727296465  W2        6758            0.0000000000
     20273      6758  TIP3      H1              0.2734833595       48.5839977139      -19.0810096465  W2        6758            0.0000000000
     20274      6758  TIP3      H2              0.2546833595       50.0907977139      -19.2261496465  W2        6758            0.0000000000
     20275      6759  TIP3      OH2             1.1874633595       47.2213477139      -18.5881896465  W2        6759            0.0000000000
     20276      6759  TIP3      H1              0.3241333595       46.8425577139      -18.7537196465  W2        6759            0.0000000000
     20277      6759  TIP3      H2              1.7918333595       46.4828277139      -18.6626096465  W2        6759            0.0000000000
     20278      6760  TIP3      OH2            -1.0876266405       43.3761777139      -35.4150396465  W2        6760            0.0000000000
     20279      6760  TIP3      H1             -0.4770466405       43.0048577139      -34.7782196465  W2        6760            0.0000000000
     20280      6760  TIP3      H2             -1.9244766405       42.9548677139      -35.2190396465  W2        6760            0.0000000000
     20281      6761  TIP3      OH2            -1.4550566405       44.9310177139      -30.4490496465  W2        6761            0.0000000000
     20282      6761  TIP3      H1             -1.1753466405       44.0240577139      -30.3248796465  W2        6761            0.0000000000
     20283      6761  TIP3      H2             -0.6958866405       45.3651677139      -30.8381296465  W2        6761            0.0000000000
     20284      6762  TIP3      OH2            -0.8432266405       45.5127577139      -25.0131596465  W2        6762            0.0000000000
     20285      6762  TIP3      H1              0.0895733595       45.7247477139      -25.0475596465  W2        6762            0.0000000000
     20286      6762  TIP3      H2             -1.0784766405       45.6139677139      -24.0908596465  W2        6762            0.0000000000
     20287      6763  TIP3      OH2            -0.8140366405       46.2492877139      -22.2372196465  W2        6763            0.0000000000
     20288      6763  TIP3      H1             -1.6569066405       46.5173277139      -21.8712396465  W2        6763            0.0000000000
     20289      6763  TIP3      H2             -0.3716066405       47.0714777139      -22.4481096465  W2        6763            0.0000000000
     20290      6764  TIP3      OH2           -16.5328166405       44.6971577139      -18.7602996465  W2        6764            0.0000000000
     20291      6764  TIP3      H1            -15.6133266405       44.5749877139      -18.5239896465  W2        6764            0.0000000000
     20292      6764  TIP3      H2            -16.9823666405       43.9471277139      -18.3709496465  W2        6764            0.0000000000
     20293      6765  TIP3      OH2             1.4691233595       40.2293077139      -16.8837196465  W2        6765            0.0000000000
     20294      6765  TIP3      H1              1.8188233595       39.5756577139      -17.4892496465  W2        6765            0.0000000000
     20295      6765  TIP3      H2              1.6160733595       41.0667177139      -17.3234596465  W2        6765            0.0000000000
     20296      6766  TIP3      OH2            -0.8415766405       42.1939477139      -30.4008496465  W2        6766            0.0000000000
     20297      6766  TIP3      H1             -0.6590766405       41.7450977139      -29.5753496465  W2        6766            0.0000000000
     20298      6766  TIP3      H2             -1.4412866405       41.6093877139      -30.8643896465  W2        6766            0.0000000000
     20299      6767  TIP3      OH2           -15.3115666405       43.0093177139      -25.8690096465  W2        6767            0.0000000000
     20300      6767  TIP3      H1            -14.8664066405       42.2175677139      -25.5670396465  W2        6767            0.0000000000
     20301      6767  TIP3      H2            -14.8452666405       43.7258377139      -25.4384496465  W2        6767            0.0000000000
     20302      6768  TIP3      OH2           -17.0075366405       46.0086177139      -24.7999896465  W2        6768            0.0000000000
     20303      6768  TIP3      H1            -16.5155566405       45.7876677139      -25.5907896465  W2        6768            0.0000000000
     20304      6768  TIP3      H2            -16.6454466405       46.8489577139      -24.5190396465  W2        6768            0.0000000000
     20305      6769  TIP3      OH2             0.9888433595       42.3387677139      -18.5345896465  W2        6769            0.0000000000
     20306      6769  TIP3      H1              0.0714133595       42.6094777139      -18.5702396465  W2        6769            0.0000000000
     20307      6769  TIP3      H2              1.1117833595       41.8036077139      -19.3186196465  W2        6769            0.0000000000
     20308      6770  TIP3      OH2             1.0250433595       42.2617577139      -33.8728196465  W2        6770            0.0000000000
     20309      6770  TIP3      H1              1.4373033595       41.5403277139      -34.3480196465  W2        6770            0.0000000000
     20310      6770  TIP3      H2              1.7066933595       42.9312177139      -33.8143896465  W2        6770            0.0000000000
     20311      6771  TIP3      OH2           -16.6938866405       42.2665277139      -30.7457496465  W2        6771            0.0000000000
     20312      6771  TIP3      H1            -17.6190466405       42.4751877139      -30.8751996465  W2        6771            0.0000000000
     20313      6771  TIP3      H2            -16.2398966405       42.7506077139      -31.4355196465  W2        6771            0.0000000000
     20314      6772  TIP3      OH2           -16.7303466405       41.0044277139      -22.4014996465  W2        6772            0.0000000000
     20315      6772  TIP3      H1            -17.3952966405       40.7584577139      -21.7584096465  W2        6772            0.0000000000
     20316      6772  TIP3      H2            -17.1732166405       41.6264677139      -22.9786996465  W2        6772            0.0000000000
     20317      6773  TIP3      OH2           -14.5384166405       54.1798377139      -18.2569196465  W2        6773            0.0000000000
     20318      6773  TIP3      H1            -15.3591666405       54.3544877139      -18.7174496465  W2        6773            0.0000000000
     20319      6773  TIP3      H2            -14.7906366405       54.1063077139      -17.3364796465  W2        6773            0.0000000000
     20320      6774  TIP3      OH2            -0.0105666405       40.4283977139      -20.7155096465  W2        6774            0.0000000000
     20321      6774  TIP3      H1             -0.8232166405       40.7534277139      -21.1030396465  W2        6774            0.0000000000
     20322      6774  TIP3      H2              0.2222833595       39.6682477139      -21.2485996465  W2        6774            0.0000000000
     20323      6775  TIP3      OH2            -6.5807166405       41.8774577139      -26.3926896465  W2        6775            0.0000000000
     20324      6775  TIP3      H1             -7.2550366405       41.2480177139      -26.1371096465  W2        6775            0.0000000000
     20325      6775  TIP3      H2             -6.0167966405       41.3933477139      -26.9958996465  W2        6775            0.0000000000
     20326      6776  TIP3      OH2            -1.4379966405       39.9848577139      -26.2799796465  W2        6776            0.0000000000
     20327      6776  TIP3      H1             -0.8342366405       40.5323977139      -26.7818796465  W2        6776            0.0000000000
     20328      6776  TIP3      H2             -2.3077966405       40.3038977139      -26.5205696465  W2        6776            0.0000000000
     20329      6777  TIP3      OH2             0.2890433595       41.1237277139      -27.9468896465  W2        6777            0.0000000000
     20330      6777  TIP3      H1              0.9007933595       40.6092977139      -28.4735296465  W2        6777            0.0000000000
     20331      6777  TIP3      H2              0.6713833595       42.0009377139      -27.9234496465  W2        6777            0.0000000000
     20332      6778  TIP3      OH2           -14.2539666405       40.5114877139      -28.5706996465  W2        6778            0.0000000000
     20333      6778  TIP3      H1            -15.0309866405       40.2769777139      -29.0781096465  W2        6778            0.0000000000
     20334      6778  TIP3      H2            -13.7236066405       39.7146977139      -28.5618996465  W2        6778            0.0000000000
     20335      6779  TIP3      OH2           -15.4176266405       40.3092977139      -32.7670896465  W2        6779            0.0000000000
     20336      6779  TIP3      H1            -14.9785566405       40.9203477139      -33.3587396465  W2        6779            0.0000000000
     20337      6779  TIP3      H2            -16.0513866405       40.8477077139      -32.2930896465  W2        6779            0.0000000000
     20338      6780  TIP3      OH2            -9.6747066405       40.4381977139      -28.7573896465  W2        6780            0.0000000000
     20339      6780  TIP3      H1             -8.8003666405       40.8266277139      -28.7869596465  W2        6780            0.0000000000
     20340      6780  TIP3      H2             -9.8106266405       40.2229777139      -27.8346696465  W2        6780            0.0000000000
     20341      6781  TIP3      OH2            -4.1178666405       40.4681777139      -27.1082196465  W2        6781            0.0000000000
     20342      6781  TIP3      H1             -4.0417066405       40.5633377139      -28.0576196465  W2        6781            0.0000000000
     20343      6781  TIP3      H2             -4.3929466405       39.5604677139      -26.9793096465  W2        6781            0.0000000000
     20344      6782  TIP3      OH2            -2.7646066405       40.4939577139      -31.4157196465  W2        6782            0.0000000000
     20345      6782  TIP3      H1             -3.4674966405       41.1088777139      -31.6255796465  W2        6782            0.0000000000
     20346      6782  TIP3      H2             -3.2094666405       39.6566277139      -31.2846296465  W2        6782            0.0000000000
     20347      6783  TIP3      OH2           -13.5567166405       42.2254477139      -34.3246796465  W2        6783            0.0000000000
     20348      6783  TIP3      H1            -13.0653766405       41.5956877139      -34.8521296465  W2        6783            0.0000000000
     20349      6783  TIP3      H2            -12.9330866405       42.5213877139      -33.6615596465  W2        6783            0.0000000000
     20350      6784  TIP3      OH2            -8.5307066405       42.5185977139      -31.8676296465  W2        6784            0.0000000000
     20351      6784  TIP3      H1             -8.3525766405       41.8719177139      -31.1847696465  W2        6784            0.0000000000
     20352      6784  TIP3      H2             -8.5840866405       43.3523677139      -31.4005196465  W2        6784            0.0000000000
     20353      6785  TIP3      OH2           -14.2961666405       41.0256777139      -19.0530796465  W2        6785            0.0000000000
     20354      6785  TIP3      H1            -14.6623466405       40.2599377139      -18.6106096465  W2        6785            0.0000000000
     20355      6785  TIP3      H2            -13.3833166405       41.0546977139      -18.7665696465  W2        6785            0.0000000000
     20356      6786  TIP3      OH2           -12.3230866405       40.3761177139      -17.5173696465  W2        6786            0.0000000000
     20357      6786  TIP3      H1            -11.4247266405       40.1021377139      -17.7020296465  W2        6786            0.0000000000
     20358      6786  TIP3      H2            -12.7097766405       39.6337177139      -17.0531096465  W2        6786            0.0000000000
     20359      6787  TIP3      OH2            -3.9018566405       39.7086477139      -17.3350896465  W2        6787            0.0000000000
     20360      6787  TIP3      H1             -3.8251366405       39.2827177139      -16.4813196465  W2        6787            0.0000000000
     20361      6787  TIP3      H2             -3.0081966405       39.7221177139      -17.6777396465  W2        6787            0.0000000000
     20362      6788  TIP3      OH2            13.6802933595       49.6677177139      -28.6119496465  W2        6788            0.0000000000
     20363      6788  TIP3      H1             13.7694033595       50.6115377139      -28.7442396465  W2        6788            0.0000000000
     20364      6788  TIP3      H2             13.0420533595       49.3923577139      -29.2700096465  W2        6788            0.0000000000
     20365      6789  TIP3      OH2            12.6134233595       48.9227877139      -25.1931296465  W2        6789            0.0000000000
     20366      6789  TIP3      H1             12.5751733595       48.2764177139      -24.4881696465  W2        6789            0.0000000000
     20367      6789  TIP3      H2             12.2910733595       48.4562277139      -25.9642596465  W2        6789            0.0000000000
     20368      6790  TIP3      OH2             4.9819233595       48.5369977139      -23.6001396465  W2        6790            0.0000000000
     20369      6790  TIP3      H1              5.0231333595       47.9113277139      -22.8768996465  W2        6790            0.0000000000
     20370      6790  TIP3      H2              5.6846933595       49.1608577139      -23.4180996465  W2        6790            0.0000000000
     20371      6791  TIP3      OH2            16.3194433595       51.8618277139      -26.8916196465  W2        6791            0.0000000000
     20372      6791  TIP3      H1             15.8787133595       51.1414277139      -26.4410596465  W2        6791            0.0000000000
     20373      6791  TIP3      H2             16.3064133595       52.5825477139      -26.2618496465  W2        6791            0.0000000000
     20374      6792  TIP3      OH2             5.9052333595       52.9868877139      -25.0652296465  W2        6792            0.0000000000
     20375      6792  TIP3      H1              5.5357533595       52.1849377139      -25.4347996465  W2        6792            0.0000000000
     20376      6792  TIP3      H2              6.8463433595       52.8183777139      -25.0188896465  W2        6792            0.0000000000
     20377      6793  TIP3      OH2             2.5152833595       46.6471477139      -29.6723496465  W2        6793            0.0000000000
     20378      6793  TIP3      H1              2.0676233595       47.4930177139      -29.6906996465  W2        6793            0.0000000000
     20379      6793  TIP3      H2              1.9544033595       46.0675677139      -30.1878396465  W2        6793            0.0000000000
     20380      6794  TIP3      OH2             3.2258933595       48.8091077139      -27.5465496465  W2        6794            0.0000000000
     20381      6794  TIP3      H1              3.4392433595       48.0392677139      -27.0192496465  W2        6794            0.0000000000
     20382      6794  TIP3      H2              3.9636533595       48.8987777139      -28.1497896465  W2        6794            0.0000000000
     20383      6795  TIP3      OH2            11.0028633595       51.3549277139      -24.7870296465  W2        6795            0.0000000000
     20384      6795  TIP3      H1             11.3066533595       50.6690677139      -25.3816196465  W2        6795            0.0000000000
     20385      6795  TIP3      H2             11.7242633595       51.4737977139      -24.1692296465  W2        6795            0.0000000000
     20386      6796  TIP3      OH2            19.6658433595       42.9564577139      -23.9264096465  W2        6796            0.0000000000
     20387      6796  TIP3      H1             19.7150633595       43.5665777139      -23.1904996465  W2        6796            0.0000000000
     20388      6796  TIP3      H2             20.0913533595       43.4175477139      -24.6492996465  W2        6796            0.0000000000
     20389      6797  TIP3      OH2            14.1435633595       45.7491677139      -24.4595496465  W2        6797            0.0000000000
     20390      6797  TIP3      H1             14.2861533595       44.8028677139      -24.4393896465  W2        6797            0.0000000000
     20391      6797  TIP3      H2             14.0374633595       45.9561477139      -25.3880596465  W2        6797            0.0000000000
     20392      6798  TIP3      OH2             7.2983933595       43.8508077139      -27.1870696465  W2        6798            0.0000000000
     20393      6798  TIP3      H1              7.3415033595       44.7106577139      -27.6054396465  W2        6798            0.0000000000
     20394      6798  TIP3      H2              6.8408033595       43.2982777139      -27.8207496465  W2        6798            0.0000000000
     20395      6799  TIP3      OH2            15.0206633595       43.9813677139      -28.7862396465  W2        6799            0.0000000000
     20396      6799  TIP3      H1             15.6670933595       43.6526877139      -28.1614796465  W2        6799            0.0000000000
     20397      6799  TIP3      H2             15.5306033595       44.4992677139      -29.4090996465  W2        6799            0.0000000000
     20398      6800  TIP3      OH2             3.9185433595       46.2473877139      -26.4249296465  W2        6800            0.0000000000
     20399      6800  TIP3      H1              4.5722033595       45.6975577139      -25.9929196465  W2        6800            0.0000000000
     20400      6800  TIP3      H2              3.9424733595       45.9732877139      -27.3417296465  W2        6800            0.0000000000
     20401      6801  TIP3      OH2             9.0749933595       47.7975177139      -27.2097796465  W2        6801            0.0000000000
     20402      6801  TIP3      H1              9.6910933595       47.2710577139      -26.7003796465  W2        6801            0.0000000000
     20403      6801  TIP3      H2              8.4888733595       47.1573877139      -27.6134196465  W2        6801            0.0000000000
     20404      6802  TIP3      OH2            20.0573033595       44.4343777139      -21.6904296465  W2        6802            0.0000000000
     20405      6802  TIP3      H1             19.3687633595       45.0924477139      -21.7857696465  W2        6802            0.0000000000
     20406      6802  TIP3      H2             20.0727633595       44.2371677139      -20.7538896465  W2        6802            0.0000000000
     20407      6803  TIP3      OH2             6.1085833595       42.7686477139      -23.1129896465  W2        6803            0.0000000000
     20408      6803  TIP3      H1              5.8897533595       43.2987077139      -23.8793896465  W2        6803            0.0000000000
     20409      6803  TIP3      H2              5.4406733595       42.9951977139      -22.4658496465  W2        6803            0.0000000000
     20410      6804  TIP3      OH2            13.4775633595       52.2687577139      -29.5690796465  W2        6804            0.0000000000
     20411      6804  TIP3      H1             13.1820733595       51.9459877139      -30.4203896465  W2        6804            0.0000000000
     20412      6804  TIP3      H2             13.1533433595       53.1684277139      -29.5278196465  W2        6804            0.0000000000
     20413      6805  TIP3      OH2             8.6777233595       50.4442177139      -22.8256196465  W2        6805            0.0000000000
     20414      6805  TIP3      H1              7.9376333595       51.0423677139      -22.7220996465  W2        6805            0.0000000000
     20415      6805  TIP3      H2              9.3916733595       50.9981777139      -23.1412596465  W2        6805            0.0000000000
     20416      6806  TIP3      OH2            16.7845033595       43.2722977139      -26.8056496465  W2        6806            0.0000000000
     20417      6806  TIP3      H1             16.5693033595       42.5066377139      -26.2730496465  W2        6806            0.0000000000
     20418      6806  TIP3      H2             17.4402433595       43.7447577139      -26.2927996465  W2        6806            0.0000000000
     20419      6807  TIP3      OH2             5.7023133595       44.6608277139      -25.1607696465  W2        6807            0.0000000000
     20420      6807  TIP3      H1              6.3159433595       45.2935877139      -24.7875296465  W2        6807            0.0000000000
     20421      6807  TIP3      H2              6.2143833595       44.1883277139      -25.8170796465  W2        6807            0.0000000000
     20422      6808  TIP3      OH2             7.0851533595       52.4085177139      -22.0384696465  W2        6808            0.0000000000
     20423      6808  TIP3      H1              7.0799133595       53.2878677139      -22.4165396465  W2        6808            0.0000000000
     20424      6808  TIP3      H2              6.2315633595       52.3249277139      -21.6134796465  W2        6808            0.0000000000
     20425      6809  TIP3      OH2             3.2062433595       52.0793077139      -31.2565396465  W2        6809            0.0000000000
     20426      6809  TIP3      H1              2.9343333595       52.3084077139      -32.1452496465  W2        6809            0.0000000000
     20427      6809  TIP3      H2              3.2518133595       52.9171877139      -30.7960096465  W2        6809            0.0000000000
     20428      6810  TIP3      OH2            16.8312133595       53.7008977139      -24.5436896465  W2        6810            0.0000000000
     20429      6810  TIP3      H1             15.8895833595       53.7592877139      -24.3819996465  W2        6810            0.0000000000
     20430      6810  TIP3      H2             17.1078233595       54.6069477139      -24.6807196465  W2        6810            0.0000000000
     20431      6811  TIP3      OH2            17.1319133595       41.9874277139      -23.1262996465  W2        6811            0.0000000000
     20432      6811  TIP3      H1             16.3958333595       42.5981377139      -23.1641696465  W2        6811            0.0000000000
     20433      6811  TIP3      H2             17.8153133595       42.4023277139      -23.6526596465  W2        6811            0.0000000000
     20434      6812  TIP3      OH2            10.1350533595       40.0741577139      -25.6604996465  W2        6812            0.0000000000
     20435      6812  TIP3      H1             10.0174733595       39.1257577139      -25.7146696465  W2        6812            0.0000000000
     20436      6812  TIP3      H2              9.2800633595       40.4067677139      -25.3873896465  W2        6812            0.0000000000
     20437      6813  TIP3      OH2            16.2429833595       53.3830977139      -29.4098696465  W2        6813            0.0000000000
     20438      6813  TIP3      H1             15.9854633595       52.6931077139      -30.0212796465  W2        6813            0.0000000000
     20439      6813  TIP3      H2             16.3140633595       52.9402177139      -28.5642796465  W2        6813            0.0000000000
     20440      6814  TIP3      OH2            17.9290033595       51.9497677139      -20.9325196465  W2        6814            0.0000000000
     20441      6814  TIP3      H1             18.0686333595       51.3580177139      -21.6718196465  W2        6814            0.0000000000
     20442      6814  TIP3      H2             18.0962833595       52.8223577139      -21.2886396465  W2        6814            0.0000000000
     20443      6815  TIP3      OH2            12.4015433595       48.9117177139      -31.1599196465  W2        6815            0.0000000000
     20444      6815  TIP3      H1             11.6900933595       49.4466877139      -31.5118696465  W2        6815            0.0000000000
     20445      6815  TIP3      H2             13.0925033595       48.9669277139      -31.8200296465  W2        6815            0.0000000000
     20446      6816  TIP3      OH2            12.4554633595       47.3691477139      -34.1214196465  W2        6816            0.0000000000
     20447      6816  TIP3      H1             13.1564533595       47.3918377139      -33.4700196465  W2        6816            0.0000000000
     20448      6816  TIP3      H2             12.7577533595       46.7411177139      -34.7774896465  W2        6816            0.0000000000
     20449      6817  TIP3      OH2            19.7709333595       48.2895677139      -22.8664796465  W2        6817            0.0000000000
     20450      6817  TIP3      H1             19.1183433595       48.9841277139      -22.7773896465  W2        6817            0.0000000000
     20451      6817  TIP3      H2             20.2359633595       48.4996577139      -23.6763196465  W2        6817            0.0000000000
     20452      6818  TIP3      OH2            15.8073133595       49.1210477139      -30.2083296465  W2        6818            0.0000000000
     20453      6818  TIP3      H1             15.0754133595       49.3494177139      -29.6352696465  W2        6818            0.0000000000
     20454      6818  TIP3      H2             16.2545333595       48.4073177139      -29.7535796465  W2        6818            0.0000000000
     20455      6819  TIP3      OH2            15.7046633595       47.2953077139      -21.1406296465  W2        6819            0.0000000000
     20456      6819  TIP3      H1             15.7845733595       48.0587477139      -20.5687796465  W2        6819            0.0000000000
     20457      6819  TIP3      H2             15.1034333595       47.5745477139      -21.8311196465  W2        6819            0.0000000000
     20458      6820  TIP3      OH2             7.4526833595       49.7516677139      -28.3258296465  W2        6820            0.0000000000
     20459      6820  TIP3      H1              7.1222033595       49.3810077139      -29.1441296465  W2        6820            0.0000000000
     20460      6820  TIP3      H2              8.0410933595       49.0810677139      -27.9789996465  W2        6820            0.0000000000
     20461      6821  TIP3      OH2             8.8194333595       53.1797277139      -25.6446096465  W2        6821            0.0000000000
     20462      6821  TIP3      H1              8.7245633595       52.6010377139      -26.4011496465  W2        6821            0.0000000000
     20463      6821  TIP3      H2              9.5487933595       52.8082977139      -25.1483296465  W2        6821            0.0000000000
     20464      6822  TIP3      OH2             7.8192333595       48.5202277139      -24.6923296465  W2        6822            0.0000000000
     20465      6822  TIP3      H1              8.3844833595       48.6416477139      -25.4552096465  W2        6822            0.0000000000
     20466      6822  TIP3      H2              8.1381233595       49.1577277139      -24.0534796465  W2        6822            0.0000000000
     20467      6823  TIP3      OH2            14.1284533595       54.0234177139      -23.9582796465  W2        6823            0.0000000000
     20468      6823  TIP3      H1             13.8881133595       54.6857277139      -23.3103596465  W2        6823            0.0000000000
     20469      6823  TIP3      H2             13.9302733595       53.1889377139      -23.5333196465  W2        6823            0.0000000000
     20470      6824  TIP3      OH2             8.6993033595       52.9194977139      -19.9751396465  W2        6824            0.0000000000
     20471      6824  TIP3      H1              8.3880533595       53.7018177139      -19.5198196465  W2        6824            0.0000000000
     20472      6824  TIP3      H2              8.0493233595       52.7664077139      -20.6609396465  W2        6824            0.0000000000
     20473      6825  TIP3      OH2            14.6782633595       48.2833377139      -32.5232096465  W2        6825            0.0000000000
     20474      6825  TIP3      H1             15.2578133595       48.4333677139      -31.7763196465  W2        6825            0.0000000000
     20475      6825  TIP3      H2             15.0922633595       48.7540777139      -33.2465696465  W2        6825            0.0000000000
     20476      6826  TIP3      OH2             5.6192933595       49.1176077139      -20.7465696465  W2        6826            0.0000000000
     20477      6826  TIP3      H1              5.6896133595       49.7682877139      -20.0480696465  W2        6826            0.0000000000
     20478      6826  TIP3      H2              4.7285133595       49.2203577139      -21.0814796465  W2        6826            0.0000000000
     20479      6827  TIP3      OH2             6.9388933595       54.9909977139      -19.2117596465  W2        6827            0.0000000000
     20480      6827  TIP3      H1              6.9464233595       54.8549677139      -20.1592096465  W2        6827            0.0000000000
     20481      6827  TIP3      H2              6.0229333595       54.8738077139      -18.9597596465  W2        6827            0.0000000000
     20482      6828  TIP3      OH2            18.3771033595       40.0333777139      -32.7102396465  W2        6828            0.0000000000
     20483      6828  TIP3      H1             17.4771733595       40.1722777139      -32.4151796465  W2        6828            0.0000000000
     20484      6828  TIP3      H2             18.6289433595       40.8648377139      -33.1120696465  W2        6828            0.0000000000
     20485      6829  TIP3      OH2             6.4429533595       48.8210977139      -30.7365496465  W2        6829            0.0000000000
     20486      6829  TIP3      H1              6.1510833595       49.5892677139      -31.2274196465  W2        6829            0.0000000000
     20487      6829  TIP3      H2              5.7684733595       48.1617177139      -30.8994096465  W2        6829            0.0000000000
     20488      6830  TIP3      OH2            19.5662433595       54.3996177139      -34.3338496465  W2        6830            0.0000000000
     20489      6830  TIP3      H1             19.6395933595       55.3386377139      -34.1633196465  W2        6830            0.0000000000
     20490      6830  TIP3      H2             20.4717533595       54.0944777139      -34.3901196465  W2        6830            0.0000000000
     20491      6831  TIP3      OH2             2.5359633595       51.1840177139      -21.9215696465  W2        6831            0.0000000000
     20492      6831  TIP3      H1              2.0348033595       51.1559577139      -22.7365996465  W2        6831            0.0000000000
     20493      6831  TIP3      H2              2.5413333595       50.2783377139      -21.6118396465  W2        6831            0.0000000000
     20494      6832  TIP3      OH2             2.2862333595       53.9643977139      -25.0375496465  W2        6832            0.0000000000
     20495      6832  TIP3      H1              3.2322933595       53.8200977139      -25.0565996465  W2        6832            0.0000000000
     20496      6832  TIP3      H2              2.1738633595       54.7486777139      -24.5004296465  W2        6832            0.0000000000
     20497      6833  TIP3      OH2            20.4840833595       54.6303677139      -19.3551796465  W2        6833            0.0000000000
     20498      6833  TIP3      H1             20.4347633595       53.6751777139      -19.3924196465  W2        6833            0.0000000000
     20499      6833  TIP3      H2             19.6573133595       54.8978977139      -18.9537996465  W2        6833            0.0000000000
     20500      6834  TIP3      OH2            11.4624833595       54.2042877139      -20.4790396465  W2        6834            0.0000000000
     20501      6834  TIP3      H1             11.5499433595       55.0307477139      -20.0041296465  W2        6834            0.0000000000
     20502      6834  TIP3      H2             10.5989933595       53.8746677139      -20.2301096465  W2        6834            0.0000000000
     20503      6835  TIP3      OH2            17.6360633595       46.1236177139      -18.8749596465  W2        6835            0.0000000000
     20504      6835  TIP3      H1             17.2287433595       46.6041777139      -19.5956296465  W2        6835            0.0000000000
     20505      6835  TIP3      H2             17.6766333595       45.2182177139      -19.1828796465  W2        6835            0.0000000000
     20506      6836  TIP3      OH2             4.7850133595       52.5075577139      -20.8782896465  W2        6836            0.0000000000
     20507      6836  TIP3      H1              5.0011433595       52.1461177139      -20.0187096465  W2        6836            0.0000000000
     20508      6836  TIP3      H2              3.9294833595       52.1329377139      -21.0879396465  W2        6836            0.0000000000
     20509      6837  TIP3      OH2             7.4038133595       40.9776077139      -24.8828696465  W2        6837            0.0000000000
     20510      6837  TIP3      H1              6.5421833595       40.8904277139      -25.2905796465  W2        6837            0.0000000000
     20511      6837  TIP3      H2              7.3813833595       41.8336177139      -24.4551096465  W2        6837            0.0000000000
     20512      6838  TIP3      OH2            12.0665933595       40.6996477139      -21.5081696465  W2        6838            0.0000000000
     20513      6838  TIP3      H1             12.4869033595       40.2843577139      -20.7551096465  W2        6838            0.0000000000
     20514      6838  TIP3      H2             11.1335533595       40.5209777139      -21.3909696465  W2        6838            0.0000000000
     20515      6839  TIP3      OH2            15.3930833595       44.4551677139      -20.6547196465  W2        6839            0.0000000000
     20516      6839  TIP3      H1             14.8790333595       44.3293877139      -19.8571196465  W2        6839            0.0000000000
     20517      6839  TIP3      H2             15.2375533595       45.3674777139      -20.8990996465  W2        6839            0.0000000000
     20518      6840  TIP3      OH2            16.1555733595       49.3161677139      -34.8934196465  W2        6840            0.0000000000
     20519      6840  TIP3      H1             16.1976533595       49.0935577139      -35.8234196465  W2        6840            0.0000000000
     20520      6840  TIP3      H2             17.0047833595       49.7148777139      -34.7034296465  W2        6840            0.0000000000
     20521      6841  TIP3      OH2            11.7283233595       43.1919877139      -34.2230896465  W2        6841            0.0000000000
     20522      6841  TIP3      H1             11.4748033595       43.2111477139      -33.3002796465  W2        6841            0.0000000000
     20523      6841  TIP3      H2             11.4715333595       42.3205277139      -34.5244696465  W2        6841            0.0000000000
     20524      6842  TIP3      OH2             7.4948233595       45.9430577139      -23.7878496465  W2        6842            0.0000000000
     20525      6842  TIP3      H1              6.8530333595       45.9027877139      -23.0788396465  W2        6842            0.0000000000
     20526      6842  TIP3      H2              7.5320233595       46.8695277139      -24.0255496465  W2        6842            0.0000000000
     20527      6843  TIP3      OH2             7.4917333595       46.1640677139      -28.8758496465  W2        6843            0.0000000000
     20528      6843  TIP3      H1              6.5990233595       45.8236777139      -28.9344696465  W2        6843            0.0000000000
     20529      6843  TIP3      H2              7.9423933595       45.7871577139      -29.6315296465  W2        6843            0.0000000000
     20530      6844  TIP3      OH2            13.0272833595       46.5800977139      -30.0587696465  W2        6844            0.0000000000
     20531      6844  TIP3      H1             12.6183133595       47.3949577139      -30.3502896465  W2        6844            0.0000000000
     20532      6844  TIP3      H2             13.7479033595       46.4401077139      -30.6730596465  W2        6844            0.0000000000
     20533      6845  TIP3      OH2            12.1294433595       46.7557377139      -18.5706996465  W2        6845            0.0000000000
     20534      6845  TIP3      H1             11.5668233595       46.0508977139      -18.2499196465  W2        6845            0.0000000000
     20535      6845  TIP3      H2             12.9557833595       46.6349277139      -18.1029396465  W2        6845            0.0000000000
     20536      6846  TIP3      OH2            14.0320533595       46.0261377139      -27.2447996465  W2        6846            0.0000000000
     20537      6846  TIP3      H1             13.8365033595       46.6318177139      -27.9597396465  W2        6846            0.0000000000
     20538      6846  TIP3      H2             14.2133133595       45.1926577139      -27.6791696465  W2        6846            0.0000000000
     20539      6847  TIP3      OH2             5.2448733595       46.2634077139      -21.9206496465  W2        6847            0.0000000000
     20540      6847  TIP3      H1              5.2068133595       46.6635677139      -21.0519396465  W2        6847            0.0000000000
     20541      6847  TIP3      H2              4.7539833595       45.4466477139      -21.8303596465  W2        6847            0.0000000000
     20542      6848  TIP3      OH2             8.6106133595       43.6376377139      -35.1220496465  W2        6848            0.0000000000
     20543      6848  TIP3      H1              8.1796833595       43.1926477139      -34.3923096465  W2        6848            0.0000000000
     20544      6848  TIP3      H2              7.8924833595       44.0092677139      -35.6342996465  W2        6848            0.0000000000
     20545      6849  TIP3      OH2             1.8529533595       43.3795877139      -28.0701796465  W2        6849            0.0000000000
     20546      6849  TIP3      H1              2.4837233595       43.3507977139      -27.3507896465  W2        6849            0.0000000000
     20547      6849  TIP3      H2              2.3023833595       42.9544577139      -28.8005896465  W2        6849            0.0000000000
     20548      6850  TIP3      OH2             3.1271633595       44.1257877139      -32.6461396465  W2        6850            0.0000000000
     20549      6850  TIP3      H1              3.6013333595       44.7167777139      -33.2310496465  W2        6850            0.0000000000
     20550      6850  TIP3      H2              2.4098033595       44.6560777139      -32.2991296465  W2        6850            0.0000000000
     20551      6851  TIP3      OH2            13.2959733595       47.6642677139      -22.5735596465  W2        6851            0.0000000000
     20552      6851  TIP3      H1             13.6194533595       47.0332377139      -23.2165096465  W2        6851            0.0000000000
     20553      6851  TIP3      H2             12.8559033595       47.1294877139      -21.9128196465  W2        6851            0.0000000000
     20554      6852  TIP3      OH2            10.0732633595       43.5918177139      -27.7894396465  W2        6852            0.0000000000
     20555      6852  TIP3      H1              9.1623733595       43.6484977139      -27.5008396465  W2        6852            0.0000000000
     20556      6852  TIP3      H2             10.5785533595       43.5313677139      -26.9787196465  W2        6852            0.0000000000
     20557      6853  TIP3      OH2             4.9016033595       45.2204477139      -28.9626796465  W2        6853            0.0000000000
     20558      6853  TIP3      H1              4.0124033595       45.3199977139      -29.3027196465  W2        6853            0.0000000000
     20559      6853  TIP3      H2              5.1980933595       44.3787477139      -29.3088896465  W2        6853            0.0000000000
     20560      6854  TIP3      OH2             8.5547833595       45.2207077139      -31.3062196465  W2        6854            0.0000000000
     20561      6854  TIP3      H1              9.4863333595       45.3497077139      -31.1279096465  W2        6854            0.0000000000
     20562      6854  TIP3      H2              8.3398133595       45.8901377139      -31.9557496465  W2        6854            0.0000000000
     20563      6855  TIP3      OH2            14.4784533595       42.8264477139      -24.5252596465  W2        6855            0.0000000000
     20564      6855  TIP3      H1             13.8016133595       42.9577577139      -23.8612896465  W2        6855            0.0000000000
     20565      6855  TIP3      H2             13.9929433595       42.6713977139      -25.3354896465  W2        6855            0.0000000000
     20566      6856  TIP3      OH2             7.2288033595       46.4149277139      -33.7396096465  W2        6856            0.0000000000
     20567      6856  TIP3      H1              6.6863133595       46.0353077139      -34.4308496465  W2        6856            0.0000000000
     20568      6856  TIP3      H2              8.0622933595       46.6093977139      -34.1681996465  W2        6856            0.0000000000
     20569      6857  TIP3      OH2             5.3639433595       50.9721177139      -18.6404496465  W2        6857            0.0000000000
     20570      6857  TIP3      H1              6.0961833595       51.2267077139      -18.0789996465  W2        6857            0.0000000000
     20571      6857  TIP3      H2              4.5838133595       51.1766577139      -18.1249096465  W2        6857            0.0000000000
     20572      6858  TIP3      OH2            11.3932333595       46.3791177139      -25.9024796465  W2        6858            0.0000000000
     20573      6858  TIP3      H1             11.9575733595       45.8327777139      -26.4495196465  W2        6858            0.0000000000
     20574      6858  TIP3      H2             11.2455733595       45.8573077139      -25.1137196465  W2        6858            0.0000000000
     20575      6859  TIP3      OH2             6.3952033595       42.5157277139      -29.4839996465  W2        6859            0.0000000000
     20576      6859  TIP3      H1              6.0781533595       41.6132577139      -29.5194596465  W2        6859            0.0000000000
     20577      6859  TIP3      H2              7.1766133595       42.5174677139      -30.0368396465  W2        6859            0.0000000000
     20578      6860  TIP3      OH2            10.0198233595       44.7677277139      -23.4884396465  W2        6860            0.0000000000
     20579      6860  TIP3      H1              9.1843533595       45.2216777139      -23.3781996465  W2        6860            0.0000000000
     20580      6860  TIP3      H2             10.5438833595       45.0435777139      -22.7364496465  W2        6860            0.0000000000
     20581      6861  TIP3      OH2            10.5640833595       50.9804977139      -31.8037996465  W2        6861            0.0000000000
     20582      6861  TIP3      H1              9.8191833595       50.4730277139      -32.1260096465  W2        6861            0.0000000000
     20583      6861  TIP3      H2             10.4298033595       51.0292977139      -30.8573196465  W2        6861            0.0000000000
     20584      6862  TIP3      OH2            17.7139733595       50.1133177139      -23.0170396465  W2        6862            0.0000000000
     20585      6862  TIP3      H1             18.3558533595       50.5699477139      -23.5608196465  W2        6862            0.0000000000
     20586      6862  TIP3      H2             16.8836633595       50.2265577139      -23.4796296465  W2        6862            0.0000000000
     20587      6863  TIP3      OH2            14.4617633595       43.7944877139      -33.6045396465  W2        6863            0.0000000000
     20588      6863  TIP3      H1             13.5231833595       43.9060477139      -33.7556596465  W2        6863            0.0000000000
     20589      6863  TIP3      H2             14.7589733595       44.6511777139      -33.2979696465  W2        6863            0.0000000000
     20590      6864  TIP3      OH2            12.0832933595       51.1648277139      -20.5668896465  W2        6864            0.0000000000
     20591      6864  TIP3      H1             11.7379033595       50.7830677139      -19.7599296465  W2        6864            0.0000000000
     20592      6864  TIP3      H2             11.8833033595       52.0981877139      -20.4955996465  W2        6864            0.0000000000
     20593      6865  TIP3      OH2            15.1801133595       45.6617577139      -31.9437996465  W2        6865            0.0000000000
     20594      6865  TIP3      H1             16.0720133595       45.5242577139      -31.6246796465  W2        6865            0.0000000000
     20595      6865  TIP3      H2             15.2364733595       46.4523677139      -32.4804496465  W2        6865            0.0000000000
     20596      6866  TIP3      OH2             5.6889133595       50.2754977139      -26.0340096465  W2        6866            0.0000000000
     20597      6866  TIP3      H1              6.4336333595       50.2730677139      -26.6353596465  W2        6866            0.0000000000
     20598      6866  TIP3      H2              5.7665733595       49.4518777139      -25.5524996465  W2        6866            0.0000000000
     20599      6867  TIP3      OH2            12.6894933595       52.4389277139      -32.7783396465  W2        6867            0.0000000000
     20600      6867  TIP3      H1             12.3943333595       53.2657177139      -32.3968596465  W2        6867            0.0000000000
     20601      6867  TIP3      H2             11.9864933595       51.8196177139      -32.5821996465  W2        6867            0.0000000000
     20602      6868  TIP3      OH2             2.6968833595       48.7361877139      -20.7191596465  W2        6868            0.0000000000
     20603      6868  TIP3      H1              2.9197433595       48.3181477139      -19.8874096465  W2        6868            0.0000000000
     20604      6868  TIP3      H2              2.0948933595       48.1236877139      -21.1418796465  W2        6868            0.0000000000
     20605      6869  TIP3      OH2             9.7133733595       48.2531777139      -18.5061896465  W2        6869            0.0000000000
     20606      6869  TIP3      H1              9.4174533595       48.0874777139      -19.4012796465  W2        6869            0.0000000000
     20607      6869  TIP3      H2             10.6448933595       48.0332077139      -18.5167996465  W2        6869            0.0000000000
     20608      6870  TIP3      OH2            14.3336533595       53.6263777139      -20.6163896465  W2        6870            0.0000000000
     20609      6870  TIP3      H1             13.4330833595       53.8096377139      -20.8839996465  W2        6870            0.0000000000
     20610      6870  TIP3      H2             14.3677633595       53.8853077139      -19.6955096465  W2        6870            0.0000000000
     20611      6871  TIP3      OH2            20.0649833595       45.8711677139      -32.2491296465  W2        6871            0.0000000000
     20612      6871  TIP3      H1             19.5106133595       45.4749677139      -32.9213796465  W2        6871            0.0000000000
     20613      6871  TIP3      H2             20.1653433595       46.7816877139      -32.5267996465  W2        6871            0.0000000000
     20614      6872  TIP3      OH2            20.0281833595       51.6713377139      -19.4119796465  W2        6872            0.0000000000
     20615      6872  TIP3      H1             19.1770333595       51.9097177139      -19.7793396465  W2        6872            0.0000000000
     20616      6872  TIP3      H2             20.6185233595       51.6546577139      -20.1652696465  W2        6872            0.0000000000
     20617      6873  TIP3      OH2            18.3601533595       54.6572077139      -31.7839196465  W2        6873            0.0000000000
     20618      6873  TIP3      H1             17.9872633595       53.8315877139      -31.4748596465  W2        6873            0.0000000000
     20619      6873  TIP3      H2             18.6375033595       54.4741477139      -32.6815796465  W2        6873            0.0000000000
     20620      6874  TIP3      OH2            15.5205433595       49.4651577139      -24.7627296465  W2        6874            0.0000000000
     20621      6874  TIP3      H1             14.5922333595       49.2333477139      -24.7897996465  W2        6874            0.0000000000
     20622      6874  TIP3      H2             15.9716533595       48.6881377139      -25.0928496465  W2        6874            0.0000000000
     20623      6875  TIP3      OH2             8.0638533595       53.7933177139      -28.6298596465  W2        6875            0.0000000000
     20624      6875  TIP3      H1              8.5910733595       54.5667577139      -28.8299796465  W2        6875            0.0000000000
     20625      6875  TIP3      H2              7.1837033595       54.0182377139      -28.9314596465  W2        6875            0.0000000000
     20626      6876  TIP3      OH2             3.8186233595       48.6557277139      -34.0426196465  W2        6876            0.0000000000
     20627      6876  TIP3      H1              4.4346133595       49.2824477139      -33.6631396465  W2        6876            0.0000000000
     20628      6876  TIP3      H2              2.9568833595       48.9717077139      -33.7709696465  W2        6876            0.0000000000
     20629      6877  TIP3      OH2             9.4910833595       51.4563077139      -29.0534296465  W2        6877            0.0000000000
     20630      6877  TIP3      H1              9.2500833595       52.3817477139      -29.0118996465  W2        6877            0.0000000000
     20631      6877  TIP3      H2              8.7504433595       50.9974377139      -28.6570396465  W2        6877            0.0000000000
     20632      6878  TIP3      OH2            13.5498233595       51.7047377139      -23.0377596465  W2        6878            0.0000000000
     20633      6878  TIP3      H1             13.1239533595       51.4769077139      -22.2113596465  W2        6878            0.0000000000
     20634      6878  TIP3      H2             14.1304033595       50.9659177139      -23.2202296465  W2        6878            0.0000000000
     20635      6879  TIP3      OH2            15.7527133595       52.6337877139      -33.9638596465  W2        6879            0.0000000000
     20636      6879  TIP3      H1             16.1060233595       52.2537677139      -33.1595096465  W2        6879            0.0000000000
     20637      6879  TIP3      H2             14.8040633595       52.5402677139      -33.8769296465  W2        6879            0.0000000000
     20638      6880  TIP3      OH2             4.3308333595       43.4894577139      -21.1610196465  W2        6880            0.0000000000
     20639      6880  TIP3      H1              3.4380633595       43.8279977139      -21.2286196465  W2        6880            0.0000000000
     20640      6880  TIP3      H2              4.2321133595       42.6340677139      -20.7429396465  W2        6880            0.0000000000
     20641      6881  TIP3      OH2            16.6186433595       51.3059877139      -31.7370696465  W2        6881            0.0000000000
     20642      6881  TIP3      H1             16.3414033595       50.5779177139      -31.1809596465  W2        6881            0.0000000000
     20643      6881  TIP3      H2             17.5459433595       51.4251877139      -31.5318096465  W2        6881            0.0000000000
     20644      6882  TIP3      OH2             9.8434933595       53.7453977139      -35.5168596465  W2        6882            0.0000000000
     20645      6882  TIP3      H1             10.0824733595       52.9972077139      -36.0639696465  W2        6882            0.0000000000
     20646      6882  TIP3      H2              9.5746233595       53.3575677139      -34.6840796465  W2        6882            0.0000000000
     20647      6883  TIP3      OH2             8.7805533595       53.3157777139      -33.0605996465  W2        6883            0.0000000000
     20648      6883  TIP3      H1              8.9273533595       52.7957577139      -32.2705096465  W2        6883            0.0000000000
     20649      6883  TIP3      H2              8.7777233595       54.2225377139      -32.7540096465  W2        6883            0.0000000000
     20650      6884  TIP3      OH2             5.2336633595       50.5681077139      -32.5500596465  W2        6884            0.0000000000
     20651      6884  TIP3      H1              4.5475933595       50.9203577139      -31.9830896465  W2        6884            0.0000000000
     20652      6884  TIP3      H2              5.7564533595       51.3310677139      -32.7966296465  W2        6884            0.0000000000
     20653      6885  TIP3      OH2            13.0651733595       43.2304877139      -22.2711596465  W2        6885            0.0000000000
     20654      6885  TIP3      H1             13.7639633595       43.3043577139      -21.6211896465  W2        6885            0.0000000000
     20655      6885  TIP3      H2             12.6843133595       42.3659877139      -22.1168696465  W2        6885            0.0000000000
     20656      6886  TIP3      OH2            13.8496633595       42.8826577139      -31.1739296465  W2        6886            0.0000000000
     20657      6886  TIP3      H1             14.0694933595       43.3541977139      -31.9773896465  W2        6886            0.0000000000
     20658      6886  TIP3      H2             14.4080633595       43.2769177139      -30.5038696465  W2        6886            0.0000000000
     20659      6887  TIP3      OH2            11.0496533595       44.6105377139      -30.3390896465  W2        6887            0.0000000000
     20660      6887  TIP3      H1             11.8619133595       45.1148577139      -30.2929196465  W2        6887            0.0000000000
     20661      6887  TIP3      H2             10.8049533595       44.4655077139      -29.4251296465  W2        6887            0.0000000000
     20662      6888  TIP3      OH2            11.5852933595       45.5968077139      -21.1544296465  W2        6888            0.0000000000
     20663      6888  TIP3      H1             11.7043233595       46.1703477139      -20.3973896465  W2        6888            0.0000000000
     20664      6888  TIP3      H2             12.2407533595       44.9087477139      -21.0396496465  W2        6888            0.0000000000
     20665      6889  TIP3      OH2            11.9333233595       41.6918377139      -29.4009796465  W2        6889            0.0000000000
     20666      6889  TIP3      H1             11.5866733595       42.3088977139      -28.7565496465  W2        6889            0.0000000000
     20667      6889  TIP3      H2             12.5920133595       42.1924077139      -29.8824296465  W2        6889            0.0000000000
     20668      6890  TIP3      OH2             7.5910233595       42.7547777139      -32.7137296465  W2        6890            0.0000000000
     20669      6890  TIP3      H1              7.5075033595       43.6430877139      -32.3670896465  W2        6890            0.0000000000
     20670      6890  TIP3      H2              8.4810533595       42.4894477139      -32.4820496465  W2        6890            0.0000000000
     20671      6891  TIP3      OH2            17.7898733595       43.5038377139      -20.3194596465  W2        6891            0.0000000000
     20672      6891  TIP3      H1             16.8734533595       43.7660077139      -20.4070896465  W2        6891            0.0000000000
     20673      6891  TIP3      H2             18.1253733595       43.5007377139      -21.2159296465  W2        6891            0.0000000000
     20674      6892  TIP3      OH2            16.3919733595       47.2539377139      -26.2237296465  W2        6892            0.0000000000
     20675      6892  TIP3      H1             15.5944133595       46.8389577139      -26.5522296465  W2        6892            0.0000000000
     20676      6892  TIP3      H2             16.8370833595       46.5633077139      -25.7326796465  W2        6892            0.0000000000
     20677      6893  TIP3      OH2             5.8495533595       53.1819977139      -33.6532796465  W2        6893            0.0000000000
     20678      6893  TIP3      H1              6.4417033595       53.8814777139      -33.3770396465  W2        6893            0.0000000000
     20679      6893  TIP3      H2              6.3088533595       52.7489477139      -34.3728196465  W2        6893            0.0000000000
     20680      6894  TIP3      OH2             4.1654733595       45.8462977139      -34.5373396465  W2        6894            0.0000000000
     20681      6894  TIP3      H1              4.1207333595       46.7856077139      -34.3586396465  W2        6894            0.0000000000
     20682      6894  TIP3      H2              3.2777933595       45.6107877139      -34.8071296465  W2        6894            0.0000000000
     20683      6895  TIP3      OH2             4.9736733595       40.6279577139      -25.8642396465  W2        6895            0.0000000000
     20684      6895  TIP3      H1              4.7446533595       40.6872077139      -26.7917396465  W2        6895            0.0000000000
     20685      6895  TIP3      H2              4.5310133595       39.8365077139      -25.5578296465  W2        6895            0.0000000000
     20686      6896  TIP3      OH2             3.9040033595       54.5686677139      -29.7036596465  W2        6896            0.0000000000
     20687      6896  TIP3      H1              3.0718633595       55.0409377139      -29.6765196465  W2        6896            0.0000000000
     20688      6896  TIP3      H2              4.4498333595       55.0784277139      -30.3023496465  W2        6896            0.0000000000
     20689      6897  TIP3      OH2            14.3665833595       54.4805877139      -18.0242896465  W2        6897            0.0000000000
     20690      6897  TIP3      H1             14.0155333595       53.6238877139      -17.7812496465  W2        6897            0.0000000000
     20691      6897  TIP3      H2             15.0929033595       54.6232577139      -17.4173896465  W2        6897            0.0000000000
     20692      6898  TIP3      OH2             3.0993233595       50.9914477139      -17.4194296465  W2        6898            0.0000000000
     20693      6898  TIP3      H1              3.2433733595       50.0895177139      -17.7057596465  W2        6898            0.0000000000
     20694      6898  TIP3      H2              2.3270633595       51.2776577139      -17.9071996465  W2        6898            0.0000000000
     20695      6899  TIP3      OH2             7.4406933595       51.3350177139      -35.2869696465  W2        6899            0.0000000000
     20696      6899  TIP3      H1              7.5051033595       50.5409777139      -34.7563296465  W2        6899            0.0000000000
     20697      6899  TIP3      H2              8.0936133595       51.2162977139      -35.9767696465  W2        6899            0.0000000000
     20698      6900  TIP3      OH2             9.7549333595       50.9612577139      -17.9867896465  W2        6900            0.0000000000
     20699      6900  TIP3      H1              9.4263133595       51.2320677139      -18.8440496465  W2        6900            0.0000000000
     20700      6900  TIP3      H2              9.9067533595       50.0202377139      -18.0742896465  W2        6900            0.0000000000
     20701      6901  TIP3      OH2            12.7930333595       52.3821877139      -35.5511696465  W2        6901            0.0000000000
     20702      6901  TIP3      H1             12.5244433595       52.5623977139      -34.6502796465  W2        6901            0.0000000000
     20703      6901  TIP3      H2             12.5865933595       51.4568077139      -35.6825896465  W2        6901            0.0000000000
     20704      6902  TIP3      OH2            15.4894533595       50.8769877139      -20.6035596465  W2        6902            0.0000000000
     20705      6902  TIP3      H1             16.2349333595       51.4653577139      -20.7231596465  W2        6902            0.0000000000
     20706      6902  TIP3      H2             14.7321333595       51.4589577139      -20.5402496465  W2        6902            0.0000000000
     20707      6903  TIP3      OH2             3.9319733595       48.1917777139      -17.9994996465  W2        6903            0.0000000000
     20708      6903  TIP3      H1              4.3400933595       47.3344377139      -18.1204396465  W2        6903            0.0000000000
     20709      6903  TIP3      H2              3.6717333595       48.2059077139      -17.0784696465  W2        6903            0.0000000000
     20710      6904  TIP3      OH2             8.5900733595       49.3076377139      -32.9811696465  W2        6904            0.0000000000
     20711      6904  TIP3      H1              8.1302733595       48.8234677139      -32.2953196465  W2        6904            0.0000000000
     20712      6904  TIP3      H2              8.8449433595       48.6391777139      -33.6171196465  W2        6904            0.0000000000
     20713      6905  TIP3      OH2             7.8790033595       47.2003477139      -20.6252096465  W2        6905            0.0000000000
     20714      6905  TIP3      H1              7.2606133595       47.8750077139      -20.3447396465  W2        6905            0.0000000000
     20715      6905  TIP3      H2              8.2231233595       47.5217377139      -21.4585896465  W2        6905            0.0000000000
     20716      6906  TIP3      OH2             9.6611133595       47.5508177139      -34.7188496465  W2        6906            0.0000000000
     20717      6906  TIP3      H1              9.4806133595       47.3959377139      -35.6460196465  W2        6906            0.0000000000
     20718      6906  TIP3      H2             10.6111633595       47.6586877139      -34.6740596465  W2        6906            0.0000000000
     20719      6907  TIP3      OH2            12.8988233595       49.6718777139      -17.3477296465  W2        6907            0.0000000000
     20720      6907  TIP3      H1             13.8519433595       49.7557877139      -17.3751296465  W2        6907            0.0000000000
     20721      6907  TIP3      H2             12.7382833595       48.9600577139      -16.7282396465  W2        6907            0.0000000000
     20722      6908  TIP3      OH2            19.0509433595       49.9052377139      -35.2730396465  W2        6908            0.0000000000
     20723      6908  TIP3      H1             18.7774233595       49.4807877139      -36.0862096465  W2        6908            0.0000000000
     20724      6908  TIP3      H2             19.0903533595       50.8366877139      -35.4899996465  W2        6908            0.0000000000
     20725      6909  TIP3      OH2             8.2183733595       44.5554277139      -19.5428996465  W2        6909            0.0000000000
     20726      6909  TIP3      H1              8.3684633595       43.8265577139      -20.1449296465  W2        6909            0.0000000000
     20727      6909  TIP3      H2              8.2206133595       45.3325977139      -20.1016796465  W2        6909            0.0000000000
     20728      6910  TIP3      OH2             8.6309433595       42.9250077139      -22.0501596465  W2        6910            0.0000000000
     20729      6910  TIP3      H1              9.1666933595       43.3766777139      -22.7022296465  W2        6910            0.0000000000
     20730      6910  TIP3      H2              7.7789033595       42.8169877139      -22.4727496465  W2        6910            0.0000000000
     20731      6911  TIP3      OH2            10.2127833595       48.3646277139      -21.8106396465  W2        6911            0.0000000000
     20732      6911  TIP3      H1             10.9632633595       48.2083777139      -22.3838596465  W2        6911            0.0000000000
     20733      6911  TIP3      H2              9.8736133595       49.2162877139      -22.0860896465  W2        6911            0.0000000000
     20734      6912  TIP3      OH2            14.6284033595       46.1798077139      -16.7821096465  W2        6912            0.0000000000
     20735      6912  TIP3      H1             14.8205333595       45.2487477139      -16.8936596465  W2        6912            0.0000000000
     20736      6912  TIP3      H2             15.4860333595       46.6047577139      -16.7925696465  W2        6912            0.0000000000
     20737      6913  TIP3      OH2            15.9451233595       48.9683277139      -18.7048396465  W2        6913            0.0000000000
     20738      6913  TIP3      H1             15.6636233595       49.6777877139      -19.2824596465  W2        6913            0.0000000000
     20739      6913  TIP3      H2             16.8875533595       48.8956277139      -18.8557196465  W2        6913            0.0000000000
     20740      6914  TIP3      OH2             6.6970033595       45.7537777139      -17.6313396465  W2        6914            0.0000000000
     20741      6914  TIP3      H1              5.9299033595       45.2212577139      -17.8415796465  W2        6914            0.0000000000
     20742      6914  TIP3      H2              7.3759033595       45.4438177139      -18.2307096465  W2        6914            0.0000000000
     20743      6915  TIP3      OH2             9.4364933595       40.3815777139      -21.6187996465  W2        6915            0.0000000000
     20744      6915  TIP3      H1              9.3384533595       41.3278977139      -21.7241796465  W2        6915            0.0000000000
     20745      6915  TIP3      H2              8.6941133595       40.0089577139      -22.0944496465  W2        6915            0.0000000000
     20746      6916  TIP3      OH2            10.7005433595       44.7031177139      -18.0549596465  W2        6916            0.0000000000
     20747      6916  TIP3      H1             10.4650833595       44.4837877139      -17.1534696465  W2        6916            0.0000000000
     20748      6916  TIP3      H2              9.9172333595       44.4962377139      -18.5647096465  W2        6916            0.0000000000
     20749      6917  TIP3      OH2            13.4162033595       43.8304677139      -18.9796096465  W2        6917            0.0000000000
     20750      6917  TIP3      H1             12.4687433595       43.8624377139      -18.8472796465  W2        6917            0.0000000000
     20751      6917  TIP3      H2             13.7288733595       43.2051777139      -18.3257896465  W2        6917            0.0000000000
     20752      6918  TIP3      OH2            15.0503533595       42.4645777139      -16.9744196465  W2        6918            0.0000000000
     20753      6918  TIP3      H1             14.9535333595       41.5123077139      -16.9802296465  W2        6918            0.0000000000
     20754      6918  TIP3      H2             14.7286633595       42.7332577139      -16.1138696465  W2        6918            0.0000000000
     20755      6919  TIP3      OH2             4.8772833595       43.6741577139      -17.9268696465  W2        6919            0.0000000000
     20756      6919  TIP3      H1              5.0890233595       42.9677677139      -18.5371196465  W2        6919            0.0000000000
     20757      6919  TIP3      H2              4.7660333595       43.2367577139      -17.0827496465  W2        6919            0.0000000000
     20758      6920  TIP3      OH2             9.6583033595       39.6753177139      -18.9475196465  W2        6920            0.0000000000
     20759      6920  TIP3      H1             10.3701433595       39.0355377139      -18.9616096465  W2        6920            0.0000000000
     20760      6920  TIP3      H2              9.5573433595       39.9421477139      -19.8612096465  W2        6920            0.0000000000
     20761      6921  TIP3      OH2            10.0120533595       41.3581577139      -16.8938896465  W2        6921            0.0000000000
     20762      6921  TIP3      H1              9.8802733595       40.8825377139      -17.7140396465  W2        6921            0.0000000000
     20763      6921  TIP3      H2              9.4127933595       42.1025177139      -16.9491796465  W2        6921            0.0000000000
     20764      6922  TIP3      OH2             3.1267733595       52.8775677139      -34.2346796465  W2        6922            0.0000000000
     20765      6922  TIP3      H1              4.0406933595       52.9564577139      -33.9612896465  W2        6922            0.0000000000
     20766      6922  TIP3      H2              3.1340833595       52.1905277139      -34.9011196465  W2        6922            0.0000000000
     20767      6923  TIP3      OH2            18.2082533595       52.5176777139      -16.8122496465  W2        6923            0.0000000000
     20768      6923  TIP3      H1             17.3423633595       52.4126477139      -16.4180196465  W2        6923            0.0000000000
     20769      6923  TIP3      H2             18.5848433595       53.2760077139      -16.3657796465  W2        6923            0.0000000000
     20770      6924  TIP3      OH2            19.5092233595       50.7740477139      -31.2979996465  W2        6924            0.0000000000
     20771      6924  TIP3      H1             20.3593633595       51.1951377139      -31.1708396465  W2        6924            0.0000000000
     20772      6924  TIP3      H2             19.5147333595       50.0340577139      -30.6908596465  W2        6924            0.0000000000
     20773      6925  TIP3      OH2            19.9037833595       48.8277877139      -29.4744296465  W2        6925            0.0000000000
     20774      6925  TIP3      H1             19.1772433595       48.3480477139      -29.0766696465  W2        6925            0.0000000000
     20775      6925  TIP3      H2             20.4851133595       49.0332577139      -28.7422696465  W2        6925            0.0000000000
     20776      6926  TIP3      OH2            19.6629033595       51.6125377139      -24.5266696465  W2        6926            0.0000000000
     20777      6926  TIP3      H1             20.4963233595       51.2345377139      -24.8073096465  W2        6926            0.0000000000
     20778      6926  TIP3      H2             19.7749333595       52.5556577139      -24.6457596465  W2        6926            0.0000000000
     20779      6927  TIP3      OH2            18.1491333595       54.4902877139      -22.2198296465  W2        6927            0.0000000000
     20780      6927  TIP3      H1             17.5016633595       54.8154377139      -21.5943096465  W2        6927            0.0000000000
     20781      6927  TIP3      H2             17.6315333595       54.0500577139      -22.8939996465  W2        6927            0.0000000000
     20782      6928  TIP3      OH2            20.1720933595       48.7286377139      -33.0832996465  W2        6928            0.0000000000
     20783      6928  TIP3      H1             19.6502033595       49.0850477139      -33.8022096465  W2        6928            0.0000000000
     20784      6928  TIP3      H2             20.1390133595       49.4034177139      -32.4052096465  W2        6928            0.0000000000
     20785      6929  TIP3      OH2            18.5209933595       45.9681977139      -34.5325896465  W2        6929            0.0000000000
     20786      6929  TIP3      H1             18.6174333595       46.6348977139      -35.2126196465  W2        6929            0.0000000000
     20787      6929  TIP3      H2             18.3809533595       45.1528277139      -35.0140396465  W2        6929            0.0000000000
     20788      6930  TIP3      OH2            17.6904633595       47.3484377139      -28.9115596465  W2        6930            0.0000000000
     20789      6930  TIP3      H1             17.5403433595       46.4032977139      -28.9317796465  W2        6930            0.0000000000
     20790      6930  TIP3      H2             17.3369133595       47.6295777139      -28.0676496465  W2        6930            0.0000000000
     20791      6931  TIP3      OH2             2.7257033595       49.4266577139      -24.9011796465  W2        6931            0.0000000000
     20792      6931  TIP3      H1              2.9099933595       49.3448277139      -25.8368896465  W2        6931            0.0000000000
     20793      6931  TIP3      H2              3.5749933595       49.3023577139      -24.4775396465  W2        6931            0.0000000000
     20794      6932  TIP3      OH2            18.5467533595       49.3187677139      -19.2727296465  W2        6932            0.0000000000
     20795      6932  TIP3      H1             19.1294833595       48.5839977139      -19.0810096465  W2        6932            0.0000000000
     20796      6932  TIP3      H2             19.1106833595       50.0907977139      -19.2261496465  W2        6932            0.0000000000
     20797      6933  TIP3      OH2            20.0434633595       47.2213477139      -18.5881896465  W2        6933            0.0000000000
     20798      6933  TIP3      H1             19.1801333595       46.8425577139      -18.7537196465  W2        6933            0.0000000000
     20799      6933  TIP3      H2             20.6478333595       46.4828277139      -18.6626096465  W2        6933            0.0000000000
     20800      6934  TIP3      OH2            17.7683733595       43.3761777139      -35.4150396465  W2        6934            0.0000000000
     20801      6934  TIP3      H1             18.3789533595       43.0048577139      -34.7782196465  W2        6934            0.0000000000
     20802      6934  TIP3      H2             16.9315233595       42.9548677139      -35.2190396465  W2        6934            0.0000000000
     20803      6935  TIP3      OH2            17.4009433595       44.9310177139      -30.4490496465  W2        6935            0.0000000000
     20804      6935  TIP3      H1             17.6806533595       44.0240577139      -30.3248796465  W2        6935            0.0000000000
     20805      6935  TIP3      H2             18.1601133595       45.3651677139      -30.8381296465  W2        6935            0.0000000000
     20806      6936  TIP3      OH2            18.0127733595       45.5127577139      -25.0131596465  W2        6936            0.0000000000
     20807      6936  TIP3      H1             18.9455733595       45.7247477139      -25.0475596465  W2        6936            0.0000000000
     20808      6936  TIP3      H2             17.7775233595       45.6139677139      -24.0908596465  W2        6936            0.0000000000
     20809      6937  TIP3      OH2            18.0419633595       46.2492877139      -22.2372196465  W2        6937            0.0000000000
     20810      6937  TIP3      H1             17.1990933595       46.5173277139      -21.8712396465  W2        6937            0.0000000000
     20811      6937  TIP3      H2             18.4843933595       47.0714777139      -22.4481096465  W2        6937            0.0000000000
     20812      6938  TIP3      OH2             2.3231833595       44.6971577139      -18.7602996465  W2        6938            0.0000000000
     20813      6938  TIP3      H1              3.2426733595       44.5749877139      -18.5239896465  W2        6938            0.0000000000
     20814      6938  TIP3      H2              1.8736333595       43.9471277139      -18.3709496465  W2        6938            0.0000000000
     20815      6939  TIP3      OH2            20.3251233595       40.2293077139      -16.8837196465  W2        6939            0.0000000000
     20816      6939  TIP3      H1             20.6748233595       39.5756577139      -17.4892496465  W2        6939            0.0000000000
     20817      6939  TIP3      H2             20.4720733595       41.0667177139      -17.3234596465  W2        6939            0.0000000000
     20818      6940  TIP3      OH2            18.0144233595       42.1939477139      -30.4008496465  W2        6940            0.0000000000
     20819      6940  TIP3      H1             18.1969233595       41.7450977139      -29.5753496465  W2        6940            0.0000000000
     20820      6940  TIP3      H2             17.4147133595       41.6093877139      -30.8643896465  W2        6940            0.0000000000
     20821      6941  TIP3      OH2             3.5444333595       43.0093177139      -25.8690096465  W2        6941            0.0000000000
     20822      6941  TIP3      H1              3.9895933595       42.2175677139      -25.5670396465  W2        6941            0.0000000000
     20823      6941  TIP3      H2              4.0107333595       43.7258377139      -25.4384496465  W2        6941            0.0000000000
     20824      6942  TIP3      OH2             1.8484633595       46.0086177139      -24.7999896465  W2        6942            0.0000000000
     20825      6942  TIP3      H1              2.3404433595       45.7876677139      -25.5907896465  W2        6942            0.0000000000
     20826      6942  TIP3      H2              2.2105533595       46.8489577139      -24.5190396465  W2        6942            0.0000000000
     20827      6943  TIP3      OH2            19.8448433595       42.3387677139      -18.5345896465  W2        6943            0.0000000000
     20828      6943  TIP3      H1             18.9274133595       42.6094777139      -18.5702396465  W2        6943            0.0000000000
     20829      6943  TIP3      H2             19.9677833595       41.8036077139      -19.3186196465  W2        6943            0.0000000000
     20830      6944  TIP3      OH2            19.8810433595       42.2617577139      -33.8728196465  W2        6944            0.0000000000
     20831      6944  TIP3      H1             20.2933033595       41.5403277139      -34.3480196465  W2        6944            0.0000000000
     20832      6944  TIP3      H2             20.5626933595       42.9312177139      -33.8143896465  W2        6944            0.0000000000
     20833      6945  TIP3      OH2             2.1621133595       42.2665277139      -30.7457496465  W2        6945            0.0000000000
     20834      6945  TIP3      H1              1.2369533595       42.4751877139      -30.8751996465  W2        6945            0.0000000000
     20835      6945  TIP3      H2              2.6161033595       42.7506077139      -31.4355196465  W2        6945            0.0000000000
     20836      6946  TIP3      OH2             2.1256533595       41.0044277139      -22.4014996465  W2        6946            0.0000000000
     20837      6946  TIP3      H1              1.4607033595       40.7584577139      -21.7584096465  W2        6946            0.0000000000
     20838      6946  TIP3      H2              1.6827833595       41.6264677139      -22.9786996465  W2        6946            0.0000000000
     20839      6947  TIP3      OH2             4.3175833595       54.1798377139      -18.2569196465  W2        6947            0.0000000000
     20840      6947  TIP3      H1              3.4968333595       54.3544877139      -18.7174496465  W2        6947            0.0000000000
     20841      6947  TIP3      H2              4.0653633595       54.1063077139      -17.3364796465  W2        6947            0.0000000000
     20842      6948  TIP3      OH2            18.8454333595       40.4283977139      -20.7155096465  W2        6948            0.0000000000
     20843      6948  TIP3      H1             18.0327833595       40.7534277139      -21.1030396465  W2        6948            0.0000000000
     20844      6948  TIP3      H2             19.0782833595       39.6682477139      -21.2485996465  W2        6948            0.0000000000
     20845      6949  TIP3      OH2            12.2752833595       41.8774577139      -26.3926896465  W2        6949            0.0000000000
     20846      6949  TIP3      H1             11.6009633595       41.2480177139      -26.1371096465  W2        6949            0.0000000000
     20847      6949  TIP3      H2             12.8392033595       41.3933477139      -26.9958996465  W2        6949            0.0000000000
     20848      6950  TIP3      OH2            17.4180033595       39.9848577139      -26.2799796465  W2        6950            0.0000000000
     20849      6950  TIP3      H1             18.0217633595       40.5323977139      -26.7818796465  W2        6950            0.0000000000
     20850      6950  TIP3      H2             16.5482033595       40.3038977139      -26.5205696465  W2        6950            0.0000000000
     20851      6951  TIP3      OH2            19.1450433595       41.1237277139      -27.9468896465  W2        6951            0.0000000000
     20852      6951  TIP3      H1             19.7567933595       40.6092977139      -28.4735296465  W2        6951            0.0000000000
     20853      6951  TIP3      H2             19.5273833595       42.0009377139      -27.9234496465  W2        6951            0.0000000000
     20854      6952  TIP3      OH2             4.6020333595       40.5114877139      -28.5706996465  W2        6952            0.0000000000
     20855      6952  TIP3      H1              3.8250133595       40.2769777139      -29.0781096465  W2        6952            0.0000000000
     20856      6952  TIP3      H2              5.1323933595       39.7146977139      -28.5618996465  W2        6952            0.0000000000
     20857      6953  TIP3      OH2             3.4383733595       40.3092977139      -32.7670896465  W2        6953            0.0000000000
     20858      6953  TIP3      H1              3.8774433595       40.9203477139      -33.3587396465  W2        6953            0.0000000000
     20859      6953  TIP3      H2              2.8046133595       40.8477077139      -32.2930896465  W2        6953            0.0000000000
     20860      6954  TIP3      OH2             9.1812933595       40.4381977139      -28.7573896465  W2        6954            0.0000000000
     20861      6954  TIP3      H1             10.0556333595       40.8266277139      -28.7869596465  W2        6954            0.0000000000
     20862      6954  TIP3      H2              9.0453733595       40.2229777139      -27.8346696465  W2        6954            0.0000000000
     20863      6955  TIP3      OH2            14.7381333595       40.4681777139      -27.1082196465  W2        6955            0.0000000000
     20864      6955  TIP3      H1             14.8142933595       40.5633377139      -28.0576196465  W2        6955            0.0000000000
     20865      6955  TIP3      H2             14.4630533595       39.5604677139      -26.9793096465  W2        6955            0.0000000000
     20866      6956  TIP3      OH2            16.0913933595       40.4939577139      -31.4157196465  W2        6956            0.0000000000
     20867      6956  TIP3      H1             15.3885033595       41.1088777139      -31.6255796465  W2        6956            0.0000000000
     20868      6956  TIP3      H2             15.6465333595       39.6566277139      -31.2846296465  W2        6956            0.0000000000
     20869      6957  TIP3      OH2             5.2992833595       42.2254477139      -34.3246796465  W2        6957            0.0000000000
     20870      6957  TIP3      H1              5.7906233595       41.5956877139      -34.8521296465  W2        6957            0.0000000000
     20871      6957  TIP3      H2              5.9229133595       42.5213877139      -33.6615596465  W2        6957            0.0000000000
     20872      6958  TIP3      OH2            10.3252933595       42.5185977139      -31.8676296465  W2        6958            0.0000000000
     20873      6958  TIP3      H1             10.5034233595       41.8719177139      -31.1847696465  W2        6958            0.0000000000
     20874      6958  TIP3      H2             10.2719133595       43.3523677139      -31.4005196465  W2        6958            0.0000000000
     20875      6959  TIP3      OH2             4.5598333595       41.0256777139      -19.0530796465  W2        6959            0.0000000000
     20876      6959  TIP3      H1              4.1936533595       40.2599377139      -18.6106096465  W2        6959            0.0000000000
     20877      6959  TIP3      H2              5.4726833595       41.0546977139      -18.7665696465  W2        6959            0.0000000000
     20878      6960  TIP3      OH2             6.5329133595       40.3761177139      -17.5173696465  W2        6960            0.0000000000
     20879      6960  TIP3      H1              7.4312733595       40.1021377139      -17.7020296465  W2        6960            0.0000000000
     20880      6960  TIP3      H2              6.1462233595       39.6337177139      -17.0531096465  W2        6960            0.0000000000
     20881      6961  TIP3      OH2            14.9541433595       39.7086477139      -17.3350896465  W2        6961            0.0000000000
     20882      6961  TIP3      H1             15.0308633595       39.2827177139      -16.4813196465  W2        6961            0.0000000000
     20883      6961  TIP3      H2             15.8478033595       39.7221177139      -17.6777396465  W2        6961            0.0000000000
     20884      6962  TIP3      OH2            32.5362933595       49.6677177139      -28.6119496465  W2        6962            0.0000000000
     20885      6962  TIP3      H1             32.6254033595       50.6115377139      -28.7442396465  W2        6962            0.0000000000
     20886      6962  TIP3      H2             31.8980533595       49.3923577139      -29.2700096465  W2        6962            0.0000000000
     20887      6963  TIP3      OH2            31.4694233595       48.9227877139      -25.1931296465  W2        6963            0.0000000000
     20888      6963  TIP3      H1             31.4311733595       48.2764177139      -24.4881696465  W2        6963            0.0000000000
     20889      6963  TIP3      H2             31.1470733595       48.4562277139      -25.9642596465  W2        6963            0.0000000000
     20890      6964  TIP3      OH2            23.8379233595       48.5369977139      -23.6001396465  W2        6964            0.0000000000
     20891      6964  TIP3      H1             23.8791333595       47.9113277139      -22.8768996465  W2        6964            0.0000000000
     20892      6964  TIP3      H2             24.5406933595       49.1608577139      -23.4180996465  W2        6964            0.0000000000
     20893      6965  TIP3      OH2            35.1754433595       51.8618277139      -26.8916196465  W2        6965            0.0000000000
     20894      6965  TIP3      H1             34.7347133595       51.1414277139      -26.4410596465  W2        6965            0.0000000000
     20895      6965  TIP3      H2             35.1624133595       52.5825477139      -26.2618496465  W2        6965            0.0000000000
     20896      6966  TIP3      OH2            24.7612333595       52.9868877139      -25.0652296465  W2        6966            0.0000000000
     20897      6966  TIP3      H1             24.3917533595       52.1849377139      -25.4347996465  W2        6966            0.0000000000
     20898      6966  TIP3      H2             25.7023433595       52.8183777139      -25.0188896465  W2        6966            0.0000000000
     20899      6967  TIP3      OH2            21.3712833595       46.6471477139      -29.6723496465  W2        6967            0.0000000000
     20900      6967  TIP3      H1             20.9236233595       47.4930177139      -29.6906996465  W2        6967            0.0000000000
     20901      6967  TIP3      H2             20.8104033595       46.0675677139      -30.1878396465  W2        6967            0.0000000000
     20902      6968  TIP3      OH2            22.0818933595       48.8091077139      -27.5465496465  W2        6968            0.0000000000
     20903      6968  TIP3      H1             22.2952433595       48.0392677139      -27.0192496465  W2        6968            0.0000000000
     20904      6968  TIP3      H2             22.8196533595       48.8987777139      -28.1497896465  W2        6968            0.0000000000
     20905      6969  TIP3      OH2            29.8588633595       51.3549277139      -24.7870296465  W2        6969            0.0000000000
     20906      6969  TIP3      H1             30.1626533595       50.6690677139      -25.3816196465  W2        6969            0.0000000000
     20907      6969  TIP3      H2             30.5802633595       51.4737977139      -24.1692296465  W2        6969            0.0000000000
     20908      6970  TIP3      OH2            38.5218433595       42.9564577139      -23.9264096465  W2        6970            0.0000000000
     20909      6970  TIP3      H1             38.5710633595       43.5665777139      -23.1904996465  W2        6970            0.0000000000
     20910      6970  TIP3      H2             38.9473533595       43.4175477139      -24.6492996465  W2        6970            0.0000000000
     20911      6971  TIP3      OH2            32.9995633595       45.7491677139      -24.4595496465  W2        6971            0.0000000000
     20912      6971  TIP3      H1             33.1421533595       44.8028677139      -24.4393896465  W2        6971            0.0000000000
     20913      6971  TIP3      H2             32.8934633595       45.9561477139      -25.3880596465  W2        6971            0.0000000000
     20914      6972  TIP3      OH2            26.1543933595       43.8508077139      -27.1870696465  W2        6972            0.0000000000
     20915      6972  TIP3      H1             26.1975033595       44.7106577139      -27.6054396465  W2        6972            0.0000000000
     20916      6972  TIP3      H2             25.6968033595       43.2982777139      -27.8207496465  W2        6972            0.0000000000
     20917      6973  TIP3      OH2            33.8766633595       43.9813677139      -28.7862396465  W2        6973            0.0000000000
     20918      6973  TIP3      H1             34.5230933595       43.6526877139      -28.1614796465  W2        6973            0.0000000000
     20919      6973  TIP3      H2             34.3866033595       44.4992677139      -29.4090996465  W2        6973            0.0000000000
     20920      6974  TIP3      OH2            22.7745433595       46.2473877139      -26.4249296465  W2        6974            0.0000000000
     20921      6974  TIP3      H1             23.4282033595       45.6975577139      -25.9929196465  W2        6974            0.0000000000
     20922      6974  TIP3      H2             22.7984733595       45.9732877139      -27.3417296465  W2        6974            0.0000000000
     20923      6975  TIP3      OH2            27.9309933595       47.7975177139      -27.2097796465  W2        6975            0.0000000000
     20924      6975  TIP3      H1             28.5470933595       47.2710577139      -26.7003796465  W2        6975            0.0000000000
     20925      6975  TIP3      H2             27.3448733595       47.1573877139      -27.6134196465  W2        6975            0.0000000000
     20926      6976  TIP3      OH2            38.9133033595       44.4343777139      -21.6904296465  W2        6976            0.0000000000
     20927      6976  TIP3      H1             38.2247633595       45.0924477139      -21.7857696465  W2        6976            0.0000000000
     20928      6976  TIP3      H2             38.9287633595       44.2371677139      -20.7538896465  W2        6976            0.0000000000
     20929      6977  TIP3      OH2            24.9645833595       42.7686477139      -23.1129896465  W2        6977            0.0000000000
     20930      6977  TIP3      H1             24.7457533595       43.2987077139      -23.8793896465  W2        6977            0.0000000000
     20931      6977  TIP3      H2             24.2966733595       42.9951977139      -22.4658496465  W2        6977            0.0000000000
     20932      6978  TIP3      OH2            32.3335633595       52.2687577139      -29.5690796465  W2        6978            0.0000000000
     20933      6978  TIP3      H1             32.0380733595       51.9459877139      -30.4203896465  W2        6978            0.0000000000
     20934      6978  TIP3      H2             32.0093433595       53.1684277139      -29.5278196465  W2        6978            0.0000000000
     20935      6979  TIP3      OH2            27.5337233595       50.4442177139      -22.8256196465  W2        6979            0.0000000000
     20936      6979  TIP3      H1             26.7936333595       51.0423677139      -22.7220996465  W2        6979            0.0000000000
     20937      6979  TIP3      H2             28.2476733595       50.9981777139      -23.1412596465  W2        6979            0.0000000000
     20938      6980  TIP3      OH2            35.6405033595       43.2722977139      -26.8056496465  W2        6980            0.0000000000
     20939      6980  TIP3      H1             35.4253033595       42.5066377139      -26.2730496465  W2        6980            0.0000000000
     20940      6980  TIP3      H2             36.2962433595       43.7447577139      -26.2927996465  W2        6980            0.0000000000
     20941      6981  TIP3      OH2            24.5583133595       44.6608277139      -25.1607696465  W2        6981            0.0000000000
     20942      6981  TIP3      H1             25.1719433595       45.2935877139      -24.7875296465  W2        6981            0.0000000000
     20943      6981  TIP3      H2             25.0703833595       44.1883277139      -25.8170796465  W2        6981            0.0000000000
     20944      6982  TIP3      OH2            25.9411533595       52.4085177139      -22.0384696465  W2        6982            0.0000000000
     20945      6982  TIP3      H1             25.9359133595       53.2878677139      -22.4165396465  W2        6982            0.0000000000
     20946      6982  TIP3      H2             25.0875633595       52.3249277139      -21.6134796465  W2        6982            0.0000000000
     20947      6983  TIP3      OH2            22.0622433595       52.0793077139      -31.2565396465  W2        6983            0.0000000000
     20948      6983  TIP3      H1             21.7903333595       52.3084077139      -32.1452496465  W2        6983            0.0000000000
     20949      6983  TIP3      H2             22.1078133595       52.9171877139      -30.7960096465  W2        6983            0.0000000000
     20950      6984  TIP3      OH2            35.6872133595       53.7008977139      -24.5436896465  W2        6984            0.0000000000
     20951      6984  TIP3      H1             34.7455833595       53.7592877139      -24.3819996465  W2        6984            0.0000000000
     20952      6984  TIP3      H2             35.9638233595       54.6069477139      -24.6807196465  W2        6984            0.0000000000
     20953      6985  TIP3      OH2            35.9879133595       41.9874277139      -23.1262996465  W2        6985            0.0000000000
     20954      6985  TIP3      H1             35.2518333595       42.5981377139      -23.1641696465  W2        6985            0.0000000000
     20955      6985  TIP3      H2             36.6713133595       42.4023277139      -23.6526596465  W2        6985            0.0000000000
     20956      6986  TIP3      OH2            28.9910533595       40.0741577139      -25.6604996465  W2        6986            0.0000000000
     20957      6986  TIP3      H1             28.8734733595       39.1257577139      -25.7146696465  W2        6986            0.0000000000
     20958      6986  TIP3      H2             28.1360633595       40.4067677139      -25.3873896465  W2        6986            0.0000000000
     20959      6987  TIP3      OH2            35.0989833595       53.3830977139      -29.4098696465  W2        6987            0.0000000000
     20960      6987  TIP3      H1             34.8414633595       52.6931077139      -30.0212796465  W2        6987            0.0000000000
     20961      6987  TIP3      H2             35.1700633595       52.9402177139      -28.5642796465  W2        6987            0.0000000000
     20962      6988  TIP3      OH2            36.7850033595       51.9497677139      -20.9325196465  W2        6988            0.0000000000
     20963      6988  TIP3      H1             36.9246333595       51.3580177139      -21.6718196465  W2        6988            0.0000000000
     20964      6988  TIP3      H2             36.9522833595       52.8223577139      -21.2886396465  W2        6988            0.0000000000
     20965      6989  TIP3      OH2            31.2575433595       48.9117177139      -31.1599196465  W2        6989            0.0000000000
     20966      6989  TIP3      H1             30.5460933595       49.4466877139      -31.5118696465  W2        6989            0.0000000000
     20967      6989  TIP3      H2             31.9485033595       48.9669277139      -31.8200296465  W2        6989            0.0000000000
     20968      6990  TIP3      OH2            31.3114633595       47.3691477139      -34.1214196465  W2        6990            0.0000000000
     20969      6990  TIP3      H1             32.0124533595       47.3918377139      -33.4700196465  W2        6990            0.0000000000
     20970      6990  TIP3      H2             31.6137533595       46.7411177139      -34.7774896465  W2        6990            0.0000000000
     20971      6991  TIP3      OH2            38.6269333595       48.2895677139      -22.8664796465  W2        6991            0.0000000000
     20972      6991  TIP3      H1             37.9743433595       48.9841277139      -22.7773896465  W2        6991            0.0000000000
     20973      6991  TIP3      H2             39.0919633595       48.4996577139      -23.6763196465  W2        6991            0.0000000000
     20974      6992  TIP3      OH2            34.6633133595       49.1210477139      -30.2083296465  W2        6992            0.0000000000
     20975      6992  TIP3      H1             33.9314133595       49.3494177139      -29.6352696465  W2        6992            0.0000000000
     20976      6992  TIP3      H2             35.1105333595       48.4073177139      -29.7535796465  W2        6992            0.0000000000
     20977      6993  TIP3      OH2            34.5606633595       47.2953077139      -21.1406296465  W2        6993            0.0000000000
     20978      6993  TIP3      H1             34.6405733595       48.0587477139      -20.5687796465  W2        6993            0.0000000000
     20979      6993  TIP3      H2             33.9594333595       47.5745477139      -21.8311196465  W2        6993            0.0000000000
     20980      6994  TIP3      OH2            26.3086833595       49.7516677139      -28.3258296465  W2        6994            0.0000000000
     20981      6994  TIP3      H1             25.9782033595       49.3810077139      -29.1441296465  W2        6994            0.0000000000
     20982      6994  TIP3      H2             26.8970933595       49.0810677139      -27.9789996465  W2        6994            0.0000000000
     20983      6995  TIP3      OH2            27.6754333595       53.1797277139      -25.6446096465  W2        6995            0.0000000000
     20984      6995  TIP3      H1             27.5805633595       52.6010377139      -26.4011496465  W2        6995            0.0000000000
     20985      6995  TIP3      H2             28.4047933595       52.8082977139      -25.1483296465  W2        6995            0.0000000000
     20986      6996  TIP3      OH2            26.6752333595       48.5202277139      -24.6923296465  W2        6996            0.0000000000
     20987      6996  TIP3      H1             27.2404833595       48.6416477139      -25.4552096465  W2        6996            0.0000000000
     20988      6996  TIP3      H2             26.9941233595       49.1577277139      -24.0534796465  W2        6996            0.0000000000
     20989      6997  TIP3      OH2            32.9844533595       54.0234177139      -23.9582796465  W2        6997            0.0000000000
     20990      6997  TIP3      H1             32.7441133595       54.6857277139      -23.3103596465  W2        6997            0.0000000000
     20991      6997  TIP3      H2             32.7862733595       53.1889377139      -23.5333196465  W2        6997            0.0000000000
     20992      6998  TIP3      OH2            27.5553033595       52.9194977139      -19.9751396465  W2        6998            0.0000000000
     20993      6998  TIP3      H1             27.2440533595       53.7018177139      -19.5198196465  W2        6998            0.0000000000
     20994      6998  TIP3      H2             26.9053233595       52.7664077139      -20.6609396465  W2        6998            0.0000000000
     20995      6999  TIP3      OH2            33.5342633595       48.2833377139      -32.5232096465  W2        6999            0.0000000000
     20996      6999  TIP3      H1             34.1138133595       48.4333677139      -31.7763196465  W2        6999            0.0000000000
     20997      6999  TIP3      H2             33.9482633595       48.7540777139      -33.2465696465  W2        6999            0.0000000000
     20998      7000  TIP3      OH2            24.4752933595       49.1176077139      -20.7465696465  W2        7000            0.0000000000
     20999      7000  TIP3      H1             24.5456133595       49.7682877139      -20.0480696465  W2        7000            0.0000000000
     21000      7000  TIP3      H2             23.5845133595       49.2203577139      -21.0814796465  W2        7000            0.0000000000
     21001      7001  TIP3      OH2            25.7948933595       54.9909977139      -19.2117596465  W2        7001            0.0000000000
     21002      7001  TIP3      H1             25.8024233595       54.8549677139      -20.1592096465  W2        7001            0.0000000000
     21003      7001  TIP3      H2             24.8789333595       54.8738077139      -18.9597596465  W2        7001            0.0000000000
     21004      7002  TIP3      OH2            37.2331033595       40.0333777139      -32.7102396465  W2        7002            0.0000000000
     21005      7002  TIP3      H1             36.3331733595       40.1722777139      -32.4151796465  W2        7002            0.0000000000
     21006      7002  TIP3      H2             37.4849433595       40.8648377139      -33.1120696465  W2        7002            0.0000000000
     21007      7003  TIP3      OH2            25.2989533595       48.8210977139      -30.7365496465  W2        7003            0.0000000000
     21008      7003  TIP3      H1             25.0070833595       49.5892677139      -31.2274196465  W2        7003            0.0000000000
     21009      7003  TIP3      H2             24.6244733595       48.1617177139      -30.8994096465  W2        7003            0.0000000000
     21010      7004  TIP3      OH2            38.4222433595       54.3996177139      -34.3338496465  W2        7004            0.0000000000
     21011      7004  TIP3      H1             38.4955933595       55.3386377139      -34.1633196465  W2        7004            0.0000000000
     21012      7004  TIP3      H2             39.3277533595       54.0944777139      -34.3901196465  W2        7004            0.0000000000
     21013      7005  TIP3      OH2            21.3919633595       51.1840177139      -21.9215696465  W2        7005            0.0000000000
     21014      7005  TIP3      H1             20.8908033595       51.1559577139      -22.7365996465  W2        7005            0.0000000000
     21015      7005  TIP3      H2             21.3973333595       50.2783377139      -21.6118396465  W2        7005            0.0000000000
     21016      7006  TIP3      OH2            21.1422333595       53.9643977139      -25.0375496465  W2        7006            0.0000000000
     21017      7006  TIP3      H1             22.0882933595       53.8200977139      -25.0565996465  W2        7006            0.0000000000
     21018      7006  TIP3      H2             21.0298633595       54.7486777139      -24.5004296465  W2        7006            0.0000000000
     21019      7007  TIP3      OH2            39.3400833595       54.6303677139      -19.3551796465  W2        7007            0.0000000000
     21020      7007  TIP3      H1             39.2907633595       53.6751777139      -19.3924196465  W2        7007            0.0000000000
     21021      7007  TIP3      H2             38.5133133595       54.8978977139      -18.9537996465  W2        7007            0.0000000000
     21022      7008  TIP3      OH2            30.3184833595       54.2042877139      -20.4790396465  W2        7008            0.0000000000
     21023      7008  TIP3      H1             30.4059433595       55.0307477139      -20.0041296465  W2        7008            0.0000000000
     21024      7008  TIP3      H2             29.4549933595       53.8746677139      -20.2301096465  W2        7008            0.0000000000
     21025      7009  TIP3      OH2            36.4920633595       46.1236177139      -18.8749596465  W2        7009            0.0000000000
     21026      7009  TIP3      H1             36.0847433595       46.6041777139      -19.5956296465  W2        7009            0.0000000000
     21027      7009  TIP3      H2             36.5326333595       45.2182177139      -19.1828796465  W2        7009            0.0000000000
     21028      7010  TIP3      OH2            23.6410133595       52.5075577139      -20.8782896465  W2        7010            0.0000000000
     21029      7010  TIP3      H1             23.8571433595       52.1461177139      -20.0187096465  W2        7010            0.0000000000
     21030      7010  TIP3      H2             22.7854833595       52.1329377139      -21.0879396465  W2        7010            0.0000000000
     21031      7011  TIP3      OH2            26.2598133595       40.9776077139      -24.8828696465  W2        7011            0.0000000000
     21032      7011  TIP3      H1             25.3981833595       40.8904277139      -25.2905796465  W2        7011            0.0000000000
     21033      7011  TIP3      H2             26.2373833595       41.8336177139      -24.4551096465  W2        7011            0.0000000000
     21034      7012  TIP3      OH2            30.9225933595       40.6996477139      -21.5081696465  W2        7012            0.0000000000
     21035      7012  TIP3      H1             31.3429033595       40.2843577139      -20.7551096465  W2        7012            0.0000000000
     21036      7012  TIP3      H2             29.9895533595       40.5209777139      -21.3909696465  W2        7012            0.0000000000
     21037      7013  TIP3      OH2            34.2490833595       44.4551677139      -20.6547196465  W2        7013            0.0000000000
     21038      7013  TIP3      H1             33.7350333595       44.3293877139      -19.8571196465  W2        7013            0.0000000000
     21039      7013  TIP3      H2             34.0935533595       45.3674777139      -20.8990996465  W2        7013            0.0000000000
     21040      7014  TIP3      OH2            35.0115733595       49.3161677139      -34.8934196465  W2        7014            0.0000000000
     21041      7014  TIP3      H1             35.0536533595       49.0935577139      -35.8234196465  W2        7014            0.0000000000
     21042      7014  TIP3      H2             35.8607833595       49.7148777139      -34.7034296465  W2        7014            0.0000000000
     21043      7015  TIP3      OH2            30.5843233595       43.1919877139      -34.2230896465  W2        7015            0.0000000000
     21044      7015  TIP3      H1             30.3308033595       43.2111477139      -33.3002796465  W2        7015            0.0000000000
     21045      7015  TIP3      H2             30.3275333595       42.3205277139      -34.5244696465  W2        7015            0.0000000000
     21046      7016  TIP3      OH2            26.3508233595       45.9430577139      -23.7878496465  W2        7016            0.0000000000
     21047      7016  TIP3      H1             25.7090333595       45.9027877139      -23.0788396465  W2        7016            0.0000000000
     21048      7016  TIP3      H2             26.3880233595       46.8695277139      -24.0255496465  W2        7016            0.0000000000
     21049      7017  TIP3      OH2            26.3477333595       46.1640677139      -28.8758496465  W2        7017            0.0000000000
     21050      7017  TIP3      H1             25.4550233595       45.8236777139      -28.9344696465  W2        7017            0.0000000000
     21051      7017  TIP3      H2             26.7983933595       45.7871577139      -29.6315296465  W2        7017            0.0000000000
     21052      7018  TIP3      OH2            31.8832833595       46.5800977139      -30.0587696465  W2        7018            0.0000000000
     21053      7018  TIP3      H1             31.4743133595       47.3949577139      -30.3502896465  W2        7018            0.0000000000
     21054      7018  TIP3      H2             32.6039033595       46.4401077139      -30.6730596465  W2        7018            0.0000000000
     21055      7019  TIP3      OH2            30.9854433595       46.7557377139      -18.5706996465  W2        7019            0.0000000000
     21056      7019  TIP3      H1             30.4228233595       46.0508977139      -18.2499196465  W2        7019            0.0000000000
     21057      7019  TIP3      H2             31.8117833595       46.6349277139      -18.1029396465  W2        7019            0.0000000000
     21058      7020  TIP3      OH2            32.8880533595       46.0261377139      -27.2447996465  W2        7020            0.0000000000
     21059      7020  TIP3      H1             32.6925033595       46.6318177139      -27.9597396465  W2        7020            0.0000000000
     21060      7020  TIP3      H2             33.0693133595       45.1926577139      -27.6791696465  W2        7020            0.0000000000
     21061      7021  TIP3      OH2            24.1008733595       46.2634077139      -21.9206496465  W2        7021            0.0000000000
     21062      7021  TIP3      H1             24.0628133595       46.6635677139      -21.0519396465  W2        7021            0.0000000000
     21063      7021  TIP3      H2             23.6099833595       45.4466477139      -21.8303596465  W2        7021            0.0000000000
     21064      7022  TIP3      OH2            27.4666133595       43.6376377139      -35.1220496465  W2        7022            0.0000000000
     21065      7022  TIP3      H1             27.0356833595       43.1926477139      -34.3923096465  W2        7022            0.0000000000
     21066      7022  TIP3      H2             26.7484833595       44.0092677139      -35.6342996465  W2        7022            0.0000000000
     21067      7023  TIP3      OH2            20.7089533595       43.3795877139      -28.0701796465  W2        7023            0.0000000000
     21068      7023  TIP3      H1             21.3397233595       43.3507977139      -27.3507896465  W2        7023            0.0000000000
     21069      7023  TIP3      H2             21.1583833595       42.9544577139      -28.8005896465  W2        7023            0.0000000000
     21070      7024  TIP3      OH2            21.9831633595       44.1257877139      -32.6461396465  W2        7024            0.0000000000
     21071      7024  TIP3      H1             22.4573333595       44.7167777139      -33.2310496465  W2        7024            0.0000000000
     21072      7024  TIP3      H2             21.2658033595       44.6560777139      -32.2991296465  W2        7024            0.0000000000
     21073      7025  TIP3      OH2            32.1519733595       47.6642677139      -22.5735596465  W2        7025            0.0000000000
     21074      7025  TIP3      H1             32.4754533595       47.0332377139      -23.2165096465  W2        7025            0.0000000000
     21075      7025  TIP3      H2             31.7119033595       47.1294877139      -21.9128196465  W2        7025            0.0000000000
     21076      7026  TIP3      OH2            28.9292633595       43.5918177139      -27.7894396465  W2        7026            0.0000000000
     21077      7026  TIP3      H1             28.0183733595       43.6484977139      -27.5008396465  W2        7026            0.0000000000
     21078      7026  TIP3      H2             29.4345533595       43.5313677139      -26.9787196465  W2        7026            0.0000000000
     21079      7027  TIP3      OH2            23.7576033595       45.2204477139      -28.9626796465  W2        7027            0.0000000000
     21080      7027  TIP3      H1             22.8684033595       45.3199977139      -29.3027196465  W2        7027            0.0000000000
     21081      7027  TIP3      H2             24.0540933595       44.3787477139      -29.3088896465  W2        7027            0.0000000000
     21082      7028  TIP3      OH2            27.4107833595       45.2207077139      -31.3062196465  W2        7028            0.0000000000
     21083      7028  TIP3      H1             28.3423333595       45.3497077139      -31.1279096465  W2        7028            0.0000000000
     21084      7028  TIP3      H2             27.1958133595       45.8901377139      -31.9557496465  W2        7028            0.0000000000
     21085      7029  TIP3      OH2            33.3344533595       42.8264477139      -24.5252596465  W2        7029            0.0000000000
     21086      7029  TIP3      H1             32.6576133595       42.9577577139      -23.8612896465  W2        7029            0.0000000000
     21087      7029  TIP3      H2             32.8489433595       42.6713977139      -25.3354896465  W2        7029            0.0000000000
     21088      7030  TIP3      OH2            26.0848033595       46.4149277139      -33.7396096465  W2        7030            0.0000000000
     21089      7030  TIP3      H1             25.5423133595       46.0353077139      -34.4308496465  W2        7030            0.0000000000
     21090      7030  TIP3      H2             26.9182933595       46.6093977139      -34.1681996465  W2        7030            0.0000000000
     21091      7031  TIP3      OH2            24.2199433595       50.9721177139      -18.6404496465  W2        7031            0.0000000000
     21092      7031  TIP3      H1             24.9521833595       51.2267077139      -18.0789996465  W2        7031            0.0000000000
     21093      7031  TIP3      H2             23.4398133595       51.1766577139      -18.1249096465  W2        7031            0.0000000000
     21094      7032  TIP3      OH2            30.2492333595       46.3791177139      -25.9024796465  W2        7032            0.0000000000
     21095      7032  TIP3      H1             30.8135733595       45.8327777139      -26.4495196465  W2        7032            0.0000000000
     21096      7032  TIP3      H2             30.1015733595       45.8573077139      -25.1137196465  W2        7032            0.0000000000
     21097      7033  TIP3      OH2            25.2512033595       42.5157277139      -29.4839996465  W2        7033            0.0000000000
     21098      7033  TIP3      H1             24.9341533595       41.6132577139      -29.5194596465  W2        7033            0.0000000000
     21099      7033  TIP3      H2             26.0326133595       42.5174677139      -30.0368396465  W2        7033            0.0000000000
     21100      7034  TIP3      OH2            28.8758233595       44.7677277139      -23.4884396465  W2        7034            0.0000000000
     21101      7034  TIP3      H1             28.0403533595       45.2216777139      -23.3781996465  W2        7034            0.0000000000
     21102      7034  TIP3      H2             29.3998833595       45.0435777139      -22.7364496465  W2        7034            0.0000000000
     21103      7035  TIP3      OH2            29.4200833595       50.9804977139      -31.8037996465  W2        7035            0.0000000000
     21104      7035  TIP3      H1             28.6751833595       50.4730277139      -32.1260096465  W2        7035            0.0000000000
     21105      7035  TIP3      H2             29.2858033595       51.0292977139      -30.8573196465  W2        7035            0.0000000000
     21106      7036  TIP3      OH2            36.5699733595       50.1133177139      -23.0170396465  W2        7036            0.0000000000
     21107      7036  TIP3      H1             37.2118533595       50.5699477139      -23.5608196465  W2        7036            0.0000000000
     21108      7036  TIP3      H2             35.7396633595       50.2265577139      -23.4796296465  W2        7036            0.0000000000
     21109      7037  TIP3      OH2            33.3177633595       43.7944877139      -33.6045396465  W2        7037            0.0000000000
     21110      7037  TIP3      H1             32.3791833595       43.9060477139      -33.7556596465  W2        7037            0.0000000000
     21111      7037  TIP3      H2             33.6149733595       44.6511777139      -33.2979696465  W2        7037            0.0000000000
     21112      7038  TIP3      OH2            30.9392933595       51.1648277139      -20.5668896465  W2        7038            0.0000000000
     21113      7038  TIP3      H1             30.5939033595       50.7830677139      -19.7599296465  W2        7038            0.0000000000
     21114      7038  TIP3      H2             30.7393033595       52.0981877139      -20.4955996465  W2        7038            0.0000000000
     21115      7039  TIP3      OH2            34.0361133595       45.6617577139      -31.9437996465  W2        7039            0.0000000000
     21116      7039  TIP3      H1             34.9280133595       45.5242577139      -31.6246796465  W2        7039            0.0000000000
     21117      7039  TIP3      H2             34.0924733595       46.4523677139      -32.4804496465  W2        7039            0.0000000000
     21118      7040  TIP3      OH2            24.5449133595       50.2754977139      -26.0340096465  W2        7040            0.0000000000
     21119      7040  TIP3      H1             25.2896333595       50.2730677139      -26.6353596465  W2        7040            0.0000000000
     21120      7040  TIP3      H2             24.6225733595       49.4518777139      -25.5524996465  W2        7040            0.0000000000
     21121      7041  TIP3      OH2            31.5454933595       52.4389277139      -32.7783396465  W2        7041            0.0000000000
     21122      7041  TIP3      H1             31.2503333595       53.2657177139      -32.3968596465  W2        7041            0.0000000000
     21123      7041  TIP3      H2             30.8424933595       51.8196177139      -32.5821996465  W2        7041            0.0000000000
     21124      7042  TIP3      OH2            21.5528833595       48.7361877139      -20.7191596465  W2        7042            0.0000000000
     21125      7042  TIP3      H1             21.7757433595       48.3181477139      -19.8874096465  W2        7042            0.0000000000
     21126      7042  TIP3      H2             20.9508933595       48.1236877139      -21.1418796465  W2        7042            0.0000000000
     21127      7043  TIP3      OH2            28.5693733595       48.2531777139      -18.5061896465  W2        7043            0.0000000000
     21128      7043  TIP3      H1             28.2734533595       48.0874777139      -19.4012796465  W2        7043            0.0000000000
     21129      7043  TIP3      H2             29.5008933595       48.0332077139      -18.5167996465  W2        7043            0.0000000000
     21130      7044  TIP3      OH2            33.1896533595       53.6263777139      -20.6163896465  W2        7044            0.0000000000
     21131      7044  TIP3      H1             32.2890833595       53.8096377139      -20.8839996465  W2        7044            0.0000000000
     21132      7044  TIP3      H2             33.2237633595       53.8853077139      -19.6955096465  W2        7044            0.0000000000
     21133      7045  TIP3      OH2            38.9209833595       45.8711677139      -32.2491296465  W2        7045            0.0000000000
     21134      7045  TIP3      H1             38.3666133595       45.4749677139      -32.9213796465  W2        7045            0.0000000000
     21135      7045  TIP3      H2             39.0213433595       46.7816877139      -32.5267996465  W2        7045            0.0000000000
     21136      7046  TIP3      OH2            38.8841833595       51.6713377139      -19.4119796465  W2        7046            0.0000000000
     21137      7046  TIP3      H1             38.0330333595       51.9097177139      -19.7793396465  W2        7046            0.0000000000
     21138      7046  TIP3      H2             39.4745233595       51.6546577139      -20.1652696465  W2        7046            0.0000000000
     21139      7047  TIP3      OH2            37.2161533595       54.6572077139      -31.7839196465  W2        7047            0.0000000000
     21140      7047  TIP3      H1             36.8432633595       53.8315877139      -31.4748596465  W2        7047            0.0000000000
     21141      7047  TIP3      H2             37.4935033595       54.4741477139      -32.6815796465  W2        7047            0.0000000000
     21142      7048  TIP3      OH2            34.3765433595       49.4651577139      -24.7627296465  W2        7048            0.0000000000
     21143      7048  TIP3      H1             33.4482333595       49.2333477139      -24.7897996465  W2        7048            0.0000000000
     21144      7048  TIP3      H2             34.8276533595       48.6881377139      -25.0928496465  W2        7048            0.0000000000
     21145      7049  TIP3      OH2            26.9198533595       53.7933177139      -28.6298596465  W2        7049            0.0000000000
     21146      7049  TIP3      H1             27.4470733595       54.5667577139      -28.8299796465  W2        7049            0.0000000000
     21147      7049  TIP3      H2             26.0397033595       54.0182377139      -28.9314596465  W2        7049            0.0000000000
     21148      7050  TIP3      OH2            22.6746233595       48.6557277139      -34.0426196465  W2        7050            0.0000000000
     21149      7050  TIP3      H1             23.2906133595       49.2824477139      -33.6631396465  W2        7050            0.0000000000
     21150      7050  TIP3      H2             21.8128833595       48.9717077139      -33.7709696465  W2        7050            0.0000000000
     21151      7051  TIP3      OH2            28.3470833595       51.4563077139      -29.0534296465  W2        7051            0.0000000000
     21152      7051  TIP3      H1             28.1060833595       52.3817477139      -29.0118996465  W2        7051            0.0000000000
     21153      7051  TIP3      H2             27.6064433595       50.9974377139      -28.6570396465  W2        7051            0.0000000000
     21154      7052  TIP3      OH2            32.4058233595       51.7047377139      -23.0377596465  W2        7052            0.0000000000
     21155      7052  TIP3      H1             31.9799533595       51.4769077139      -22.2113596465  W2        7052            0.0000000000
     21156      7052  TIP3      H2             32.9864033595       50.9659177139      -23.2202296465  W2        7052            0.0000000000
     21157      7053  TIP3      OH2            34.6087133595       52.6337877139      -33.9638596465  W2        7053            0.0000000000
     21158      7053  TIP3      H1             34.9620233595       52.2537677139      -33.1595096465  W2        7053            0.0000000000
     21159      7053  TIP3      H2             33.6600633595       52.5402677139      -33.8769296465  W2        7053            0.0000000000
     21160      7054  TIP3      OH2            23.1868333595       43.4894577139      -21.1610196465  W2        7054            0.0000000000
     21161      7054  TIP3      H1             22.2940633595       43.8279977139      -21.2286196465  W2        7054            0.0000000000
     21162      7054  TIP3      H2             23.0881133595       42.6340677139      -20.7429396465  W2        7054            0.0000000000
     21163      7055  TIP3      OH2            35.4746433595       51.3059877139      -31.7370696465  W2        7055            0.0000000000
     21164      7055  TIP3      H1             35.1974033595       50.5779177139      -31.1809596465  W2        7055            0.0000000000
     21165      7055  TIP3      H2             36.4019433595       51.4251877139      -31.5318096465  W2        7055            0.0000000000
     21166      7056  TIP3      OH2            28.6994933595       53.7453977139      -35.5168596465  W2        7056            0.0000000000
     21167      7056  TIP3      H1             28.9384733595       52.9972077139      -36.0639696465  W2        7056            0.0000000000
     21168      7056  TIP3      H2             28.4306233595       53.3575677139      -34.6840796465  W2        7056            0.0000000000
     21169      7057  TIP3      OH2            27.6365533595       53.3157777139      -33.0605996465  W2        7057            0.0000000000
     21170      7057  TIP3      H1             27.7833533595       52.7957577139      -32.2705096465  W2        7057            0.0000000000
     21171      7057  TIP3      H2             27.6337233595       54.2225377139      -32.7540096465  W2        7057            0.0000000000
     21172      7058  TIP3      OH2            24.0896633595       50.5681077139      -32.5500596465  W2        7058            0.0000000000
     21173      7058  TIP3      H1             23.4035933595       50.9203577139      -31.9830896465  W2        7058            0.0000000000
     21174      7058  TIP3      H2             24.6124533595       51.3310677139      -32.7966296465  W2        7058            0.0000000000
     21175      7059  TIP3      OH2            31.9211733595       43.2304877139      -22.2711596465  W2        7059            0.0000000000
     21176      7059  TIP3      H1             32.6199633595       43.3043577139      -21.6211896465  W2        7059            0.0000000000
     21177      7059  TIP3      H2             31.5403133595       42.3659877139      -22.1168696465  W2        7059            0.0000000000
     21178      7060  TIP3      OH2            32.7056633595       42.8826577139      -31.1739296465  W2        7060            0.0000000000
     21179      7060  TIP3      H1             32.9254933595       43.3541977139      -31.9773896465  W2        7060            0.0000000000
     21180      7060  TIP3      H2             33.2640633595       43.2769177139      -30.5038696465  W2        7060            0.0000000000
     21181      7061  TIP3      OH2            29.9056533595       44.6105377139      -30.3390896465  W2        7061            0.0000000000
     21182      7061  TIP3      H1             30.7179133595       45.1148577139      -30.2929196465  W2        7061            0.0000000000
     21183      7061  TIP3      H2             29.6609533595       44.4655077139      -29.4251296465  W2        7061            0.0000000000
     21184      7062  TIP3      OH2            30.4412933595       45.5968077139      -21.1544296465  W2        7062            0.0000000000
     21185      7062  TIP3      H1             30.5603233595       46.1703477139      -20.3973896465  W2        7062            0.0000000000
     21186      7062  TIP3      H2             31.0967533595       44.9087477139      -21.0396496465  W2        7062            0.0000000000
     21187      7063  TIP3      OH2            30.7893233595       41.6918377139      -29.4009796465  W2        7063            0.0000000000
     21188      7063  TIP3      H1             30.4426733595       42.3088977139      -28.7565496465  W2        7063            0.0000000000
     21189      7063  TIP3      H2             31.4480133595       42.1924077139      -29.8824296465  W2        7063            0.0000000000
     21190      7064  TIP3      OH2            26.4470233595       42.7547777139      -32.7137296465  W2        7064            0.0000000000
     21191      7064  TIP3      H1             26.3635033595       43.6430877139      -32.3670896465  W2        7064            0.0000000000
     21192      7064  TIP3      H2             27.3370533595       42.4894477139      -32.4820496465  W2        7064            0.0000000000
     21193      7065  TIP3      OH2            36.6458733595       43.5038377139      -20.3194596465  W2        7065            0.0000000000
     21194      7065  TIP3      H1             35.7294533595       43.7660077139      -20.4070896465  W2        7065            0.0000000000
     21195      7065  TIP3      H2             36.9813733595       43.5007377139      -21.2159296465  W2        7065            0.0000000000
     21196      7066  TIP3      OH2            35.2479733595       47.2539377139      -26.2237296465  W2        7066            0.0000000000
     21197      7066  TIP3      H1             34.4504133595       46.8389577139      -26.5522296465  W2        7066            0.0000000000
     21198      7066  TIP3      H2             35.6930833595       46.5633077139      -25.7326796465  W2        7066            0.0000000000
     21199      7067  TIP3      OH2            24.7055533595       53.1819977139      -33.6532796465  W2        7067            0.0000000000
     21200      7067  TIP3      H1             25.2977033595       53.8814777139      -33.3770396465  W2        7067            0.0000000000
     21201      7067  TIP3      H2             25.1648533595       52.7489477139      -34.3728196465  W2        7067            0.0000000000
     21202      7068  TIP3      OH2            23.0214733595       45.8462977139      -34.5373396465  W2        7068            0.0000000000
     21203      7068  TIP3      H1             22.9767333595       46.7856077139      -34.3586396465  W2        7068            0.0000000000
     21204      7068  TIP3      H2             22.1337933595       45.6107877139      -34.8071296465  W2        7068            0.0000000000
     21205      7069  TIP3      OH2            23.8296733595       40.6279577139      -25.8642396465  W2        7069            0.0000000000
     21206      7069  TIP3      H1             23.6006533595       40.6872077139      -26.7917396465  W2        7069            0.0000000000
     21207      7069  TIP3      H2             23.3870133595       39.8365077139      -25.5578296465  W2        7069            0.0000000000
     21208      7070  TIP3      OH2            22.7600033595       54.5686677139      -29.7036596465  W2        7070            0.0000000000
     21209      7070  TIP3      H1             21.9278633595       55.0409377139      -29.6765196465  W2        7070            0.0000000000
     21210      7070  TIP3      H2             23.3058333595       55.0784277139      -30.3023496465  W2        7070            0.0000000000
     21211      7071  TIP3      OH2            33.2225833595       54.4805877139      -18.0242896465  W2        7071            0.0000000000
     21212      7071  TIP3      H1             32.8715333595       53.6238877139      -17.7812496465  W2        7071            0.0000000000
     21213      7071  TIP3      H2             33.9489033595       54.6232577139      -17.4173896465  W2        7071            0.0000000000
     21214      7072  TIP3      OH2            21.9553233595       50.9914477139      -17.4194296465  W2        7072            0.0000000000
     21215      7072  TIP3      H1             22.0993733595       50.0895177139      -17.7057596465  W2        7072            0.0000000000
     21216      7072  TIP3      H2             21.1830633595       51.2776577139      -17.9071996465  W2        7072            0.0000000000
     21217      7073  TIP3      OH2            26.2966933595       51.3350177139      -35.2869696465  W2        7073            0.0000000000
     21218      7073  TIP3      H1             26.3611033595       50.5409777139      -34.7563296465  W2        7073            0.0000000000
     21219      7073  TIP3      H2             26.9496133595       51.2162977139      -35.9767696465  W2        7073            0.0000000000
     21220      7074  TIP3      OH2            28.6109333595       50.9612577139      -17.9867896465  W2        7074            0.0000000000
     21221      7074  TIP3      H1             28.2823133595       51.2320677139      -18.8440496465  W2        7074            0.0000000000
     21222      7074  TIP3      H2             28.7627533595       50.0202377139      -18.0742896465  W2        7074            0.0000000000
     21223      7075  TIP3      OH2            31.6490333595       52.3821877139      -35.5511696465  W2        7075            0.0000000000
     21224      7075  TIP3      H1             31.3804433595       52.5623977139      -34.6502796465  W2        7075            0.0000000000
     21225      7075  TIP3      H2             31.4425933595       51.4568077139      -35.6825896465  W2        7075            0.0000000000
     21226      7076  TIP3      OH2            34.3454533595       50.8769877139      -20.6035596465  W2        7076            0.0000000000
     21227      7076  TIP3      H1             35.0909333595       51.4653577139      -20.7231596465  W2        7076            0.0000000000
     21228      7076  TIP3      H2             33.5881333595       51.4589577139      -20.5402496465  W2        7076            0.0000000000
     21229      7077  TIP3      OH2            22.7879733595       48.1917777139      -17.9994996465  W2        7077            0.0000000000
     21230      7077  TIP3      H1             23.1960933595       47.3344377139      -18.1204396465  W2        7077            0.0000000000
     21231      7077  TIP3      H2             22.5277333595       48.2059077139      -17.0784696465  W2        7077            0.0000000000
     21232      7078  TIP3      OH2            27.4460733595       49.3076377139      -32.9811696465  W2        7078            0.0000000000
     21233      7078  TIP3      H1             26.9862733595       48.8234677139      -32.2953196465  W2        7078            0.0000000000
     21234      7078  TIP3      H2             27.7009433595       48.6391777139      -33.6171196465  W2        7078            0.0000000000
     21235      7079  TIP3      OH2            26.7350033595       47.2003477139      -20.6252096465  W2        7079            0.0000000000
     21236      7079  TIP3      H1             26.1166133595       47.8750077139      -20.3447396465  W2        7079            0.0000000000
     21237      7079  TIP3      H2             27.0791233595       47.5217377139      -21.4585896465  W2        7079            0.0000000000
     21238      7080  TIP3      OH2            28.5171133595       47.5508177139      -34.7188496465  W2        7080            0.0000000000
     21239      7080  TIP3      H1             28.3366133595       47.3959377139      -35.6460196465  W2        7080            0.0000000000
     21240      7080  TIP3      H2             29.4671633595       47.6586877139      -34.6740596465  W2        7080            0.0000000000
     21241      7081  TIP3      OH2            31.7548233595       49.6718777139      -17.3477296465  W2        7081            0.0000000000
     21242      7081  TIP3      H1             32.7079433595       49.7557877139      -17.3751296465  W2        7081            0.0000000000
     21243      7081  TIP3      H2             31.5942833595       48.9600577139      -16.7282396465  W2        7081            0.0000000000
     21244      7082  TIP3      OH2            37.9069433595       49.9052377139      -35.2730396465  W2        7082            0.0000000000
     21245      7082  TIP3      H1             37.6334233595       49.4807877139      -36.0862096465  W2        7082            0.0000000000
     21246      7082  TIP3      H2             37.9463533595       50.8366877139      -35.4899996465  W2        7082            0.0000000000
     21247      7083  TIP3      OH2            27.0743733595       44.5554277139      -19.5428996465  W2        7083            0.0000000000
     21248      7083  TIP3      H1             27.2244633595       43.8265577139      -20.1449296465  W2        7083            0.0000000000
     21249      7083  TIP3      H2             27.0766133595       45.3325977139      -20.1016796465  W2        7083            0.0000000000
     21250      7084  TIP3      OH2            27.4869433595       42.9250077139      -22.0501596465  W2        7084            0.0000000000
     21251      7084  TIP3      H1             28.0226933595       43.3766777139      -22.7022296465  W2        7084            0.0000000000
     21252      7084  TIP3      H2             26.6349033595       42.8169877139      -22.4727496465  W2        7084            0.0000000000
     21253      7085  TIP3      OH2            29.0687833595       48.3646277139      -21.8106396465  W2        7085            0.0000000000
     21254      7085  TIP3      H1             29.8192633595       48.2083777139      -22.3838596465  W2        7085            0.0000000000
     21255      7085  TIP3      H2             28.7296133595       49.2162877139      -22.0860896465  W2        7085            0.0000000000
     21256      7086  TIP3      OH2            33.4844033595       46.1798077139      -16.7821096465  W2        7086            0.0000000000
     21257      7086  TIP3      H1             33.6765333595       45.2487477139      -16.8936596465  W2        7086            0.0000000000
     21258      7086  TIP3      H2             34.3420333595       46.6047577139      -16.7925696465  W2        7086            0.0000000000
     21259      7087  TIP3      OH2            34.8011233595       48.9683277139      -18.7048396465  W2        7087            0.0000000000
     21260      7087  TIP3      H1             34.5196233595       49.6777877139      -19.2824596465  W2        7087            0.0000000000
     21261      7087  TIP3      H2             35.7435533595       48.8956277139      -18.8557196465  W2        7087            0.0000000000
     21262      7088  TIP3      OH2            25.5530033595       45.7537777139      -17.6313396465  W2        7088            0.0000000000
     21263      7088  TIP3      H1             24.7859033595       45.2212577139      -17.8415796465  W2        7088            0.0000000000
     21264      7088  TIP3      H2             26.2319033595       45.4438177139      -18.2307096465  W2        7088            0.0000000000
     21265      7089  TIP3      OH2            28.2924933595       40.3815777139      -21.6187996465  W2        7089            0.0000000000
     21266      7089  TIP3      H1             28.1944533595       41.3278977139      -21.7241796465  W2        7089            0.0000000000
     21267      7089  TIP3      H2             27.5501133595       40.0089577139      -22.0944496465  W2        7089            0.0000000000
     21268      7090  TIP3      OH2            29.5565433595       44.7031177139      -18.0549596465  W2        7090            0.0000000000
     21269      7090  TIP3      H1             29.3210833595       44.4837877139      -17.1534696465  W2        7090            0.0000000000
     21270      7090  TIP3      H2             28.7732333595       44.4962377139      -18.5647096465  W2        7090            0.0000000000
     21271      7091  TIP3      OH2            32.2722033595       43.8304677139      -18.9796096465  W2        7091            0.0000000000
     21272      7091  TIP3      H1             31.3247433595       43.8624377139      -18.8472796465  W2        7091            0.0000000000
     21273      7091  TIP3      H2             32.5848733595       43.2051777139      -18.3257896465  W2        7091            0.0000000000
     21274      7092  TIP3      OH2            33.9063533595       42.4645777139      -16.9744196465  W2        7092            0.0000000000
     21275      7092  TIP3      H1             33.8095333595       41.5123077139      -16.9802296465  W2        7092            0.0000000000
     21276      7092  TIP3      H2             33.5846633595       42.7332577139      -16.1138696465  W2        7092            0.0000000000
     21277      7093  TIP3      OH2            23.7332833595       43.6741577139      -17.9268696465  W2        7093            0.0000000000
     21278      7093  TIP3      H1             23.9450233595       42.9677677139      -18.5371196465  W2        7093            0.0000000000
     21279      7093  TIP3      H2             23.6220333595       43.2367577139      -17.0827496465  W2        7093            0.0000000000
     21280      7094  TIP3      OH2            28.5143033595       39.6753177139      -18.9475196465  W2        7094            0.0000000000
     21281      7094  TIP3      H1             29.2261433595       39.0355377139      -18.9616096465  W2        7094            0.0000000000
     21282      7094  TIP3      H2             28.4133433595       39.9421477139      -19.8612096465  W2        7094            0.0000000000
     21283      7095  TIP3      OH2            28.8680533595       41.3581577139      -16.8938896465  W2        7095            0.0000000000
     21284      7095  TIP3      H1             28.7362733595       40.8825377139      -17.7140396465  W2        7095            0.0000000000
     21285      7095  TIP3      H2             28.2687933595       42.1025177139      -16.9491796465  W2        7095            0.0000000000
     21286      7096  TIP3      OH2            21.9827733595       52.8775677139      -34.2346796465  W2        7096            0.0000000000
     21287      7096  TIP3      H1             22.8966933595       52.9564577139      -33.9612896465  W2        7096            0.0000000000
     21288      7096  TIP3      H2             21.9900833595       52.1905277139      -34.9011196465  W2        7096            0.0000000000
     21289      7097  TIP3      OH2            37.0642533595       52.5176777139      -16.8122496465  W2        7097            0.0000000000
     21290      7097  TIP3      H1             36.1983633595       52.4126477139      -16.4180196465  W2        7097            0.0000000000
     21291      7097  TIP3      H2             37.4408433595       53.2760077139      -16.3657796465  W2        7097            0.0000000000
     21292      7098  TIP3      OH2            38.3652233595       50.7740477139      -31.2979996465  W2        7098            0.0000000000
     21293      7098  TIP3      H1             39.2153633595       51.1951377139      -31.1708396465  W2        7098            0.0000000000
     21294      7098  TIP3      H2             38.3707333595       50.0340577139      -30.6908596465  W2        7098            0.0000000000
     21295      7099  TIP3      OH2            38.7597833595       48.8277877139      -29.4744296465  W2        7099            0.0000000000
     21296      7099  TIP3      H1             38.0332433595       48.3480477139      -29.0766696465  W2        7099            0.0000000000
     21297      7099  TIP3      H2             39.3411133595       49.0332577139      -28.7422696465  W2        7099            0.0000000000
     21298      7100  TIP3      OH2            38.5189033595       51.6125377139      -24.5266696465  W2        7100            0.0000000000
     21299      7100  TIP3      H1             39.3523233595       51.2345377139      -24.8073096465  W2        7100            0.0000000000
     21300      7100  TIP3      H2             38.6309333595       52.5556577139      -24.6457596465  W2        7100            0.0000000000
     21301      7101  TIP3      OH2            37.0051333595       54.4902877139      -22.2198296465  W2        7101            0.0000000000
     21302      7101  TIP3      H1             36.3576633595       54.8154377139      -21.5943096465  W2        7101            0.0000000000
     21303      7101  TIP3      H2             36.4875333595       54.0500577139      -22.8939996465  W2        7101            0.0000000000
     21304      7102  TIP3      OH2            39.0280933595       48.7286377139      -33.0832996465  W2        7102            0.0000000000
     21305      7102  TIP3      H1             38.5062033595       49.0850477139      -33.8022096465  W2        7102            0.0000000000
     21306      7102  TIP3      H2             38.9950133595       49.4034177139      -32.4052096465  W2        7102            0.0000000000
     21307      7103  TIP3      OH2            37.3769933595       45.9681977139      -34.5325896465  W2        7103            0.0000000000
     21308      7103  TIP3      H1             37.4734333595       46.6348977139      -35.2126196465  W2        7103            0.0000000000
     21309      7103  TIP3      H2             37.2369533595       45.1528277139      -35.0140396465  W2        7103            0.0000000000
     21310      7104  TIP3      OH2            36.5464633595       47.3484377139      -28.9115596465  W2        7104            0.0000000000
     21311      7104  TIP3      H1             36.3963433595       46.4032977139      -28.9317796465  W2        7104            0.0000000000
     21312      7104  TIP3      H2             36.1929133595       47.6295777139      -28.0676496465  W2        7104            0.0000000000
     21313      7105  TIP3      OH2            21.5817033595       49.4266577139      -24.9011796465  W2        7105            0.0000000000
     21314      7105  TIP3      H1             21.7659933595       49.3448277139      -25.8368896465  W2        7105            0.0000000000
     21315      7105  TIP3      H2             22.4309933595       49.3023577139      -24.4775396465  W2        7105            0.0000000000
     21316      7106  TIP3      OH2            37.4027533595       49.3187677139      -19.2727296465  W2        7106            0.0000000000
     21317      7106  TIP3      H1             37.9854833595       48.5839977139      -19.0810096465  W2        7106            0.0000000000
     21318      7106  TIP3      H2             37.9666833595       50.0907977139      -19.2261496465  W2        7106            0.0000000000
     21319      7107  TIP3      OH2            38.8994633595       47.2213477139      -18.5881896465  W2        7107            0.0000000000
     21320      7107  TIP3      H1             38.0361333595       46.8425577139      -18.7537196465  W2        7107            0.0000000000
     21321      7107  TIP3      H2             39.5038333595       46.4828277139      -18.6626096465  W2        7107            0.0000000000
     21322      7108  TIP3      OH2            36.6243733595       43.3761777139      -35.4150396465  W2        7108            0.0000000000
     21323      7108  TIP3      H1             37.2349533595       43.0048577139      -34.7782196465  W2        7108            0.0000000000
     21324      7108  TIP3      H2             35.7875233595       42.9548677139      -35.2190396465  W2        7108            0.0000000000
     21325      7109  TIP3      OH2            36.2569433595       44.9310177139      -30.4490496465  W2        7109            0.0000000000
     21326      7109  TIP3      H1             36.5366533595       44.0240577139      -30.3248796465  W2        7109            0.0000000000
     21327      7109  TIP3      H2             37.0161133595       45.3651677139      -30.8381296465  W2        7109            0.0000000000
     21328      7110  TIP3      OH2            36.8687733595       45.5127577139      -25.0131596465  W2        7110            0.0000000000
     21329      7110  TIP3      H1             37.8015733595       45.7247477139      -25.0475596465  W2        7110            0.0000000000
     21330      7110  TIP3      H2             36.6335233595       45.6139677139      -24.0908596465  W2        7110            0.0000000000
     21331      7111  TIP3      OH2            36.8979633595       46.2492877139      -22.2372196465  W2        7111            0.0000000000
     21332      7111  TIP3      H1             36.0550933595       46.5173277139      -21.8712396465  W2        7111            0.0000000000
     21333      7111  TIP3      H2             37.3403933595       47.0714777139      -22.4481096465  W2        7111            0.0000000000
     21334      7112  TIP3      OH2            21.1791833595       44.6971577139      -18.7602996465  W2        7112            0.0000000000
     21335      7112  TIP3      H1             22.0986733595       44.5749877139      -18.5239896465  W2        7112            0.0000000000
     21336      7112  TIP3      H2             20.7296333595       43.9471277139      -18.3709496465  W2        7112            0.0000000000
     21337      7113  TIP3      OH2            39.1811233595       40.2293077139      -16.8837196465  W2        7113            0.0000000000
     21338      7113  TIP3      H1             39.5308233595       39.5756577139      -17.4892496465  W2        7113            0.0000000000
     21339      7113  TIP3      H2             39.3280733595       41.0667177139      -17.3234596465  W2        7113            0.0000000000
     21340      7114  TIP3      OH2            36.8704233595       42.1939477139      -30.4008496465  W2        7114            0.0000000000
     21341      7114  TIP3      H1             37.0529233595       41.7450977139      -29.5753496465  W2        7114            0.0000000000
     21342      7114  TIP3      H2             36.2707133595       41.6093877139      -30.8643896465  W2        7114            0.0000000000
     21343      7115  TIP3      OH2            22.4004333595       43.0093177139      -25.8690096465  W2        7115            0.0000000000
     21344      7115  TIP3      H1             22.8455933595       42.2175677139      -25.5670396465  W2        7115            0.0000000000
     21345      7115  TIP3      H2             22.8667333595       43.7258377139      -25.4384496465  W2        7115            0.0000000000
     21346      7116  TIP3      OH2            20.7044633595       46.0086177139      -24.7999896465  W2        7116            0.0000000000
     21347      7116  TIP3      H1             21.1964433595       45.7876677139      -25.5907896465  W2        7116            0.0000000000
     21348      7116  TIP3      H2             21.0665533595       46.8489577139      -24.5190396465  W2        7116            0.0000000000
     21349      7117  TIP3      OH2            38.7008433595       42.3387677139      -18.5345896465  W2        7117            0.0000000000
     21350      7117  TIP3      H1             37.7834133595       42.6094777139      -18.5702396465  W2        7117            0.0000000000
     21351      7117  TIP3      H2             38.8237833595       41.8036077139      -19.3186196465  W2        7117            0.0000000000
     21352      7118  TIP3      OH2            38.7370433595       42.2617577139      -33.8728196465  W2        7118            0.0000000000
     21353      7118  TIP3      H1             39.1493033595       41.5403277139      -34.3480196465  W2        7118            0.0000000000
     21354      7118  TIP3      H2             39.4186933595       42.9312177139      -33.8143896465  W2        7118            0.0000000000
     21355      7119  TIP3      OH2            21.0181133595       42.2665277139      -30.7457496465  W2        7119            0.0000000000
     21356      7119  TIP3      H1             20.0929533595       42.4751877139      -30.8751996465  W2        7119            0.0000000000
     21357      7119  TIP3      H2             21.4721033595       42.7506077139      -31.4355196465  W2        7119            0.0000000000
     21358      7120  TIP3      OH2            20.9816533595       41.0044277139      -22.4014996465  W2        7120            0.0000000000
     21359      7120  TIP3      H1             20.3167033595       40.7584577139      -21.7584096465  W2        7120            0.0000000000
     21360      7120  TIP3      H2             20.5387833595       41.6264677139      -22.9786996465  W2        7120            0.0000000000
     21361      7121  TIP3      OH2            23.1735833595       54.1798377139      -18.2569196465  W2        7121            0.0000000000
     21362      7121  TIP3      H1             22.3528333595       54.3544877139      -18.7174496465  W2        7121            0.0000000000
     21363      7121  TIP3      H2             22.9213633595       54.1063077139      -17.3364796465  W2        7121            0.0000000000
     21364      7122  TIP3      OH2            37.7014333595       40.4283977139      -20.7155096465  W2        7122            0.0000000000
     21365      7122  TIP3      H1             36.8887833595       40.7534277139      -21.1030396465  W2        7122            0.0000000000
     21366      7122  TIP3      H2             37.9342833595       39.6682477139      -21.2485996465  W2        7122            0.0000000000
     21367      7123  TIP3      OH2            31.1312833595       41.8774577139      -26.3926896465  W2        7123            0.0000000000
     21368      7123  TIP3      H1             30.4569633595       41.2480177139      -26.1371096465  W2        7123            0.0000000000
     21369      7123  TIP3      H2             31.6952033595       41.3933477139      -26.9958996465  W2        7123            0.0000000000
     21370      7124  TIP3      OH2            36.2740033595       39.9848577139      -26.2799796465  W2        7124            0.0000000000
     21371      7124  TIP3      H1             36.8777633595       40.5323977139      -26.7818796465  W2        7124            0.0000000000
     21372      7124  TIP3      H2             35.4042033595       40.3038977139      -26.5205696465  W2        7124            0.0000000000
     21373      7125  TIP3      OH2            38.0010433595       41.1237277139      -27.9468896465  W2        7125            0.0000000000
     21374      7125  TIP3      H1             38.6127933595       40.6092977139      -28.4735296465  W2        7125            0.0000000000
     21375      7125  TIP3      H2             38.3833833595       42.0009377139      -27.9234496465  W2        7125            0.0000000000
     21376      7126  TIP3      OH2            23.4580333595       40.5114877139      -28.5706996465  W2        7126            0.0000000000
     21377      7126  TIP3      H1             22.6810133595       40.2769777139      -29.0781096465  W2        7126            0.0000000000
     21378      7126  TIP3      H2             23.9883933595       39.7146977139      -28.5618996465  W2        7126            0.0000000000
     21379      7127  TIP3      OH2            22.2943733595       40.3092977139      -32.7670896465  W2        7127            0.0000000000
     21380      7127  TIP3      H1             22.7334433595       40.9203477139      -33.3587396465  W2        7127            0.0000000000
     21381      7127  TIP3      H2             21.6606133595       40.8477077139      -32.2930896465  W2        7127            0.0000000000
     21382      7128  TIP3      OH2            28.0372933595       40.4381977139      -28.7573896465  W2        7128            0.0000000000
     21383      7128  TIP3      H1             28.9116333595       40.8266277139      -28.7869596465  W2        7128            0.0000000000
     21384      7128  TIP3      H2             27.9013733595       40.2229777139      -27.8346696465  W2        7128            0.0000000000
     21385      7129  TIP3      OH2            33.5941333595       40.4681777139      -27.1082196465  W2        7129            0.0000000000
     21386      7129  TIP3      H1             33.6702933595       40.5633377139      -28.0576196465  W2        7129            0.0000000000
     21387      7129  TIP3      H2             33.3190533595       39.5604677139      -26.9793096465  W2        7129            0.0000000000
     21388      7130  TIP3      OH2            34.9473933595       40.4939577139      -31.4157196465  W2        7130            0.0000000000
     21389      7130  TIP3      H1             34.2445033595       41.1088777139      -31.6255796465  W2        7130            0.0000000000
     21390      7130  TIP3      H2             34.5025333595       39.6566277139      -31.2846296465  W2        7130            0.0000000000
     21391      7131  TIP3      OH2            24.1552833595       42.2254477139      -34.3246796465  W2        7131            0.0000000000
     21392      7131  TIP3      H1             24.6466233595       41.5956877139      -34.8521296465  W2        7131            0.0000000000
     21393      7131  TIP3      H2             24.7789133595       42.5213877139      -33.6615596465  W2        7131            0.0000000000
     21394      7132  TIP3      OH2            29.1812933595       42.5185977139      -31.8676296465  W2        7132            0.0000000000
     21395      7132  TIP3      H1             29.3594233595       41.8719177139      -31.1847696465  W2        7132            0.0000000000
     21396      7132  TIP3      H2             29.1279133595       43.3523677139      -31.4005196465  W2        7132            0.0000000000
     21397      7133  TIP3      OH2            23.4158333595       41.0256777139      -19.0530796465  W2        7133            0.0000000000
     21398      7133  TIP3      H1             23.0496533595       40.2599377139      -18.6106096465  W2        7133            0.0000000000
     21399      7133  TIP3      H2             24.3286833595       41.0546977139      -18.7665696465  W2        7133            0.0000000000
     21400      7134  TIP3      OH2            25.3889133595       40.3761177139      -17.5173696465  W2        7134            0.0000000000
     21401      7134  TIP3      H1             26.2872733595       40.1021377139      -17.7020296465  W2        7134            0.0000000000
     21402      7134  TIP3      H2             25.0022233595       39.6337177139      -17.0531096465  W2        7134            0.0000000000
     21403      7135  TIP3      OH2            33.8101433595       39.7086477139      -17.3350896465  W2        7135            0.0000000000
     21404      7135  TIP3      H1             33.8868633595       39.2827177139      -16.4813196465  W2        7135            0.0000000000
     21405      7135  TIP3      H2             34.7038033595       39.7221177139      -17.6777396465  W2        7135            0.0000000000
     21406      7136  TIP3      OH2            51.3922933595       49.6677177139      -28.6119496465  W2        7136            0.0000000000
     21407      7136  TIP3      H1             51.4814033595       50.6115377139      -28.7442396465  W2        7136            0.0000000000
     21408      7136  TIP3      H2             50.7540533595       49.3923577139      -29.2700096465  W2        7136            0.0000000000
     21409      7137  TIP3      OH2            50.3254233595       48.9227877139      -25.1931296465  W2        7137            0.0000000000
     21410      7137  TIP3      H1             50.2871733595       48.2764177139      -24.4881696465  W2        7137            0.0000000000
     21411      7137  TIP3      H2             50.0030733595       48.4562277139      -25.9642596465  W2        7137            0.0000000000
     21412      7138  TIP3      OH2            42.6939233595       48.5369977139      -23.6001396465  W2        7138            0.0000000000
     21413      7138  TIP3      H1             42.7351333595       47.9113277139      -22.8768996465  W2        7138            0.0000000000
     21414      7138  TIP3      H2             43.3966933595       49.1608577139      -23.4180996465  W2        7138            0.0000000000
     21415      7139  TIP3      OH2            54.0314433595       51.8618277139      -26.8916196465  W2        7139            0.0000000000
     21416      7139  TIP3      H1             53.5907133595       51.1414277139      -26.4410596465  W2        7139            0.0000000000
     21417      7139  TIP3      H2             54.0184133595       52.5825477139      -26.2618496465  W2        7139            0.0000000000
     21418      7140  TIP3      OH2            43.6172333595       52.9868877139      -25.0652296465  W2        7140            0.0000000000
     21419      7140  TIP3      H1             43.2477533595       52.1849377139      -25.4347996465  W2        7140            0.0000000000
     21420      7140  TIP3      H2             44.5583433595       52.8183777139      -25.0188896465  W2        7140            0.0000000000
     21421      7141  TIP3      OH2            40.2272833595       46.6471477139      -29.6723496465  W2        7141            0.0000000000
     21422      7141  TIP3      H1             39.7796233595       47.4930177139      -29.6906996465  W2        7141            0.0000000000
     21423      7141  TIP3      H2             39.6664033595       46.0675677139      -30.1878396465  W2        7141            0.0000000000
     21424      7142  TIP3      OH2            40.9378933595       48.8091077139      -27.5465496465  W2        7142            0.0000000000
     21425      7142  TIP3      H1             41.1512433595       48.0392677139      -27.0192496465  W2        7142            0.0000000000
     21426      7142  TIP3      H2             41.6756533595       48.8987777139      -28.1497896465  W2        7142            0.0000000000
     21427      7143  TIP3      OH2            48.7148633595       51.3549277139      -24.7870296465  W2        7143            0.0000000000
     21428      7143  TIP3      H1             49.0186533595       50.6690677139      -25.3816196465  W2        7143            0.0000000000
     21429      7143  TIP3      H2             49.4362633595       51.4737977139      -24.1692296465  W2        7143            0.0000000000
     21430      7144  TIP3      OH2            51.8555633595       45.7491677139      -24.4595496465  W2        7144            0.0000000000
     21431      7144  TIP3      H1             51.9981533595       44.8028677139      -24.4393896465  W2        7144            0.0000000000
     21432      7144  TIP3      H2             51.7494633595       45.9561477139      -25.3880596465  W2        7144            0.0000000000
     21433      7145  TIP3      OH2            45.0103933595       43.8508077139      -27.1870696465  W2        7145            0.0000000000
     21434      7145  TIP3      H1             45.0535033595       44.7106577139      -27.6054396465  W2        7145            0.0000000000
     21435      7145  TIP3      H2             44.5528033595       43.2982777139      -27.8207496465  W2        7145            0.0000000000
     21436      7146  TIP3      OH2            52.7326633595       43.9813677139      -28.7862396465  W2        7146            0.0000000000
     21437      7146  TIP3      H1             53.3790933595       43.6526877139      -28.1614796465  W2        7146            0.0000000000
     21438      7146  TIP3      H2             53.2426033595       44.4992677139      -29.4090996465  W2        7146            0.0000000000
     21439      7147  TIP3      OH2            41.6305433595       46.2473877139      -26.4249296465  W2        7147            0.0000000000
     21440      7147  TIP3      H1             42.2842033595       45.6975577139      -25.9929196465  W2        7147            0.0000000000
     21441      7147  TIP3      H2             41.6544733595       45.9732877139      -27.3417296465  W2        7147            0.0000000000
     21442      7148  TIP3      OH2            46.7869933595       47.7975177139      -27.2097796465  W2        7148            0.0000000000
     21443      7148  TIP3      H1             47.4030933595       47.2710577139      -26.7003796465  W2        7148            0.0000000000
     21444      7148  TIP3      H2             46.2008733595       47.1573877139      -27.6134196465  W2        7148            0.0000000000
     21445      7149  TIP3      OH2            43.8205833595       42.7686477139      -23.1129896465  W2        7149            0.0000000000
     21446      7149  TIP3      H1             43.6017533595       43.2987077139      -23.8793896465  W2        7149            0.0000000000
     21447      7149  TIP3      H2             43.1526733595       42.9951977139      -22.4658496465  W2        7149            0.0000000000
     21448      7150  TIP3      OH2            51.1895633595       52.2687577139      -29.5690796465  W2        7150            0.0000000000
     21449      7150  TIP3      H1             50.8940733595       51.9459877139      -30.4203896465  W2        7150            0.0000000000
     21450      7150  TIP3      H2             50.8653433595       53.1684277139      -29.5278196465  W2        7150            0.0000000000
     21451      7151  TIP3      OH2            46.3897233595       50.4442177139      -22.8256196465  W2        7151            0.0000000000
     21452      7151  TIP3      H1             45.6496333595       51.0423677139      -22.7220996465  W2        7151            0.0000000000
     21453      7151  TIP3      H2             47.1036733595       50.9981777139      -23.1412596465  W2        7151            0.0000000000
     21454      7152  TIP3      OH2            54.4965033595       43.2722977139      -26.8056496465  W2        7152            0.0000000000
     21455      7152  TIP3      H1             54.2813033595       42.5066377139      -26.2730496465  W2        7152            0.0000000000
     21456      7152  TIP3      H2             55.1522433595       43.7447577139      -26.2927996465  W2        7152            0.0000000000
     21457      7153  TIP3      OH2            43.4143133595       44.6608277139      -25.1607696465  W2        7153            0.0000000000
     21458      7153  TIP3      H1             44.0279433595       45.2935877139      -24.7875296465  W2        7153            0.0000000000
     21459      7153  TIP3      H2             43.9263833595       44.1883277139      -25.8170796465  W2        7153            0.0000000000
     21460      7154  TIP3      OH2            44.7971533595       52.4085177139      -22.0384696465  W2        7154            0.0000000000
     21461      7154  TIP3      H1             44.7919133595       53.2878677139      -22.4165396465  W2        7154            0.0000000000
     21462      7154  TIP3      H2             43.9435633595       52.3249277139      -21.6134796465  W2        7154            0.0000000000
     21463      7155  TIP3      OH2            40.9182433595       52.0793077139      -31.2565396465  W2        7155            0.0000000000
     21464      7155  TIP3      H1             40.6463333595       52.3084077139      -32.1452496465  W2        7155            0.0000000000
     21465      7155  TIP3      H2             40.9638133595       52.9171877139      -30.7960096465  W2        7155            0.0000000000
     21466      7156  TIP3      OH2            54.5432133595       53.7008977139      -24.5436896465  W2        7156            0.0000000000
     21467      7156  TIP3      H1             53.6015833595       53.7592877139      -24.3819996465  W2        7156            0.0000000000
     21468      7156  TIP3      H2             54.8198233595       54.6069477139      -24.6807196465  W2        7156            0.0000000000
     21469      7157  TIP3      OH2            47.8470533595       40.0741577139      -25.6604996465  W2        7157            0.0000000000
     21470      7157  TIP3      H1             47.7294733595       39.1257577139      -25.7146696465  W2        7157            0.0000000000
     21471      7157  TIP3      H2             46.9920633595       40.4067677139      -25.3873896465  W2        7157            0.0000000000
     21472      7158  TIP3      OH2            53.9549833595       53.3830977139      -29.4098696465  W2        7158            0.0000000000
     21473      7158  TIP3      H1             53.6974633595       52.6931077139      -30.0212796465  W2        7158            0.0000000000
     21474      7158  TIP3      H2             54.0260633595       52.9402177139      -28.5642796465  W2        7158            0.0000000000
     21475      7159  TIP3      OH2            50.1135433595       48.9117177139      -31.1599196465  W2        7159            0.0000000000
     21476      7159  TIP3      H1             49.4020933595       49.4466877139      -31.5118696465  W2        7159            0.0000000000
     21477      7159  TIP3      H2             50.8045033595       48.9669277139      -31.8200296465  W2        7159            0.0000000000
     21478      7160  TIP3      OH2            50.1674633595       47.3691477139      -34.1214196465  W2        7160            0.0000000000
     21479      7160  TIP3      H1             50.8684533595       47.3918377139      -33.4700196465  W2        7160            0.0000000000
     21480      7160  TIP3      H2             50.4697533595       46.7411177139      -34.7774896465  W2        7160            0.0000000000
     21481      7161  TIP3      OH2            53.5193133595       49.1210477139      -30.2083296465  W2        7161            0.0000000000
     21482      7161  TIP3      H1             52.7874133595       49.3494177139      -29.6352696465  W2        7161            0.0000000000
     21483      7161  TIP3      H2             53.9665333595       48.4073177139      -29.7535796465  W2        7161            0.0000000000
     21484      7162  TIP3      OH2            53.4166633595       47.2953077139      -21.1406296465  W2        7162            0.0000000000
     21485      7162  TIP3      H1             53.4965733595       48.0587477139      -20.5687796465  W2        7162            0.0000000000
     21486      7162  TIP3      H2             52.8154333595       47.5745477139      -21.8311196465  W2        7162            0.0000000000
     21487      7163  TIP3      OH2            45.1646833595       49.7516677139      -28.3258296465  W2        7163            0.0000000000
     21488      7163  TIP3      H1             44.8342033595       49.3810077139      -29.1441296465  W2        7163            0.0000000000
     21489      7163  TIP3      H2             45.7530933595       49.0810677139      -27.9789996465  W2        7163            0.0000000000
     21490      7164  TIP3      OH2            46.5314333595       53.1797277139      -25.6446096465  W2        7164            0.0000000000
     21491      7164  TIP3      H1             46.4365633595       52.6010377139      -26.4011496465  W2        7164            0.0000000000
     21492      7164  TIP3      H2             47.2607933595       52.8082977139      -25.1483296465  W2        7164            0.0000000000
     21493      7165  TIP3      OH2            45.5312333595       48.5202277139      -24.6923296465  W2        7165            0.0000000000
     21494      7165  TIP3      H1             46.0964833595       48.6416477139      -25.4552096465  W2        7165            0.0000000000
     21495      7165  TIP3      H2             45.8501233595       49.1577277139      -24.0534796465  W2        7165            0.0000000000
     21496      7166  TIP3      OH2            51.8404533595       54.0234177139      -23.9582796465  W2        7166            0.0000000000
     21497      7166  TIP3      H1             51.6001133595       54.6857277139      -23.3103596465  W2        7166            0.0000000000
     21498      7166  TIP3      H2             51.6422733595       53.1889377139      -23.5333196465  W2        7166            0.0000000000
     21499      7167  TIP3      OH2            46.4113033595       52.9194977139      -19.9751396465  W2        7167            0.0000000000
     21500      7167  TIP3      H1             46.1000533595       53.7018177139      -19.5198196465  W2        7167            0.0000000000
     21501      7167  TIP3      H2             45.7613233595       52.7664077139      -20.6609396465  W2        7167            0.0000000000
     21502      7168  TIP3      OH2            52.3902633595       48.2833377139      -32.5232096465  W2        7168            0.0000000000
     21503      7168  TIP3      H1             52.9698133595       48.4333677139      -31.7763196465  W2        7168            0.0000000000
     21504      7168  TIP3      H2             52.8042633595       48.7540777139      -33.2465696465  W2        7168            0.0000000000
     21505      7169  TIP3      OH2            43.3312933595       49.1176077139      -20.7465696465  W2        7169            0.0000000000
     21506      7169  TIP3      H1             43.4016133595       49.7682877139      -20.0480696465  W2        7169            0.0000000000
     21507      7169  TIP3      H2             42.4405133595       49.2203577139      -21.0814796465  W2        7169            0.0000000000
     21508      7170  TIP3      OH2            44.6508933595       54.9909977139      -19.2117596465  W2        7170            0.0000000000
     21509      7170  TIP3      H1             44.6584233595       54.8549677139      -20.1592096465  W2        7170            0.0000000000
     21510      7170  TIP3      H2             43.7349333595       54.8738077139      -18.9597596465  W2        7170            0.0000000000
     21511      7171  TIP3      OH2            44.1549533595       48.8210977139      -30.7365496465  W2        7171            0.0000000000
     21512      7171  TIP3      H1             43.8630833595       49.5892677139      -31.2274196465  W2        7171            0.0000000000
     21513      7171  TIP3      H2             43.4804733595       48.1617177139      -30.8994096465  W2        7171            0.0000000000
     21514      7172  TIP3      OH2            40.2479633595       51.1840177139      -21.9215696465  W2        7172            0.0000000000
     21515      7172  TIP3      H1             39.7468033595       51.1559577139      -22.7365996465  W2        7172            0.0000000000
     21516      7172  TIP3      H2             40.2533333595       50.2783377139      -21.6118396465  W2        7172            0.0000000000
     21517      7173  TIP3      OH2            39.9982333595       53.9643977139      -25.0375496465  W2        7173            0.0000000000
     21518      7173  TIP3      H1             40.9442933595       53.8200977139      -25.0565996465  W2        7173            0.0000000000
     21519      7173  TIP3      H2             39.8858633595       54.7486777139      -24.5004296465  W2        7173            0.0000000000
     21520      7174  TIP3      OH2            49.1744833595       54.2042877139      -20.4790396465  W2        7174            0.0000000000
     21521      7174  TIP3      H1             49.2619433595       55.0307477139      -20.0041296465  W2        7174            0.0000000000
     21522      7174  TIP3      H2             48.3109933595       53.8746677139      -20.2301096465  W2        7174            0.0000000000
     21523      7175  TIP3      OH2            42.4970133595       52.5075577139      -20.8782896465  W2        7175            0.0000000000
     21524      7175  TIP3      H1             42.7131433595       52.1461177139      -20.0187096465  W2        7175            0.0000000000
     21525      7175  TIP3      H2             41.6414833595       52.1329377139      -21.0879396465  W2        7175            0.0000000000
     21526      7176  TIP3      OH2            45.1158133595       40.9776077139      -24.8828696465  W2        7176            0.0000000000
     21527      7176  TIP3      H1             44.2541833595       40.8904277139      -25.2905796465  W2        7176            0.0000000000
     21528      7176  TIP3      H2             45.0933833595       41.8336177139      -24.4551096465  W2        7176            0.0000000000
     21529      7177  TIP3      OH2            49.7785933595       40.6996477139      -21.5081696465  W2        7177            0.0000000000
     21530      7177  TIP3      H1             50.1989033595       40.2843577139      -20.7551096465  W2        7177            0.0000000000
     21531      7177  TIP3      H2             48.8455533595       40.5209777139      -21.3909696465  W2        7177            0.0000000000
     21532      7178  TIP3      OH2            53.1050833595       44.4551677139      -20.6547196465  W2        7178            0.0000000000
     21533      7178  TIP3      H1             52.5910333595       44.3293877139      -19.8571196465  W2        7178            0.0000000000
     21534      7178  TIP3      H2             52.9495533595       45.3674777139      -20.8990996465  W2        7178            0.0000000000
     21535      7179  TIP3      OH2            53.8675733595       49.3161677139      -34.8934196465  W2        7179            0.0000000000
     21536      7179  TIP3      H1             53.9096533595       49.0935577139      -35.8234196465  W2        7179            0.0000000000
     21537      7179  TIP3      H2             54.7167833595       49.7148777139      -34.7034296465  W2        7179            0.0000000000
     21538      7180  TIP3      OH2            49.4403233595       43.1919877139      -34.2230896465  W2        7180            0.0000000000
     21539      7180  TIP3      H1             49.1868033595       43.2111477139      -33.3002796465  W2        7180            0.0000000000
     21540      7180  TIP3      H2             49.1835333595       42.3205277139      -34.5244696465  W2        7180            0.0000000000
     21541      7181  TIP3      OH2            45.2068233595       45.9430577139      -23.7878496465  W2        7181            0.0000000000
     21542      7181  TIP3      H1             44.5650333595       45.9027877139      -23.0788396465  W2        7181            0.0000000000
     21543      7181  TIP3      H2             45.2440233595       46.8695277139      -24.0255496465  W2        7181            0.0000000000
     21544      7182  TIP3      OH2            45.2037333595       46.1640677139      -28.8758496465  W2        7182            0.0000000000
     21545      7182  TIP3      H1             44.3110233595       45.8236777139      -28.9344696465  W2        7182            0.0000000000
     21546      7182  TIP3      H2             45.6543933595       45.7871577139      -29.6315296465  W2        7182            0.0000000000
     21547      7183  TIP3      OH2            50.7392833595       46.5800977139      -30.0587696465  W2        7183            0.0000000000
     21548      7183  TIP3      H1             50.3303133595       47.3949577139      -30.3502896465  W2        7183            0.0000000000
     21549      7183  TIP3      H2             51.4599033595       46.4401077139      -30.6730596465  W2        7183            0.0000000000
     21550      7184  TIP3      OH2            49.8414433595       46.7557377139      -18.5706996465  W2        7184            0.0000000000
     21551      7184  TIP3      H1             49.2788233595       46.0508977139      -18.2499196465  W2        7184            0.0000000000
     21552      7184  TIP3      H2             50.6677833595       46.6349277139      -18.1029396465  W2        7184            0.0000000000
     21553      7185  TIP3      OH2            51.7440533595       46.0261377139      -27.2447996465  W2        7185            0.0000000000
     21554      7185  TIP3      H1             51.5485033595       46.6318177139      -27.9597396465  W2        7185            0.0000000000
     21555      7185  TIP3      H2             51.9253133595       45.1926577139      -27.6791696465  W2        7185            0.0000000000
     21556      7186  TIP3      OH2            42.9568733595       46.2634077139      -21.9206496465  W2        7186            0.0000000000
     21557      7186  TIP3      H1             42.9188133595       46.6635677139      -21.0519396465  W2        7186            0.0000000000
     21558      7186  TIP3      H2             42.4659833595       45.4466477139      -21.8303596465  W2        7186            0.0000000000
     21559      7187  TIP3      OH2            46.3226133595       43.6376377139      -35.1220496465  W2        7187            0.0000000000
     21560      7187  TIP3      H1             45.8916833595       43.1926477139      -34.3923096465  W2        7187            0.0000000000
     21561      7187  TIP3      H2             45.6044833595       44.0092677139      -35.6342996465  W2        7187            0.0000000000
     21562      7188  TIP3      OH2            39.5649533595       43.3795877139      -28.0701796465  W2        7188            0.0000000000
     21563      7188  TIP3      H1             40.1957233595       43.3507977139      -27.3507896465  W2        7188            0.0000000000
     21564      7188  TIP3      H2             40.0143833595       42.9544577139      -28.8005896465  W2        7188            0.0000000000
     21565      7189  TIP3      OH2            40.8391633595       44.1257877139      -32.6461396465  W2        7189            0.0000000000
     21566      7189  TIP3      H1             41.3133333595       44.7167777139      -33.2310496465  W2        7189            0.0000000000
     21567      7189  TIP3      H2             40.1218033595       44.6560777139      -32.2991296465  W2        7189            0.0000000000
     21568      7190  TIP3      OH2            51.0079733595       47.6642677139      -22.5735596465  W2        7190            0.0000000000
     21569      7190  TIP3      H1             51.3314533595       47.0332377139      -23.2165096465  W2        7190            0.0000000000
     21570      7190  TIP3      H2             50.5679033595       47.1294877139      -21.9128196465  W2        7190            0.0000000000
     21571      7191  TIP3      OH2            47.7852633595       43.5918177139      -27.7894396465  W2        7191            0.0000000000
     21572      7191  TIP3      H1             46.8743733595       43.6484977139      -27.5008396465  W2        7191            0.0000000000
     21573      7191  TIP3      H2             48.2905533595       43.5313677139      -26.9787196465  W2        7191            0.0000000000
     21574      7192  TIP3      OH2            42.6136033595       45.2204477139      -28.9626796465  W2        7192            0.0000000000
     21575      7192  TIP3      H1             41.7244033595       45.3199977139      -29.3027196465  W2        7192            0.0000000000
     21576      7192  TIP3      H2             42.9100933595       44.3787477139      -29.3088896465  W2        7192            0.0000000000
     21577      7193  TIP3      OH2            46.2667833595       45.2207077139      -31.3062196465  W2        7193            0.0000000000
     21578      7193  TIP3      H1             47.1983333595       45.3497077139      -31.1279096465  W2        7193            0.0000000000
     21579      7193  TIP3      H2             46.0518133595       45.8901377139      -31.9557496465  W2        7193            0.0000000000
     21580      7194  TIP3      OH2            52.1904533595       42.8264477139      -24.5252596465  W2        7194            0.0000000000
     21581      7194  TIP3      H1             51.5136133595       42.9577577139      -23.8612896465  W2        7194            0.0000000000
     21582      7194  TIP3      H2             51.7049433595       42.6713977139      -25.3354896465  W2        7194            0.0000000000
     21583      7195  TIP3      OH2            44.9408033595       46.4149277139      -33.7396096465  W2        7195            0.0000000000
     21584      7195  TIP3      H1             44.3983133595       46.0353077139      -34.4308496465  W2        7195            0.0000000000
     21585      7195  TIP3      H2             45.7742933595       46.6093977139      -34.1681996465  W2        7195            0.0000000000
     21586      7196  TIP3      OH2            43.0759433595       50.9721177139      -18.6404496465  W2        7196            0.0000000000
     21587      7196  TIP3      H1             43.8081833595       51.2267077139      -18.0789996465  W2        7196            0.0000000000
     21588      7196  TIP3      H2             42.2958133595       51.1766577139      -18.1249096465  W2        7196            0.0000000000
     21589      7197  TIP3      OH2            49.1052333595       46.3791177139      -25.9024796465  W2        7197            0.0000000000
     21590      7197  TIP3      H1             49.6695733595       45.8327777139      -26.4495196465  W2        7197            0.0000000000
     21591      7197  TIP3      H2             48.9575733595       45.8573077139      -25.1137196465  W2        7197            0.0000000000
     21592      7198  TIP3      OH2            44.1072033595       42.5157277139      -29.4839996465  W2        7198            0.0000000000
     21593      7198  TIP3      H1             43.7901533595       41.6132577139      -29.5194596465  W2        7198            0.0000000000
     21594      7198  TIP3      H2             44.8886133595       42.5174677139      -30.0368396465  W2        7198            0.0000000000
     21595      7199  TIP3      OH2            47.7318233595       44.7677277139      -23.4884396465  W2        7199            0.0000000000
     21596      7199  TIP3      H1             46.8963533595       45.2216777139      -23.3781996465  W2        7199            0.0000000000
     21597      7199  TIP3      H2             48.2558833595       45.0435777139      -22.7364496465  W2        7199            0.0000000000
     21598      7200  TIP3      OH2            48.2760833595       50.9804977139      -31.8037996465  W2        7200            0.0000000000
     21599      7200  TIP3      H1             47.5311833595       50.4730277139      -32.1260096465  W2        7200            0.0000000000
     21600      7200  TIP3      H2             48.1418033595       51.0292977139      -30.8573196465  W2        7200            0.0000000000
     21601      7201  TIP3      OH2            52.1737633595       43.7944877139      -33.6045396465  W2        7201            0.0000000000
     21602      7201  TIP3      H1             51.2351833595       43.9060477139      -33.7556596465  W2        7201            0.0000000000
     21603      7201  TIP3      H2             52.4709733595       44.6511777139      -33.2979696465  W2        7201            0.0000000000
     21604      7202  TIP3      OH2            49.7952933595       51.1648277139      -20.5668896465  W2        7202            0.0000000000
     21605      7202  TIP3      H1             49.4499033595       50.7830677139      -19.7599296465  W2        7202            0.0000000000
     21606      7202  TIP3      H2             49.5953033595       52.0981877139      -20.4955996465  W2        7202            0.0000000000
     21607      7203  TIP3      OH2            52.8921133595       45.6617577139      -31.9437996465  W2        7203            0.0000000000
     21608      7203  TIP3      H1             53.7840133595       45.5242577139      -31.6246796465  W2        7203            0.0000000000
     21609      7203  TIP3      H2             52.9484733595       46.4523677139      -32.4804496465  W2        7203            0.0000000000
     21610      7204  TIP3      OH2            43.4009133595       50.2754977139      -26.0340096465  W2        7204            0.0000000000
     21611      7204  TIP3      H1             44.1456333595       50.2730677139      -26.6353596465  W2        7204            0.0000000000
     21612      7204  TIP3      H2             43.4785733595       49.4518777139      -25.5524996465  W2        7204            0.0000000000
     21613      7205  TIP3      OH2            50.4014933595       52.4389277139      -32.7783396465  W2        7205            0.0000000000
     21614      7205  TIP3      H1             50.1063333595       53.2657177139      -32.3968596465  W2        7205            0.0000000000
     21615      7205  TIP3      H2             49.6984933595       51.8196177139      -32.5821996465  W2        7205            0.0000000000
     21616      7206  TIP3      OH2            40.4088833595       48.7361877139      -20.7191596465  W2        7206            0.0000000000
     21617      7206  TIP3      H1             40.6317433595       48.3181477139      -19.8874096465  W2        7206            0.0000000000
     21618      7206  TIP3      H2             39.8068933595       48.1236877139      -21.1418796465  W2        7206            0.0000000000
     21619      7207  TIP3      OH2            47.4253733595       48.2531777139      -18.5061896465  W2        7207            0.0000000000
     21620      7207  TIP3      H1             47.1294533595       48.0874777139      -19.4012796465  W2        7207            0.0000000000
     21621      7207  TIP3      H2             48.3568933595       48.0332077139      -18.5167996465  W2        7207            0.0000000000
     21622      7208  TIP3      OH2            52.0456533595       53.6263777139      -20.6163896465  W2        7208            0.0000000000
     21623      7208  TIP3      H1             51.1450833595       53.8096377139      -20.8839996465  W2        7208            0.0000000000
     21624      7208  TIP3      H2             52.0797633595       53.8853077139      -19.6955096465  W2        7208            0.0000000000
     21625      7209  TIP3      OH2            53.2325433595       49.4651577139      -24.7627296465  W2        7209            0.0000000000
     21626      7209  TIP3      H1             52.3042333595       49.2333477139      -24.7897996465  W2        7209            0.0000000000
     21627      7209  TIP3      H2             53.6836533595       48.6881377139      -25.0928496465  W2        7209            0.0000000000
     21628      7210  TIP3      OH2            45.7758533595       53.7933177139      -28.6298596465  W2        7210            0.0000000000
     21629      7210  TIP3      H1             46.3030733595       54.5667577139      -28.8299796465  W2        7210            0.0000000000
     21630      7210  TIP3      H2             44.8957033595       54.0182377139      -28.9314596465  W2        7210            0.0000000000
     21631      7211  TIP3      OH2            41.5306233595       48.6557277139      -34.0426196465  W2        7211            0.0000000000
     21632      7211  TIP3      H1             42.1466133595       49.2824477139      -33.6631396465  W2        7211            0.0000000000
     21633      7211  TIP3      H2             40.6688833595       48.9717077139      -33.7709696465  W2        7211            0.0000000000
     21634      7212  TIP3      OH2            47.2030833595       51.4563077139      -29.0534296465  W2        7212            0.0000000000
     21635      7212  TIP3      H1             46.9620833595       52.3817477139      -29.0118996465  W2        7212            0.0000000000
     21636      7212  TIP3      H2             46.4624433595       50.9974377139      -28.6570396465  W2        7212            0.0000000000
     21637      7213  TIP3      OH2            51.2618233595       51.7047377139      -23.0377596465  W2        7213            0.0000000000
     21638      7213  TIP3      H1             50.8359533595       51.4769077139      -22.2113596465  W2        7213            0.0000000000
     21639      7213  TIP3      H2             51.8424033595       50.9659177139      -23.2202296465  W2        7213            0.0000000000
     21640      7214  TIP3      OH2            53.4647133595       52.6337877139      -33.9638596465  W2        7214            0.0000000000
     21641      7214  TIP3      H1             53.8180233595       52.2537677139      -33.1595096465  W2        7214            0.0000000000
     21642      7214  TIP3      H2             52.5160633595       52.5402677139      -33.8769296465  W2        7214            0.0000000000
     21643      7215  TIP3      OH2            42.0428333595       43.4894577139      -21.1610196465  W2        7215            0.0000000000
     21644      7215  TIP3      H1             41.1500633595       43.8279977139      -21.2286196465  W2        7215            0.0000000000
     21645      7215  TIP3      H2             41.9441133595       42.6340677139      -20.7429396465  W2        7215            0.0000000000
     21646      7216  TIP3      OH2            54.3306433595       51.3059877139      -31.7370696465  W2        7216            0.0000000000
     21647      7216  TIP3      H1             54.0534033595       50.5779177139      -31.1809596465  W2        7216            0.0000000000
     21648      7216  TIP3      H2             55.2579433595       51.4251877139      -31.5318096465  W2        7216            0.0000000000
     21649      7217  TIP3      OH2            47.5554933595       53.7453977139      -35.5168596465  W2        7217            0.0000000000
     21650      7217  TIP3      H1             47.7944733595       52.9972077139      -36.0639696465  W2        7217            0.0000000000
     21651      7217  TIP3      H2             47.2866233595       53.3575677139      -34.6840796465  W2        7217            0.0000000000
     21652      7218  TIP3      OH2            46.4925533595       53.3157777139      -33.0605996465  W2        7218            0.0000000000
     21653      7218  TIP3      H1             46.6393533595       52.7957577139      -32.2705096465  W2        7218            0.0000000000
     21654      7218  TIP3      H2             46.4897233595       54.2225377139      -32.7540096465  W2        7218            0.0000000000
     21655      7219  TIP3      OH2            42.9456633595       50.5681077139      -32.5500596465  W2        7219            0.0000000000
     21656      7219  TIP3      H1             42.2595933595       50.9203577139      -31.9830896465  W2        7219            0.0000000000
     21657      7219  TIP3      H2             43.4684533595       51.3310677139      -32.7966296465  W2        7219            0.0000000000
     21658      7220  TIP3      OH2            50.7771733595       43.2304877139      -22.2711596465  W2        7220            0.0000000000
     21659      7220  TIP3      H1             51.4759633595       43.3043577139      -21.6211896465  W2        7220            0.0000000000
     21660      7220  TIP3      H2             50.3963133595       42.3659877139      -22.1168696465  W2        7220            0.0000000000
     21661      7221  TIP3      OH2            51.5616633595       42.8826577139      -31.1739296465  W2        7221            0.0000000000
     21662      7221  TIP3      H1             51.7814933595       43.3541977139      -31.9773896465  W2        7221            0.0000000000
     21663      7221  TIP3      H2             52.1200633595       43.2769177139      -30.5038696465  W2        7221            0.0000000000
     21664      7222  TIP3      OH2            48.7616533595       44.6105377139      -30.3390896465  W2        7222            0.0000000000
     21665      7222  TIP3      H1             49.5739133595       45.1148577139      -30.2929196465  W2        7222            0.0000000000
     21666      7222  TIP3      H2             48.5169533595       44.4655077139      -29.4251296465  W2        7222            0.0000000000
     21667      7223  TIP3      OH2            49.2972933595       45.5968077139      -21.1544296465  W2        7223            0.0000000000
     21668      7223  TIP3      H1             49.4163233595       46.1703477139      -20.3973896465  W2        7223            0.0000000000
     21669      7223  TIP3      H2             49.9527533595       44.9087477139      -21.0396496465  W2        7223            0.0000000000
     21670      7224  TIP3      OH2            49.6453233595       41.6918377139      -29.4009796465  W2        7224            0.0000000000
     21671      7224  TIP3      H1             49.2986733595       42.3088977139      -28.7565496465  W2        7224            0.0000000000
     21672      7224  TIP3      H2             50.3040133595       42.1924077139      -29.8824296465  W2        7224            0.0000000000
     21673      7225  TIP3      OH2            45.3030233595       42.7547777139      -32.7137296465  W2        7225            0.0000000000
     21674      7225  TIP3      H1             45.2195033595       43.6430877139      -32.3670896465  W2        7225            0.0000000000
     21675      7225  TIP3      H2             46.1930533595       42.4894477139      -32.4820496465  W2        7225            0.0000000000
     21676      7226  TIP3      OH2            54.1039733595       47.2539377139      -26.2237296465  W2        7226            0.0000000000
     21677      7226  TIP3      H1             53.3064133595       46.8389577139      -26.5522296465  W2        7226            0.0000000000
     21678      7226  TIP3      H2             54.5490833595       46.5633077139      -25.7326796465  W2        7226            0.0000000000
     21679      7227  TIP3      OH2            43.5615533595       53.1819977139      -33.6532796465  W2        7227            0.0000000000
     21680      7227  TIP3      H1             44.1537033595       53.8814777139      -33.3770396465  W2        7227            0.0000000000
     21681      7227  TIP3      H2             44.0208533595       52.7489477139      -34.3728196465  W2        7227            0.0000000000
     21682      7228  TIP3      OH2            41.8774733595       45.8462977139      -34.5373396465  W2        7228            0.0000000000
     21683      7228  TIP3      H1             41.8327333595       46.7856077139      -34.3586396465  W2        7228            0.0000000000
     21684      7228  TIP3      H2             40.9897933595       45.6107877139      -34.8071296465  W2        7228            0.0000000000
     21685      7229  TIP3      OH2            42.6856733595       40.6279577139      -25.8642396465  W2        7229            0.0000000000
     21686      7229  TIP3      H1             42.4566533595       40.6872077139      -26.7917396465  W2        7229            0.0000000000
     21687      7229  TIP3      H2             42.2430133595       39.8365077139      -25.5578296465  W2        7229            0.0000000000
     21688      7230  TIP3      OH2            41.6160033595       54.5686677139      -29.7036596465  W2        7230            0.0000000000
     21689      7230  TIP3      H1             40.7838633595       55.0409377139      -29.6765196465  W2        7230            0.0000000000
     21690      7230  TIP3      H2             42.1618333595       55.0784277139      -30.3023496465  W2        7230            0.0000000000
     21691      7231  TIP3      OH2            52.0785833595       54.4805877139      -18.0242896465  W2        7231            0.0000000000
     21692      7231  TIP3      H1             51.7275333595       53.6238877139      -17.7812496465  W2        7231            0.0000000000
     21693      7231  TIP3      H2             52.8049033595       54.6232577139      -17.4173896465  W2        7231            0.0000000000
     21694      7232  TIP3      OH2            40.8113233595       50.9914477139      -17.4194296465  W2        7232            0.0000000000
     21695      7232  TIP3      H1             40.9553733595       50.0895177139      -17.7057596465  W2        7232            0.0000000000
     21696      7232  TIP3      H2             40.0390633595       51.2776577139      -17.9071996465  W2        7232            0.0000000000
     21697      7233  TIP3      OH2            45.1526933595       51.3350177139      -35.2869696465  W2        7233            0.0000000000
     21698      7233  TIP3      H1             45.2171033595       50.5409777139      -34.7563296465  W2        7233            0.0000000000
     21699      7233  TIP3      H2             45.8056133595       51.2162977139      -35.9767696465  W2        7233            0.0000000000
     21700      7234  TIP3      OH2            47.4669333595       50.9612577139      -17.9867896465  W2        7234            0.0000000000
     21701      7234  TIP3      H1             47.1383133595       51.2320677139      -18.8440496465  W2        7234            0.0000000000
     21702      7234  TIP3      H2             47.6187533595       50.0202377139      -18.0742896465  W2        7234            0.0000000000
     21703      7235  TIP3      OH2            50.5050333595       52.3821877139      -35.5511696465  W2        7235            0.0000000000
     21704      7235  TIP3      H1             50.2364433595       52.5623977139      -34.6502796465  W2        7235            0.0000000000
     21705      7235  TIP3      H2             50.2985933595       51.4568077139      -35.6825896465  W2        7235            0.0000000000
     21706      7236  TIP3      OH2            53.2014533595       50.8769877139      -20.6035596465  W2        7236            0.0000000000
     21707      7236  TIP3      H1             53.9469333595       51.4653577139      -20.7231596465  W2        7236            0.0000000000
     21708      7236  TIP3      H2             52.4441333595       51.4589577139      -20.5402496465  W2        7236            0.0000000000
     21709      7237  TIP3      OH2            41.6439733595       48.1917777139      -17.9994996465  W2        7237            0.0000000000
     21710      7237  TIP3      H1             42.0520933595       47.3344377139      -18.1204396465  W2        7237            0.0000000000
     21711      7237  TIP3      H2             41.3837333595       48.2059077139      -17.0784696465  W2        7237            0.0000000000
     21712      7238  TIP3      OH2            46.3020733595       49.3076377139      -32.9811696465  W2        7238            0.0000000000
     21713      7238  TIP3      H1             45.8422733595       48.8234677139      -32.2953196465  W2        7238            0.0000000000
     21714      7238  TIP3      H2             46.5569433595       48.6391777139      -33.6171196465  W2        7238            0.0000000000
     21715      7239  TIP3      OH2            45.5910033595       47.2003477139      -20.6252096465  W2        7239            0.0000000000
     21716      7239  TIP3      H1             44.9726133595       47.8750077139      -20.3447396465  W2        7239            0.0000000000
     21717      7239  TIP3      H2             45.9351233595       47.5217377139      -21.4585896465  W2        7239            0.0000000000
     21718      7240  TIP3      OH2            47.3731133595       47.5508177139      -34.7188496465  W2        7240            0.0000000000
     21719      7240  TIP3      H1             47.1926133595       47.3959377139      -35.6460196465  W2        7240            0.0000000000
     21720      7240  TIP3      H2             48.3231633595       47.6586877139      -34.6740596465  W2        7240            0.0000000000
     21721      7241  TIP3      OH2            50.6108233595       49.6718777139      -17.3477296465  W2        7241            0.0000000000
     21722      7241  TIP3      H1             51.5639433595       49.7557877139      -17.3751296465  W2        7241            0.0000000000
     21723      7241  TIP3      H2             50.4502833595       48.9600577139      -16.7282396465  W2        7241            0.0000000000
     21724      7242  TIP3      OH2            45.9303733595       44.5554277139      -19.5428996465  W2        7242            0.0000000000
     21725      7242  TIP3      H1             46.0804633595       43.8265577139      -20.1449296465  W2        7242            0.0000000000
     21726      7242  TIP3      H2             45.9326133595       45.3325977139      -20.1016796465  W2        7242            0.0000000000
     21727      7243  TIP3      OH2            46.3429433595       42.9250077139      -22.0501596465  W2        7243            0.0000000000
     21728      7243  TIP3      H1             46.8786933595       43.3766777139      -22.7022296465  W2        7243            0.0000000000
     21729      7243  TIP3      H2             45.4909033595       42.8169877139      -22.4727496465  W2        7243            0.0000000000
     21730      7244  TIP3      OH2            47.9247833595       48.3646277139      -21.8106396465  W2        7244            0.0000000000
     21731      7244  TIP3      H1             48.6752633595       48.2083777139      -22.3838596465  W2        7244            0.0000000000
     21732      7244  TIP3      H2             47.5856133595       49.2162877139      -22.0860896465  W2        7244            0.0000000000
     21733      7245  TIP3      OH2            52.3404033595       46.1798077139      -16.7821096465  W2        7245            0.0000000000
     21734      7245  TIP3      H1             52.5325333595       45.2487477139      -16.8936596465  W2        7245            0.0000000000
     21735      7245  TIP3      H2             53.1980333595       46.6047577139      -16.7925696465  W2        7245            0.0000000000
     21736      7246  TIP3      OH2            53.6571233595       48.9683277139      -18.7048396465  W2        7246            0.0000000000
     21737      7246  TIP3      H1             53.3756233595       49.6777877139      -19.2824596465  W2        7246            0.0000000000
     21738      7246  TIP3      H2             54.5995533595       48.8956277139      -18.8557196465  W2        7246            0.0000000000
     21739      7247  TIP3      OH2            44.4090033595       45.7537777139      -17.6313396465  W2        7247            0.0000000000
     21740      7247  TIP3      H1             43.6419033595       45.2212577139      -17.8415796465  W2        7247            0.0000000000
     21741      7247  TIP3      H2             45.0879033595       45.4438177139      -18.2307096465  W2        7247            0.0000000000
     21742      7248  TIP3      OH2            47.1484933595       40.3815777139      -21.6187996465  W2        7248            0.0000000000
     21743      7248  TIP3      H1             47.0504533595       41.3278977139      -21.7241796465  W2        7248            0.0000000000
     21744      7248  TIP3      H2             46.4061133595       40.0089577139      -22.0944496465  W2        7248            0.0000000000
     21745      7249  TIP3      OH2            48.4125433595       44.7031177139      -18.0549596465  W2        7249            0.0000000000
     21746      7249  TIP3      H1             48.1770833595       44.4837877139      -17.1534696465  W2        7249            0.0000000000
     21747      7249  TIP3      H2             47.6292333595       44.4962377139      -18.5647096465  W2        7249            0.0000000000
     21748      7250  TIP3      OH2            51.1282033595       43.8304677139      -18.9796096465  W2        7250            0.0000000000
     21749      7250  TIP3      H1             50.1807433595       43.8624377139      -18.8472796465  W2        7250            0.0000000000
     21750      7250  TIP3      H2             51.4408733595       43.2051777139      -18.3257896465  W2        7250            0.0000000000
     21751      7251  TIP3      OH2            52.7623533595       42.4645777139      -16.9744196465  W2        7251            0.0000000000
     21752      7251  TIP3      H1             52.6655333595       41.5123077139      -16.9802296465  W2        7251            0.0000000000
     21753      7251  TIP3      H2             52.4406633595       42.7332577139      -16.1138696465  W2        7251            0.0000000000
     21754      7252  TIP3      OH2            42.5892833595       43.6741577139      -17.9268696465  W2        7252            0.0000000000
     21755      7252  TIP3      H1             42.8010233595       42.9677677139      -18.5371196465  W2        7252            0.0000000000
     21756      7252  TIP3      H2             42.4780333595       43.2367577139      -17.0827496465  W2        7252            0.0000000000
     21757      7253  TIP3      OH2            47.3703033595       39.6753177139      -18.9475196465  W2        7253            0.0000000000
     21758      7253  TIP3      H1             48.0821433595       39.0355377139      -18.9616096465  W2        7253            0.0000000000
     21759      7253  TIP3      H2             47.2693433595       39.9421477139      -19.8612096465  W2        7253            0.0000000000
     21760      7254  TIP3      OH2            47.7240533595       41.3581577139      -16.8938896465  W2        7254            0.0000000000
     21761      7254  TIP3      H1             47.5922733595       40.8825377139      -17.7140396465  W2        7254            0.0000000000
     21762      7254  TIP3      H2             47.1247933595       42.1025177139      -16.9491796465  W2        7254            0.0000000000
     21763      7255  TIP3      OH2            40.8387733595       52.8775677139      -34.2346796465  W2        7255            0.0000000000
     21764      7255  TIP3      H1             41.7526933595       52.9564577139      -33.9612896465  W2        7255            0.0000000000
     21765      7255  TIP3      H2             40.8460833595       52.1905277139      -34.9011196465  W2        7255            0.0000000000
     21766      7256  TIP3      OH2            40.4377033595       49.4266577139      -24.9011796465  W2        7256            0.0000000000
     21767      7256  TIP3      H1             40.6219933595       49.3448277139      -25.8368896465  W2        7256            0.0000000000
     21768      7256  TIP3      H2             41.2869933595       49.3023577139      -24.4775396465  W2        7256            0.0000000000
     21769      7257  TIP3      OH2            40.0351833595       44.6971577139      -18.7602996465  W2        7257            0.0000000000
     21770      7257  TIP3      H1             40.9546733595       44.5749877139      -18.5239896465  W2        7257            0.0000000000
     21771      7257  TIP3      H2             39.5856333595       43.9471277139      -18.3709496465  W2        7257            0.0000000000
     21772      7258  TIP3      OH2            41.2564333595       43.0093177139      -25.8690096465  W2        7258            0.0000000000
     21773      7258  TIP3      H1             41.7015933595       42.2175677139      -25.5670396465  W2        7258            0.0000000000
     21774      7258  TIP3      H2             41.7227333595       43.7258377139      -25.4384496465  W2        7258            0.0000000000
     21775      7259  TIP3      OH2            39.5604633595       46.0086177139      -24.7999896465  W2        7259            0.0000000000
     21776      7259  TIP3      H1             40.0524433595       45.7876677139      -25.5907896465  W2        7259            0.0000000000
     21777      7259  TIP3      H2             39.9225533595       46.8489577139      -24.5190396465  W2        7259            0.0000000000
     21778      7260  TIP3      OH2            39.8741133595       42.2665277139      -30.7457496465  W2        7260            0.0000000000
     21779      7260  TIP3      H1             38.9489533595       42.4751877139      -30.8751996465  W2        7260            0.0000000000
     21780      7260  TIP3      H2             40.3281033595       42.7506077139      -31.4355196465  W2        7260            0.0000000000
     21781      7261  TIP3      OH2            39.8376533595       41.0044277139      -22.4014996465  W2        7261            0.0000000000
     21782      7261  TIP3      H1             39.1727033595       40.7584577139      -21.7584096465  W2        7261            0.0000000000
     21783      7261  TIP3      H2             39.3947833595       41.6264677139      -22.9786996465  W2        7261            0.0000000000
     21784      7262  TIP3      OH2            42.0295833595       54.1798377139      -18.2569196465  W2        7262            0.0000000000
     21785      7262  TIP3      H1             41.2088333595       54.3544877139      -18.7174496465  W2        7262            0.0000000000
     21786      7262  TIP3      H2             41.7773633595       54.1063077139      -17.3364796465  W2        7262            0.0000000000
     21787      7263  TIP3      OH2            49.9872833595       41.8774577139      -26.3926896465  W2        7263            0.0000000000
     21788      7263  TIP3      H1             49.3129633595       41.2480177139      -26.1371096465  W2        7263            0.0000000000
     21789      7263  TIP3      H2             50.5512033595       41.3933477139      -26.9958996465  W2        7263            0.0000000000
     21790      7264  TIP3      OH2            42.3140333595       40.5114877139      -28.5706996465  W2        7264            0.0000000000
     21791      7264  TIP3      H1             41.5370133595       40.2769777139      -29.0781096465  W2        7264            0.0000000000
     21792      7264  TIP3      H2             42.8443933595       39.7146977139      -28.5618996465  W2        7264            0.0000000000
     21793      7265  TIP3      OH2            41.1503733595       40.3092977139      -32.7670896465  W2        7265            0.0000000000
     21794      7265  TIP3      H1             41.5894433595       40.9203477139      -33.3587396465  W2        7265            0.0000000000
     21795      7265  TIP3      H2             40.5166133595       40.8477077139      -32.2930896465  W2        7265            0.0000000000
     21796      7266  TIP3      OH2            46.8932933595       40.4381977139      -28.7573896465  W2        7266            0.0000000000
     21797      7266  TIP3      H1             47.7676333595       40.8266277139      -28.7869596465  W2        7266            0.0000000000
     21798      7266  TIP3      H2             46.7573733595       40.2229777139      -27.8346696465  W2        7266            0.0000000000
     21799      7267  TIP3      OH2            52.4501333595       40.4681777139      -27.1082196465  W2        7267            0.0000000000
     21800      7267  TIP3      H1             52.5262933595       40.5633377139      -28.0576196465  W2        7267            0.0000000000
     21801      7267  TIP3      H2             52.1750533595       39.5604677139      -26.9793096465  W2        7267            0.0000000000
     21802      7268  TIP3      OH2            53.8033933595       40.4939577139      -31.4157196465  W2        7268            0.0000000000
     21803      7268  TIP3      H1             53.1005033595       41.1088777139      -31.6255796465  W2        7268            0.0000000000
     21804      7268  TIP3      H2             53.3585333595       39.6566277139      -31.2846296465  W2        7268            0.0000000000
     21805      7269  TIP3      OH2            43.0112833595       42.2254477139      -34.3246796465  W2        7269            0.0000000000
     21806      7269  TIP3      H1             43.5026233595       41.5956877139      -34.8521296465  W2        7269            0.0000000000
     21807      7269  TIP3      H2             43.6349133595       42.5213877139      -33.6615596465  W2        7269            0.0000000000
     21808      7270  TIP3      OH2            48.0372933595       42.5185977139      -31.8676296465  W2        7270            0.0000000000
     21809      7270  TIP3      H1             48.2154233595       41.8719177139      -31.1847696465  W2        7270            0.0000000000
     21810      7270  TIP3      H2             47.9839133595       43.3523677139      -31.4005196465  W2        7270            0.0000000000
     21811      7271  TIP3      OH2            42.2718333595       41.0256777139      -19.0530796465  W2        7271            0.0000000000
     21812      7271  TIP3      H1             41.9056533595       40.2599377139      -18.6106096465  W2        7271            0.0000000000
     21813      7271  TIP3      H2             43.1846833595       41.0546977139      -18.7665696465  W2        7271            0.0000000000
     21814      7272  TIP3      OH2            44.2449133595       40.3761177139      -17.5173696465  W2        7272            0.0000000000
     21815      7272  TIP3      H1             45.1432733595       40.1021377139      -17.7020296465  W2        7272            0.0000000000
     21816      7272  TIP3      H2             43.8582233595       39.6337177139      -17.0531096465  W2        7272            0.0000000000
     21817      7273  TIP3      OH2            52.6661433595       39.7086477139      -17.3350896465  W2        7273            0.0000000000
     21818      7273  TIP3      H1             52.7428633595       39.2827177139      -16.4813196465  W2        7273            0.0000000000
     21819      7273  TIP3      H2             53.5598033595       39.7221177139      -17.6777396465  W2        7273            0.0000000000
     21820      7274  TIP3      OH2           -42.8877066405      -44.6122822861       -9.7559496465  W2        7274            0.0000000000
     21821      7274  TIP3      H1            -42.7985966405      -43.6684622861       -9.8882396465  W2        7274            0.0000000000
     21822      7274  TIP3      H2            -43.5259466405      -44.8876422861      -10.4140096465  W2        7274            0.0000000000
     21823      7275  TIP3      OH2           -43.9545766405      -45.3572122861       -6.3371296465  W2        7275            0.0000000000
     21824      7275  TIP3      H1            -43.9928266405      -46.0035822861       -5.6321696465  W2        7275            0.0000000000
     21825      7275  TIP3      H2            -44.2769266405      -45.8237722861       -7.1082596465  W2        7275            0.0000000000
     21826      7276  TIP3      OH2           -51.5860766405      -45.7430022861       -4.7441396465  W2        7276            0.0000000000
     21827      7276  TIP3      H1            -51.5448666405      -46.3686722861       -4.0208996465  W2        7276            0.0000000000
     21828      7276  TIP3      H2            -50.8833066405      -45.1191422861       -4.5620996465  W2        7276            0.0000000000
     21829      7277  TIP3      OH2           -40.2485566405      -42.4181722861       -8.0356196465  W2        7277            0.0000000000
     21830      7277  TIP3      H1            -40.6892866405      -43.1385722861       -7.5850596465  W2        7277            0.0000000000
     21831      7277  TIP3      H2            -40.2615866405      -41.6974522861       -7.4058496465  W2        7277            0.0000000000
     21832      7278  TIP3      OH2           -50.6627666405      -41.2931122861       -6.2092296465  W2        7278            0.0000000000
     21833      7278  TIP3      H1            -51.0322466405      -42.0950622861       -6.5787996465  W2        7278            0.0000000000
     21834      7278  TIP3      H2            -49.7216566405      -41.4616222861       -6.1628896465  W2        7278            0.0000000000
     21835      7279  TIP3      OH2           -54.0527166405      -47.6328522861      -10.8163496465  W2        7279            0.0000000000
     21836      7279  TIP3      H1            -54.5003766405      -46.7869822861      -10.8346996465  W2        7279            0.0000000000
     21837      7279  TIP3      H2            -54.6135966405      -48.2124322861      -11.3318396465  W2        7279            0.0000000000
     21838      7280  TIP3      OH2           -53.3421066405      -45.4708922861       -8.6905496465  W2        7280            0.0000000000
     21839      7280  TIP3      H1            -53.1287566405      -46.2407322861       -8.1632496465  W2        7280            0.0000000000
     21840      7280  TIP3      H2            -52.6043466405      -45.3812222861       -9.2937896465  W2        7280            0.0000000000
     21841      7281  TIP3      OH2           -43.1370066405      -37.3140022861       -7.8235796465  W2        7281            0.0000000000
     21842      7281  TIP3      H1            -42.5173666405      -37.9905322861       -8.0966596465  W2        7281            0.0000000000
     21843      7281  TIP3      H2            -43.3452666405      -37.5319222861       -6.9150896465  W2        7281            0.0000000000
     21844      7282  TIP3      OH2           -45.5651366405      -42.9250722861       -5.9310296465  W2        7282            0.0000000000
     21845      7282  TIP3      H1            -45.2613466405      -43.6109322861       -6.5256196465  W2        7282            0.0000000000
     21846      7282  TIP3      H2            -44.8437366405      -42.8062022861       -5.3132296465  W2        7282            0.0000000000
     21847      7283  TIP3      OH2           -36.9021566405      -51.3235422861       -5.0704096465  W2        7283            0.0000000000
     21848      7283  TIP3      H1            -36.8529366405      -50.7134222861       -4.3344996465  W2        7283            0.0000000000
     21849      7283  TIP3      H2            -36.4766466405      -50.8624522861       -5.7932996465  W2        7283            0.0000000000
     21850      7284  TIP3      OH2           -42.4244366405      -48.5308322861       -5.6035496465  W2        7284            0.0000000000
     21851      7284  TIP3      H1            -42.2818466405      -49.4771322861       -5.5833896465  W2        7284            0.0000000000
     21852      7284  TIP3      H2            -42.5305366405      -48.3238522861       -6.5320596465  W2        7284            0.0000000000
     21853      7285  TIP3      OH2           -49.2696066405      -50.4291922861       -8.3310696465  W2        7285            0.0000000000
     21854      7285  TIP3      H1            -49.2264966405      -49.5693422861       -8.7494396465  W2        7285            0.0000000000
     21855      7285  TIP3      H2            -49.7271966405      -50.9817222861       -8.9647496465  W2        7285            0.0000000000
     21856      7286  TIP3      OH2           -41.5473366405      -50.2986322861       -9.9302396465  W2        7286            0.0000000000
     21857      7286  TIP3      H1            -40.9009066405      -50.6273122861       -9.3054796465  W2        7286            0.0000000000
     21858      7286  TIP3      H2            -41.0373966405      -49.7807322861      -10.5530996465  W2        7286            0.0000000000
     21859      7287  TIP3      OH2           -52.6494566405      -48.0326122861       -7.5689296465  W2        7287            0.0000000000
     21860      7287  TIP3      H1            -51.9957966405      -48.5824422861       -7.1369196465  W2        7287            0.0000000000
     21861      7287  TIP3      H2            -52.6255266405      -48.3067122861       -8.4857296465  W2        7287            0.0000000000
     21862      7288  TIP3      OH2           -47.4930066405      -46.4824822861       -8.3537796465  W2        7288            0.0000000000
     21863      7288  TIP3      H1            -46.8769066405      -47.0089422861       -7.8443796465  W2        7288            0.0000000000
     21864      7288  TIP3      H2            -48.0791266405      -47.1226122861       -8.7574196465  W2        7288            0.0000000000
     21865      7289  TIP3      OH2           -36.5106966405      -49.8456222861       -2.8344296465  W2        7289            0.0000000000
     21866      7289  TIP3      H1            -37.1992366405      -49.1875522861       -2.9297696465  W2        7289            0.0000000000
     21867      7289  TIP3      H2            -36.4952366405      -50.0428322861       -1.8978896465  W2        7289            0.0000000000
     21868      7290  TIP3      OH2           -50.4594166405      -51.5113522861       -4.2569896465  W2        7290            0.0000000000
     21869      7290  TIP3      H1            -50.6782466405      -50.9812922861       -5.0233896465  W2        7290            0.0000000000
     21870      7290  TIP3      H2            -51.1273266405      -51.2848022861       -3.6098496465  W2        7290            0.0000000000
     21871      7291  TIP3      OH2           -43.0904366405      -42.0112422861      -10.7130796465  W2        7291            0.0000000000
     21872      7291  TIP3      H1            -43.3859266405      -42.3340122861      -11.5643896465  W2        7291            0.0000000000
     21873      7291  TIP3      H2            -43.4146566405      -41.1115722861      -10.6718196465  W2        7291            0.0000000000
     21874      7292  TIP3      OH2           -47.8902766405      -43.8357822861       -3.9696196465  W2        7292            0.0000000000
     21875      7292  TIP3      H1            -48.6303666405      -43.2376322861       -3.8660996465  W2        7292            0.0000000000
     21876      7292  TIP3      H2            -47.1763266405      -43.2818222861       -4.2852596465  W2        7292            0.0000000000
     21877      7293  TIP3      OH2           -39.7834966405      -51.0077022861       -7.9496496465  W2        7293            0.0000000000
     21878      7293  TIP3      H1            -39.9986966405      -51.7733622861       -7.4170496465  W2        7293            0.0000000000
     21879      7293  TIP3      H2            -39.1277566405      -50.5352422861       -7.4367996465  W2        7293            0.0000000000
     21880      7294  TIP3      OH2           -50.8656866405      -49.6191722861       -6.3047696465  W2        7294            0.0000000000
     21881      7294  TIP3      H1            -50.2520566405      -48.9864122861       -5.9315296465  W2        7294            0.0000000000
     21882      7294  TIP3      H2            -50.3536166405      -50.0916722861       -6.9610796465  W2        7294            0.0000000000
     21883      7295  TIP3      OH2           -49.4828466405      -41.8714822861       -3.1824696465  W2        7295            0.0000000000
     21884      7295  TIP3      H1            -49.4880866405      -40.9921322861       -3.5605396465  W2        7295            0.0000000000
     21885      7295  TIP3      H2            -50.3364366405      -41.9550722861       -2.7574796465  W2        7295            0.0000000000
     21886      7296  TIP3      OH2           -53.3617566405      -42.2006922861      -12.4005396465  W2        7296            0.0000000000
     21887      7296  TIP3      H1            -53.6336666405      -41.9715922861      -13.2892496465  W2        7296            0.0000000000
     21888      7296  TIP3      H2            -53.3161866405      -41.3628122861      -11.9400096465  W2        7296            0.0000000000
     21889      7297  TIP3      OH2           -39.7367866405      -40.5791022861       -5.6876896465  W2        7297            0.0000000000
     21890      7297  TIP3      H1            -40.6784166405      -40.5207122861       -5.5259996465  W2        7297            0.0000000000
     21891      7297  TIP3      H2            -39.4601766405      -39.6730522861       -5.8247196465  W2        7297            0.0000000000
     21892      7298  TIP3      OH2           -39.4360866405      -52.2925722861       -4.2702996465  W2        7298            0.0000000000
     21893      7298  TIP3      H1            -40.1721666405      -51.6818622861       -4.3081696465  W2        7298            0.0000000000
     21894      7298  TIP3      H2            -38.7526866405      -51.8776722861       -4.7966596465  W2        7298            0.0000000000
     21895      7299  TIP3      OH2           -46.4329466405      -54.2058422861       -6.8044996465  W2        7299            0.0000000000
     21896      7299  TIP3      H1            -46.5505266405      -55.1542422861       -6.8586696465  W2        7299            0.0000000000
     21897      7299  TIP3      H2            -47.2879366405      -53.8732322861       -6.5313896465  W2        7299            0.0000000000
     21898      7300  TIP3      OH2           -41.4846666405      -38.7977522861       -9.0625296465  W2        7300            0.0000000000
     21899      7300  TIP3      H1            -41.0594366405      -39.5049622861       -9.5475696465  W2        7300            0.0000000000
     21900      7300  TIP3      H2            -41.1676666405      -37.9964822861       -9.4793096465  W2        7300            0.0000000000
     21901      7301  TIP3      OH2           -40.3250166405      -40.8969022861      -10.5538696465  W2        7301            0.0000000000
     21902      7301  TIP3      H1            -40.5825366405      -41.5868922861      -11.1652796465  W2        7301            0.0000000000
     21903      7301  TIP3      H2            -40.2539366405      -41.3397822861       -9.7082796465  W2        7301            0.0000000000
     21904      7302  TIP3      OH2           -38.6389966405      -42.3302322861       -2.0765196465  W2        7302            0.0000000000
     21905      7302  TIP3      H1            -38.4993666405      -42.9219822861       -2.8158196465  W2        7302            0.0000000000
     21906      7302  TIP3      H2            -38.4717166405      -41.4576422861       -2.4326396465  W2        7302            0.0000000000
     21907      7303  TIP3      OH2           -44.1664566405      -45.3682822861      -12.3039196465  W2        7303            0.0000000000
     21908      7303  TIP3      H1            -44.8779066405      -44.8333122861      -12.6558696465  W2        7303            0.0000000000
     21909      7303  TIP3      H2            -43.4754966405      -45.3130722861      -12.9640296465  W2        7303            0.0000000000
     21910      7304  TIP3      OH2           -44.1125366405      -46.9108522861      -15.2654196465  W2        7304            0.0000000000
     21911      7304  TIP3      H1            -43.4115466405      -46.8881622861      -14.6140196465  W2        7304            0.0000000000
     21912      7304  TIP3      H2            -43.8102466405      -47.5388822861      -15.9214896465  W2        7304            0.0000000000
     21913      7305  TIP3      OH2           -36.7970666405      -45.9904322861       -4.0104796465  W2        7305            0.0000000000
     21914      7305  TIP3      H1            -37.4496566405      -45.2958722861       -3.9213896465  W2        7305            0.0000000000
     21915      7305  TIP3      H2            -36.3320366405      -45.7803422861       -4.8203196465  W2        7305            0.0000000000
     21916      7306  TIP3      OH2           -40.7606866405      -45.1589522861      -11.3523296465  W2        7306            0.0000000000
     21917      7306  TIP3      H1            -41.4925866405      -44.9305822861      -10.7792696465  W2        7306            0.0000000000
     21918      7306  TIP3      H2            -40.3134666405      -45.8726822861      -10.8975796465  W2        7306            0.0000000000
     21919      7307  TIP3      OH2           -40.8633366405      -46.9846922861       -2.2846296465  W2        7307            0.0000000000
     21920      7307  TIP3      H1            -40.7834266405      -46.2212522861       -1.7127796465  W2        7307            0.0000000000
     21921      7307  TIP3      H2            -41.4645666405      -46.7054522861       -2.9751196465  W2        7307            0.0000000000
     21922      7308  TIP3      OH2           -49.1153166405      -44.5283322861       -9.4698296465  W2        7308            0.0000000000
     21923      7308  TIP3      H1            -49.4457966405      -44.8989922861      -10.2881296465  W2        7308            0.0000000000
     21924      7308  TIP3      H2            -48.5269066405      -45.1989322861       -9.1229996465  W2        7308            0.0000000000
     21925      7309  TIP3      OH2           -47.7485666405      -41.1002722861       -6.7886096465  W2        7309            0.0000000000
     21926      7309  TIP3      H1            -47.8434366405      -41.6789622861       -7.5451496465  W2        7309            0.0000000000
     21927      7309  TIP3      H2            -47.0192066405      -41.4717022861       -6.2923296465  W2        7309            0.0000000000
     21928      7310  TIP3      OH2           -48.7487666405      -45.7597722861       -5.8363296465  W2        7310            0.0000000000
     21929      7310  TIP3      H1            -48.1835166405      -45.6383522861       -6.5992096465  W2        7310            0.0000000000
     21930      7310  TIP3      H2            -48.4298766405      -45.1222722861       -5.1974796465  W2        7310            0.0000000000
     21931      7311  TIP3      OH2           -42.4395466405      -40.2565822861       -5.1022796465  W2        7311            0.0000000000
     21932      7311  TIP3      H1            -42.6798866405      -39.5942722861       -4.4543596465  W2        7311            0.0000000000
     21933      7311  TIP3      H2            -42.6377266405      -41.0910622861       -4.6773196465  W2        7311            0.0000000000
     21934      7312  TIP3      OH2           -47.8686966405      -41.3605022861       -1.1191396465  W2        7312            0.0000000000
     21935      7312  TIP3      H1            -48.1799466405      -40.5781822861       -0.6638196465  W2        7312            0.0000000000
     21936      7312  TIP3      H2            -48.5186766405      -41.5135922861       -1.8049396465  W2        7312            0.0000000000
     21937      7313  TIP3      OH2           -41.8897366405      -45.9966622861      -13.6672096465  W2        7313            0.0000000000
     21938      7313  TIP3      H1            -41.3101866405      -45.8466322861      -12.9203196465  W2        7313            0.0000000000
     21939      7313  TIP3      H2            -41.4757366405      -45.5259222861      -14.3905696465  W2        7313            0.0000000000
     21940      7314  TIP3      OH2           -50.9487066405      -45.1623922861       -1.8905696465  W2        7314            0.0000000000
     21941      7314  TIP3      H1            -50.8783866405      -44.5117122861       -1.1920696465  W2        7314            0.0000000000
     21942      7314  TIP3      H2            -51.8394866405      -45.0596422861       -2.2254796465  W2        7314            0.0000000000
     21943      7315  TIP3      OH2           -44.1632466405      -39.2598122861      -10.2318996465  W2        7315            0.0000000000
     21944      7315  TIP3      H1            -43.6894866405      -38.9641822861       -9.4544796465  W2        7315            0.0000000000
     21945      7315  TIP3      H2            -44.7263166405      -38.5216522861      -10.4649396465  W2        7315            0.0000000000
     21946      7316  TIP3      OH2           -49.6291066405      -39.2890022861       -0.3557596465  W2        7316            0.0000000000
     21947      7316  TIP3      H1            -49.6215766405      -39.4250322861       -1.3032096465  W2        7316            0.0000000000
     21948      7316  TIP3      H2            -50.5450666405      -39.4061922861       -0.1037596465  W2        7316            0.0000000000
     21949      7317  TIP3      OH2           -38.1908966405      -54.2466222861      -13.8542396465  W2        7317            0.0000000000
     21950      7317  TIP3      H1            -39.0908266405      -54.1077222861      -13.5591796465  W2        7317            0.0000000000
     21951      7317  TIP3      H2            -37.9390566405      -53.4151622861      -14.2560696465  W2        7317            0.0000000000
     21952      7318  TIP3      OH2           -50.1250466405      -45.4589022861      -11.8805496465  W2        7318            0.0000000000
     21953      7318  TIP3      H1            -50.4169166405      -44.6907322861      -12.3714196465  W2        7318            0.0000000000
     21954      7318  TIP3      H2            -50.7995266405      -46.1182822861      -12.0434096465  W2        7318            0.0000000000
     21955      7319  TIP3      OH2           -37.0017566405      -39.8803822861      -15.4778496465  W2        7319            0.0000000000
     21956      7319  TIP3      H1            -36.9284066405      -38.9413622861      -15.3073196465  W2        7319            0.0000000000
     21957      7319  TIP3      H2            -36.0962466405      -40.1855222861      -15.5341196465  W2        7319            0.0000000000
     21958      7320  TIP3      OH2           -54.0320366405      -43.0959822861       -3.0655696465  W2        7320            0.0000000000
     21959      7320  TIP3      H1            -54.5331966405      -43.1240422861       -3.8805996465  W2        7320            0.0000000000
     21960      7320  TIP3      H2            -54.0266666405      -44.0016622861       -2.7558396465  W2        7320            0.0000000000
     21961      7321  TIP3      OH2           -54.2817666405      -40.3156022861       -6.1815496465  W2        7321            0.0000000000
     21962      7321  TIP3      H1            -53.3357066405      -40.4599022861       -6.2005996465  W2        7321            0.0000000000
     21963      7321  TIP3      H2            -54.3941366405      -39.5313222861       -5.6444296465  W2        7321            0.0000000000
     21964      7322  TIP3      OH2           -36.0839166405      -39.6496322861       -0.4991796465  W2        7322            0.0000000000
     21965      7322  TIP3      H1            -36.1332366405      -40.6048222861       -0.5364196465  W2        7322            0.0000000000
     21966      7322  TIP3      H2            -36.9106866405      -39.3821022861       -0.0977996465  W2        7322            0.0000000000
     21967      7323  TIP3      OH2           -45.1055166405      -40.0757122861       -1.6230396465  W2        7323            0.0000000000
     21968      7323  TIP3      H1            -45.0180566405      -39.2492522861       -1.1481296465  W2        7323            0.0000000000
     21969      7323  TIP3      H2            -45.9690066405      -40.4053322861       -1.3741096465  W2        7323            0.0000000000
     21970      7324  TIP3      OH2           -44.6909366405      -36.3033422861      -11.8169796465  W2        7324            0.0000000000
     21971      7324  TIP3      H1            -44.7663366405      -36.4246222861      -12.7634596465  W2        7324            0.0000000000
     21972      7324  TIP3      H2            -44.6580666405      -35.3540722861      -11.6985196465  W2        7324            0.0000000000
     21973      7325  TIP3      OH2           -51.0375566405      -37.5146422861      -10.0360796465  W2        7325            0.0000000000
     21974      7325  TIP3      H1            -50.8855166405      -37.8626022861       -9.1574296465  W2        7325            0.0000000000
     21975      7325  TIP3      H2            -51.8885166405      -37.8709122861      -10.2913596465  W2        7325            0.0000000000
     21976      7326  TIP3      OH2           -41.5893366405      -37.1493222861      -14.8147396465  W2        7326            0.0000000000
     21977      7326  TIP3      H1            -41.2144966405      -37.8937122861      -15.2854796465  W2        7326            0.0000000000
     21978      7326  TIP3      H2            -41.5849666405      -37.4192622861      -13.8964096465  W2        7326            0.0000000000
     21979      7327  TIP3      OH2           -41.9205266405      -37.2236122861      -12.0655196465  W2        7327            0.0000000000
     21980      7327  TIP3      H1            -42.8555466405      -37.1234222861      -11.8868196465  W2        7327            0.0000000000
     21981      7327  TIP3      H2            -41.6403366405      -37.9330122861      -11.4871996465  W2        7327            0.0000000000
     21982      7328  TIP3      OH2           -38.9319366405      -48.1563822861       -0.0189596465  W2        7328            0.0000000000
     21983      7328  TIP3      H1            -39.3392566405      -47.6758222861       -0.7396296465  W2        7328            0.0000000000
     21984      7328  TIP3      H2            -38.8913666405      -49.0617822861       -0.3268796465  W2        7328            0.0000000000
     21985      7329  TIP3      OH2           -51.7829866405      -41.7724422861       -2.0222896465  W2        7329            0.0000000000
     21986      7329  TIP3      H1            -51.5668566405      -42.1338822861       -1.1627096465  W2        7329            0.0000000000
     21987      7329  TIP3      H2            -52.6385166405      -42.1470622861       -2.2319396465  W2        7329            0.0000000000
     21988      7330  TIP3      OH2           -49.1641866405      -53.3023922861       -6.0268696465  W2        7330            0.0000000000
     21989      7330  TIP3      H1            -50.0258166405      -53.3895722861       -6.4345796465  W2        7330            0.0000000000
     21990      7330  TIP3      H2            -49.1866166405      -52.4463822861       -5.5991096465  W2        7330            0.0000000000
     21991      7331  TIP3      OH2           -44.5014066405      -53.5803522861       -2.6521696465  W2        7331            0.0000000000
     21992      7331  TIP3      H1            -44.0810966405      -53.9956422861       -1.8991096465  W2        7331            0.0000000000
     21993      7331  TIP3      H2            -45.4344466405      -53.7590222861       -2.5349696465  W2        7331            0.0000000000
     21994      7332  TIP3      OH2           -41.1749166405      -49.8248322861       -1.7987196465  W2        7332            0.0000000000
     21995      7332  TIP3      H1            -41.6889666405      -49.9506122861       -1.0011196465  W2        7332            0.0000000000
     21996      7332  TIP3      H2            -41.3304466405      -48.9125222861       -2.0430996465  W2        7332            0.0000000000
     21997      7333  TIP3      OH2           -40.4124266405      -44.9638322861      -16.0374196465  W2        7333            0.0000000000
     21998      7333  TIP3      H1            -40.3703466405      -45.1864422861      -16.9674196465  W2        7333            0.0000000000
     21999      7333  TIP3      H2            -39.5632166405      -44.5651222861      -15.8474296465  W2        7333            0.0000000000
     22000      7334  TIP3      OH2           -44.8396766405      -51.0880122861      -15.3670896465  W2        7334            0.0000000000
     22001      7334  TIP3      H1            -45.0931966405      -51.0688522861      -14.4442796465  W2        7334            0.0000000000
     22002      7334  TIP3      H2            -45.0964666405      -51.9594722861      -15.6684696465  W2        7334            0.0000000000
     22003      7335  TIP3      OH2           -49.0731766405      -48.3369422861       -4.9318496465  W2        7335            0.0000000000
     22004      7335  TIP3      H1            -49.7149666405      -48.3772122861       -4.2228396465  W2        7335            0.0000000000
     22005      7335  TIP3      H2            -49.0359766405      -47.4104722861       -5.1695496465  W2        7335            0.0000000000
     22006      7336  TIP3      OH2           -49.0762666405      -48.1159322861      -10.0198496465  W2        7336            0.0000000000
     22007      7336  TIP3      H1            -49.9689766405      -48.4563222861      -10.0784696465  W2        7336            0.0000000000
     22008      7336  TIP3      H2            -48.6256066405      -48.4928422861      -10.7755296465  W2        7336            0.0000000000
     22009      7337  TIP3      OH2           -43.5407166405      -47.6999022861      -11.2027696465  W2        7337            0.0000000000
     22010      7337  TIP3      H1            -43.9496866405      -46.8850422861      -11.4942896465  W2        7337            0.0000000000
     22011      7337  TIP3      H2            -42.8200966405      -47.8398922861      -11.8170596465  W2        7337            0.0000000000
     22012      7338  TIP3      OH2           -44.4385566405      -47.5242622861        0.2853003535  W2        7338            0.0000000000
     22013      7338  TIP3      H1            -45.0011766405      -48.2291022861        0.6060803535  W2        7338            0.0000000000
     22014      7338  TIP3      H2            -43.6122166405      -47.6450722861        0.7530603535  W2        7338            0.0000000000
     22015      7339  TIP3      OH2           -42.5359466405      -48.2538622861       -8.3887996465  W2        7339            0.0000000000
     22016      7339  TIP3      H1            -42.7314966405      -47.6481822861       -9.1037396465  W2        7339            0.0000000000
     22017      7339  TIP3      H2            -42.3546866405      -49.0873422861       -8.8231696465  W2        7339            0.0000000000
     22018      7340  TIP3      OH2           -51.3231266405      -48.0165922861       -3.0646496465  W2        7340            0.0000000000
     22019      7340  TIP3      H1            -51.3611866405      -47.6164322861       -2.1959396465  W2        7340            0.0000000000
     22020      7340  TIP3      H2            -51.8140166405      -48.8333522861       -2.9743596465  W2        7340            0.0000000000
     22021      7341  TIP3      OH2           -47.9573866405      -50.6423622861      -16.2660496465  W2        7341            0.0000000000
     22022      7341  TIP3      H1            -48.3883166405      -51.0873522861      -15.5363096465  W2        7341            0.0000000000
     22023      7341  TIP3      H2            -48.6755166405      -50.2707322861      -16.7782996465  W2        7341            0.0000000000
     22024      7342  TIP3      OH2           -54.7150466405      -50.9004122861       -9.2141796465  W2        7342            0.0000000000
     22025      7342  TIP3      H1            -54.0842766405      -50.9292022861       -8.4947896465  W2        7342            0.0000000000
     22026      7342  TIP3      H2            -54.2656166405      -51.3255422861       -9.9445896465  W2        7342            0.0000000000
     22027      7343  TIP3      OH2           -53.4408366405      -50.1542122861      -13.7901396465  W2        7343            0.0000000000
     22028      7343  TIP3      H1            -52.9666666405      -49.5632222861      -14.3750496465  W2        7343            0.0000000000
     22029      7343  TIP3      H2            -54.1581966405      -49.6239222861      -13.4431296465  W2        7343            0.0000000000
     22030      7344  TIP3      OH2           -43.2720266405      -46.6157322861       -3.7175596465  W2        7344            0.0000000000
     22031      7344  TIP3      H1            -42.9485466405      -47.2467622861       -4.3605096465  W2        7344            0.0000000000
     22032      7344  TIP3      H2            -43.7120966405      -47.1505122861       -3.0568196465  W2        7344            0.0000000000
     22033      7345  TIP3      OH2           -46.4947366405      -50.6881822861       -8.9334396465  W2        7345            0.0000000000
     22034      7345  TIP3      H1            -47.4056266405      -50.6315022861       -8.6448396465  W2        7345            0.0000000000
     22035      7345  TIP3      H2            -45.9894466405      -50.7486322861       -8.1227196465  W2        7345            0.0000000000
     22036      7346  TIP3      OH2           -51.6663966405      -49.0595522861      -10.1066796465  W2        7346            0.0000000000
     22037      7346  TIP3      H1            -52.5555966405      -48.9600022861      -10.4467196465  W2        7346            0.0000000000
     22038      7346  TIP3      H2            -51.3699066405      -49.9012522861      -10.4528896465  W2        7346            0.0000000000
     22039      7347  TIP3      OH2           -48.0132166405      -49.0592922861      -12.4502196465  W2        7347            0.0000000000
     22040      7347  TIP3      H1            -47.0816666405      -48.9302922861      -12.2719096465  W2        7347            0.0000000000
     22041      7347  TIP3      H2            -48.2281866405      -48.3898622861      -13.0997496465  W2        7347            0.0000000000
     22042      7348  TIP3      OH2           -42.0895466405      -51.4535522861       -5.6692596465  W2        7348            0.0000000000
     22043      7348  TIP3      H1            -42.7663866405      -51.3222422861       -5.0052896465  W2        7348            0.0000000000
     22044      7348  TIP3      H2            -42.5750566405      -51.6086022861       -6.4794896465  W2        7348            0.0000000000
     22045      7349  TIP3      OH2           -49.3391966405      -47.8650722861      -14.8836096465  W2        7349            0.0000000000
     22046      7349  TIP3      H1            -49.8816866405      -48.2446922861      -15.5748496465  W2        7349            0.0000000000
     22047      7349  TIP3      H2            -48.5057066405      -47.6706022861      -15.3121996465  W2        7349            0.0000000000
     22048      7350  TIP3      OH2           -38.8020366405      -35.7820122861        0.6075003535  W2        7350            0.0000000000
     22049      7350  TIP3      H1            -38.6021666405      -35.3578222861       -0.2269696465  W2        7350            0.0000000000
     22050      7350  TIP3      H2            -38.1466666405      -35.4381922861        1.2145403535  W2        7350            0.0000000000
     22051      7351  TIP3      OH2           -51.2040566405      -43.3078822861        0.2155503535  W2        7351            0.0000000000
     22052      7351  TIP3      H1            -50.4718166405      -43.0532922861        0.7770003535  W2        7351            0.0000000000
     22053      7351  TIP3      H2            -51.9841866405      -43.1033422861        0.7310903535  W2        7351            0.0000000000
     22054      7352  TIP3      OH2           -45.1747666405      -47.9008822861       -7.0464796465  W2        7352            0.0000000000
     22055      7352  TIP3      H1            -44.6104266405      -48.4472222861       -7.5935196465  W2        7352            0.0000000000
     22056      7352  TIP3      H2            -45.3224266405      -48.4226922861       -6.2577196465  W2        7352            0.0000000000
     22057      7353  TIP3      OH2           -50.1727966405      -51.7642722861      -10.6279996465  W2        7353            0.0000000000
     22058      7353  TIP3      H1            -50.4898466405      -52.6667422861      -10.6634596465  W2        7353            0.0000000000
     22059      7353  TIP3      H2            -49.3913866405      -51.7625322861      -11.1808396465  W2        7353            0.0000000000
     22060      7354  TIP3      OH2           -46.5481766405      -49.5122722861       -4.6324396465  W2        7354            0.0000000000
     22061      7354  TIP3      H1            -47.3836466405      -49.0583222861       -4.5221996465  W2        7354            0.0000000000
     22062      7354  TIP3      H2            -46.0241166405      -49.2364222861       -3.8804496465  W2        7354            0.0000000000
     22063      7355  TIP3      OH2           -46.0039166405      -43.2995022861      -12.9477996465  W2        7355            0.0000000000
     22064      7355  TIP3      H1            -46.7488166405      -43.8069722861      -13.2700096465  W2        7355            0.0000000000
     22065      7355  TIP3      H2            -46.1381966405      -43.2507022861      -12.0013196465  W2        7355            0.0000000000
     22066      7356  TIP3      OH2           -38.8540266405      -44.1666822861       -4.1610396465  W2        7356            0.0000000000
     22067      7356  TIP3      H1            -38.2121466405      -43.7100522861       -4.7048196465  W2        7356            0.0000000000
     22068      7356  TIP3      H2            -39.6843366405      -44.0534422861       -4.6236296465  W2        7356            0.0000000000
     22069      7357  TIP3      OH2           -42.1062366405      -50.4855122861      -14.7485396465  W2        7357            0.0000000000
     22070      7357  TIP3      H1            -43.0448166405      -50.3739522861      -14.8996596465  W2        7357            0.0000000000
     22071      7357  TIP3      H2            -41.8090266405      -49.6288222861      -14.4419696465  W2        7357            0.0000000000
     22072      7358  TIP3      OH2           -44.4847066405      -43.1151722861       -1.7108896465  W2        7358            0.0000000000
     22073      7358  TIP3      H1            -44.8300966405      -43.4969322861       -0.9039296465  W2        7358            0.0000000000
     22074      7358  TIP3      H2            -44.6846966405      -42.1818122861       -1.6395996465  W2        7358            0.0000000000
     22075      7359  TIP3      OH2           -41.3878866405      -48.6182422861      -13.0877996465  W2        7359            0.0000000000
     22076      7359  TIP3      H1            -40.4959866405      -48.7557422861      -12.7686796465  W2        7359            0.0000000000
     22077      7359  TIP3      H2            -41.3315266405      -47.8276322861      -13.6244496465  W2        7359            0.0000000000
     22078      7360  TIP3      OH2           -50.8790866405      -44.0045022861       -7.1780096465  W2        7360            0.0000000000
     22079      7360  TIP3      H1            -50.1343666405      -44.0069322861       -7.7793596465  W2        7360            0.0000000000
     22080      7360  TIP3      H2            -50.8014266405      -44.8281222861       -6.6964996465  W2        7360            0.0000000000
     22081      7361  TIP3      OH2           -43.8785066405      -41.8410722861      -13.9223396465  W2        7361            0.0000000000
     22082      7361  TIP3      H1            -44.1736666405      -41.0142822861      -13.5408596465  W2        7361            0.0000000000
     22083      7361  TIP3      H2            -44.5815066405      -42.4603822861      -13.7261996465  W2        7361            0.0000000000
     22084      7362  TIP3      OH2           -53.8711166405      -45.5438122861       -1.8631596465  W2        7362            0.0000000000
     22085      7362  TIP3      H1            -53.6482566405      -45.9618522861       -1.0314096465  W2        7362            0.0000000000
     22086      7362  TIP3      H2            -54.4731066405      -46.1563122861       -2.2858796465  W2        7362            0.0000000000
     22087      7363  TIP3      OH2           -46.8546266405      -46.0268222861        0.3498103535  W2        7363            0.0000000000
     22088      7363  TIP3      H1            -47.1505466405      -46.1925222861       -0.5452796465  W2        7363            0.0000000000
     22089      7363  TIP3      H2            -45.9231066405      -46.2467922861        0.3392003535  W2        7363            0.0000000000
     22090      7364  TIP3      OH2           -42.2343466405      -40.6536222861       -1.7603896465  W2        7364            0.0000000000
     22091      7364  TIP3      H1            -43.1349166405      -40.4703622861       -2.0279996465  W2        7364            0.0000000000
     22092      7364  TIP3      H2            -42.2002366405      -40.3946922861       -0.8395096465  W2        7364            0.0000000000
     22093      7365  TIP3      OH2           -36.5030166405      -48.4088322861      -13.3931296465  W2        7365            0.0000000000
     22094      7365  TIP3      H1            -37.0573866405      -48.8050322861      -14.0653796465  W2        7365            0.0000000000
     22095      7365  TIP3      H2            -36.4026566405      -47.4983122861      -13.6707996465  W2        7365            0.0000000000
     22096      7366  TIP3      OH2           -36.5398166405      -42.6086622861       -0.5559796465  W2        7366            0.0000000000
     22097      7366  TIP3      H1            -37.3909666405      -42.3702822861       -0.9233396465  W2        7366            0.0000000000
     22098      7366  TIP3      H2            -35.9494766405      -42.6253422861       -1.3092696465  W2        7366            0.0000000000
     22099      7367  TIP3      OH2           -38.2078466405      -39.6227922861      -12.9279196465  W2        7367            0.0000000000
     22100      7367  TIP3      H1            -38.5807366405      -40.4484122861      -12.6188596465  W2        7367            0.0000000000
     22101      7367  TIP3      H2            -37.9304966405      -39.8058522861      -13.8255796465  W2        7367            0.0000000000
     22102      7368  TIP3      OH2           -41.0474566405      -44.8148422861       -5.9067296465  W2        7368            0.0000000000
     22103      7368  TIP3      H1            -41.9757666405      -45.0466522861       -5.9337996465  W2        7368            0.0000000000
     22104      7368  TIP3      H2            -40.5963466405      -45.5918622861       -6.2368496465  W2        7368            0.0000000000
     22105      7369  TIP3      OH2           -48.5041466405      -40.4866822861       -9.7738596465  W2        7369            0.0000000000
     22106      7369  TIP3      H1            -47.9769266405      -39.7132422861       -9.9739796465  W2        7369            0.0000000000
     22107      7369  TIP3      H2            -49.3842966405      -40.2617622861      -10.0754596465  W2        7369            0.0000000000
     22108      7370  TIP3      OH2           -52.7493766405      -45.6242722861      -15.1866196465  W2        7370            0.0000000000
     22109      7370  TIP3      H1            -52.1333866405      -44.9975522861      -14.8071396465  W2        7370            0.0000000000
     22110      7370  TIP3      H2            -53.6111166405      -45.3082922861      -14.9149696465  W2        7370            0.0000000000
     22111      7371  TIP3      OH2           -47.0769166405      -42.8236922861      -10.1974296465  W2        7371            0.0000000000
     22112      7371  TIP3      H1            -47.3179166405      -41.8982522861      -10.1558996465  W2        7371            0.0000000000
     22113      7371  TIP3      H2            -47.8175566405      -43.2825622861       -9.8010396465  W2        7371            0.0000000000
     22114      7372  TIP3      OH2           -46.5622566405      -38.6743322861       -3.8823196465  W2        7372            0.0000000000
     22115      7372  TIP3      H1            -46.1997866405      -37.8197722861       -4.1158796465  W2        7372            0.0000000000
     22116      7372  TIP3      H2            -46.0307366405      -38.9661722861       -3.1416896465  W2        7372            0.0000000000
     22117      7373  TIP3      OH2           -48.3938366405      -37.8019322861      -10.6522096465  W2        7373            0.0000000000
     22118      7373  TIP3      H1            -49.3437866405      -37.6961922861      -10.6008796465  W2        7373            0.0000000000
     22119      7373  TIP3      H2            -48.0420266405      -36.9811922861      -10.3074596465  W2        7373            0.0000000000
     22120      7374  TIP3      OH2           -43.0181766405      -42.5752622861       -4.1817596465  W2        7374            0.0000000000
     22121      7374  TIP3      H1            -43.4440466405      -42.8030922861       -3.3553596465  W2        7374            0.0000000000
     22122      7374  TIP3      H2            -42.4375966405      -43.3140822861       -4.3642296465  W2        7374            0.0000000000
     22123      7375  TIP3      OH2           -40.8152866405      -41.6462122861      -15.1078596465  W2        7375            0.0000000000
     22124      7375  TIP3      H1            -40.4619766405      -42.0262322861      -14.3035096465  W2        7375            0.0000000000
     22125      7375  TIP3      H2            -41.7639366405      -41.7397322861      -15.0209296465  W2        7375            0.0000000000
     22126      7376  TIP3      OH2           -40.3597566405      -38.0233122861       -1.7122796465  W2        7376            0.0000000000
     22127      7376  TIP3      H1            -40.9614366405      -38.5790222861       -2.2076496465  W2        7376            0.0000000000
     22128      7376  TIP3      H2            -40.0783866405      -37.3563322861       -2.3385396465  W2        7376            0.0000000000
     22129      7377  TIP3      OH2           -36.3118466405      -37.1669622861      -14.9068396465  W2        7377            0.0000000000
     22130      7377  TIP3      H1            -35.5680566405      -36.5809122861      -15.0466796465  W2        7377            0.0000000000
     22131      7377  TIP3      H2            -37.0060366405      -36.5983822861      -14.5735996465  W2        7377            0.0000000000
     22132      7378  TIP3      OH2           -52.2371666405      -50.7905422861       -2.3050196465  W2        7378            0.0000000000
     22133      7378  TIP3      H1            -53.1299366405      -50.4520022861       -2.3726196465  W2        7378            0.0000000000
     22134      7378  TIP3      H2            -52.3358866405      -51.6459322861       -1.8869396465  W2        7378            0.0000000000
     22135      7379  TIP3      OH2           -39.9493566405      -42.9740122861      -12.8810696465  W2        7379            0.0000000000
     22136      7379  TIP3      H1            -40.2265966405      -43.7020822861      -12.3249596465  W2        7379            0.0000000000
     22137      7379  TIP3      H2            -39.0220566405      -42.8548122861      -12.6758096465  W2        7379            0.0000000000
     22138      7380  TIP3      OH2           -52.5859666405      -38.9861022861       -3.8700796465  W2        7380            0.0000000000
     22139      7380  TIP3      H1            -52.3689366405      -39.9178622861       -3.9011096465  W2        7380            0.0000000000
     22140      7380  TIP3      H2            -52.3396166405      -38.7116022861       -2.9867996465  W2        7380            0.0000000000
     22141      7381  TIP3      OH2           -46.7245066405      -40.5346022861      -16.6608596465  W2        7381            0.0000000000
     22142      7381  TIP3      H1            -46.4855266405      -41.2827922861      -17.2079696465  W2        7381            0.0000000000
     22143      7381  TIP3      H2            -46.9933766405      -40.9224322861      -15.8280796465  W2        7381            0.0000000000
     22144      7382  TIP3      OH2           -47.7874466405      -40.9642222861      -14.2045996465  W2        7382            0.0000000000
     22145      7382  TIP3      H1            -47.6406466405      -41.4842422861      -13.4145096465  W2        7382            0.0000000000
     22146      7382  TIP3      H2            -47.7902766405      -40.0574622861      -13.8980096465  W2        7382            0.0000000000
     22147      7383  TIP3      OH2           -51.3343366405      -43.7118922861      -13.6940596465  W2        7383            0.0000000000
     22148      7383  TIP3      H1            -52.0204066405      -43.3596422861      -13.1270896465  W2        7383            0.0000000000
     22149      7383  TIP3      H2            -50.8115466405      -42.9489322861      -13.9406296465  W2        7383            0.0000000000
     22150      7384  TIP3      OH2           -43.5028266405      -51.0495122861       -3.4151596465  W2        7384            0.0000000000
     22151      7384  TIP3      H1            -42.8040366405      -50.9756422861       -2.7651896465  W2        7384            0.0000000000
     22152      7384  TIP3      H2            -43.8836866405      -51.9140122861       -3.2608696465  W2        7384            0.0000000000
     22153      7385  TIP3      OH2           -42.7183366405      -51.3973422861      -12.3179296465  W2        7385            0.0000000000
     22154      7385  TIP3      H1            -42.4985066405      -50.9258022861      -13.1213896465  W2        7385            0.0000000000
     22155      7385  TIP3      H2            -42.1599366405      -51.0030822861      -11.6478696465  W2        7385            0.0000000000
     22156      7386  TIP3      OH2           -45.0497266405      -39.2668622861      -13.4551796465  W2        7386            0.0000000000
     22157      7386  TIP3      H1            -45.8661166405      -38.7698922861      -13.4027496465  W2        7386            0.0000000000
     22158      7386  TIP3      H2            -44.5200966405      -38.7915122861      -14.0952996465  W2        7386            0.0000000000
     22159      7387  TIP3      OH2           -45.5183466405      -49.6694622861      -11.4830896465  W2        7387            0.0000000000
     22160      7387  TIP3      H1            -44.7060866405      -49.1651422861      -11.4369196465  W2        7387            0.0000000000
     22161      7387  TIP3      H2            -45.7630466405      -49.8144922861      -10.5691296465  W2        7387            0.0000000000
     22162      7388  TIP3      OH2           -44.9827066405      -48.6831922861       -2.2984296465  W2        7388            0.0000000000
     22163      7388  TIP3      H1            -44.8636766405      -48.1096522861       -1.5413896465  W2        7388            0.0000000000
     22164      7388  TIP3      H2            -44.3272466405      -49.3712522861       -2.1836496465  W2        7388            0.0000000000
     22165      7389  TIP3      OH2           -44.6346766405      -52.5881622861      -10.5449796465  W2        7389            0.0000000000
     22166      7389  TIP3      H1            -44.9813266405      -51.9711022861       -9.9005496465  W2        7389            0.0000000000
     22167      7389  TIP3      H2            -43.9759866405      -52.0875922861      -11.0264296465  W2        7389            0.0000000000
     22168      7390  TIP3      OH2           -47.7114166405      -38.2231422861      -13.4734896465  W2        7390            0.0000000000
     22169      7390  TIP3      H1            -47.5505466405      -37.4233922861      -13.9742296465  W2        7390            0.0000000000
     22170      7390  TIP3      H2            -47.9086366405      -37.9165422861      -12.5884296465  W2        7390            0.0000000000
     22171      7391  TIP3      OH2           -48.9769766405      -51.5252222861      -13.8577296465  W2        7391            0.0000000000
     22172      7391  TIP3      H1            -49.0604966405      -50.6369122861      -13.5110896465  W2        7391            0.0000000000
     22173      7391  TIP3      H2            -48.0869466405      -51.7905522861      -13.6260496465  W2        7391            0.0000000000
     22174      7392  TIP3      OH2           -38.7781266405      -50.7761622861       -1.4634596465  W2        7392            0.0000000000
     22175      7392  TIP3      H1            -39.6945466405      -50.5139922861       -1.5510896465  W2        7392            0.0000000000
     22176      7392  TIP3      H2            -38.4426266405      -50.7792622861       -2.3599296465  W2        7392            0.0000000000
     22177      7393  TIP3      OH2           -40.1760266405      -47.0260622861       -7.3677296465  W2        7393            0.0000000000
     22178      7393  TIP3      H1            -40.9735866405      -47.4410422861       -7.6962296465  W2        7393            0.0000000000
     22179      7393  TIP3      H2            -39.7309166405      -47.7166922861       -6.8766796465  W2        7393            0.0000000000
     22180      7394  TIP3      OH2           -50.7184466405      -41.0980022861      -14.7972796465  W2        7394            0.0000000000
     22181      7394  TIP3      H1            -50.1262966405      -40.3985222861      -14.5210396465  W2        7394            0.0000000000
     22182      7394  TIP3      H2            -50.2591466405      -41.5310522861      -15.5168196465  W2        7394            0.0000000000
     22183      7395  TIP3      OH2           -52.4025266405      -48.4337022861      -15.6813396465  W2        7395            0.0000000000
     22184      7395  TIP3      H1            -52.4472666405      -47.4943922861      -15.5026396465  W2        7395            0.0000000000
     22185      7395  TIP3      H2            -53.2902066405      -48.6692122861      -15.9511296465  W2        7395            0.0000000000
     22186      7396  TIP3      OH2           -39.0895666405      -37.7698122861       -5.7453796465  W2        7396            0.0000000000
     22187      7396  TIP3      H1            -39.2451366405      -37.0913722861       -6.4024496465  W2        7396            0.0000000000
     22188      7396  TIP3      H2            -38.1569266405      -37.6978822861       -5.5423196465  W2        7396            0.0000000000
     22189      7397  TIP3      OH2           -51.5943266405      -53.6520422861       -7.0082396465  W2        7397            0.0000000000
     22190      7397  TIP3      H1            -51.8233466405      -53.5927922861       -7.9357396465  W2        7397            0.0000000000
     22191      7397  TIP3      H2            -52.0369866405      -54.4434922861       -6.7018296465  W2        7397            0.0000000000
     22192      7398  TIP3      OH2           -52.6639966405      -39.7113322861      -10.8476596465  W2        7398            0.0000000000
     22193      7398  TIP3      H1            -53.4961366405      -39.2390622861      -10.8205196465  W2        7398            0.0000000000
     22194      7398  TIP3      H2            -52.1181666405      -39.2015722861      -11.4463496465  W2        7398            0.0000000000
     22195      7399  TIP3      OH2           -53.3756266405      -37.0989622861        0.4821403535  W2        7399            0.0000000000
     22196      7399  TIP3      H1            -52.8354066405      -37.3155622861        1.2420603535  W2        7399            0.0000000000
     22197      7399  TIP3      H2            -53.8568266405      -37.9043622861        0.2923903535  W2        7399            0.0000000000
     22198      7400  TIP3      OH2           -48.7782866405      -38.1795222861        2.1025603535  W2        7400            0.0000000000
     22199      7400  TIP3      H1            -48.0105666405      -38.6384422861        2.4434803535  W2        7400            0.0000000000
     22200      7400  TIP3      H2            -48.7996666405      -38.4055422861        1.1726803535  W2        7400            0.0000000000
     22201      7401  TIP3      OH2           -44.6863266405      -38.6714622861      -16.5222596465  W2        7401            0.0000000000
     22202      7401  TIP3      H1            -45.3302266405      -39.3026022861      -16.2008896465  W2        7401            0.0000000000
     22203      7401  TIP3      H2            -43.9244966405      -39.2026622861      -16.7539096465  W2        7401            0.0000000000
     22204      7402  TIP3      OH2           -42.2014166405      -39.7994122861        0.8317103535  W2        7402            0.0000000000
     22205      7402  TIP3      H1            -42.5524666405      -40.6561122861        1.0747503535  W2        7402            0.0000000000
     22206      7402  TIP3      H2            -41.4750966405      -39.6567422861        1.4386103535  W2        7402            0.0000000000
     22207      7403  TIP3      OH2           -40.0820366405      -38.8544722861      -16.2884596465  W2        7403            0.0000000000
     22208      7403  TIP3      H1            -39.7989966405      -39.6489522861      -15.8357696465  W2        7403            0.0000000000
     22209      7403  TIP3      H2            -39.3422466405      -38.6213722861      -16.8493496465  W2        7403            0.0000000000
     22210      7404  TIP3      OH2           -53.4686766405      -43.2885522861        1.4365703535  W2        7404            0.0000000000
     22211      7404  TIP3      H1            -53.3246266405      -44.1904822861        1.1502403535  W2        7404            0.0000000000
     22212      7404  TIP3      H2            -54.2409366405      -43.0023422861        0.9488003535  W2        7404            0.0000000000
     22213      7405  TIP3      OH2           -49.1273066405      -42.9449822861      -16.4309696465  W2        7405            0.0000000000
     22214      7405  TIP3      H1            -49.0628966405      -43.7390222861      -15.9003296465  W2        7405            0.0000000000
     22215      7405  TIP3      H2            -48.4743866405      -43.0637022861      -17.1207696465  W2        7405            0.0000000000
     22216      7406  TIP3      OH2           -46.8130666405      -43.3187422861        0.8692103535  W2        7406            0.0000000000
     22217      7406  TIP3      H1            -47.1416866405      -43.0479322861        0.0119503535  W2        7406            0.0000000000
     22218      7406  TIP3      H2            -46.6612466405      -44.2597622861        0.7817103535  W2        7406            0.0000000000
     22219      7407  TIP3      OH2           -43.7749666405      -41.8978122861      -16.6951696465  W2        7407            0.0000000000
     22220      7407  TIP3      H1            -44.0435566405      -41.7176022861      -15.7942796465  W2        7407            0.0000000000
     22221      7407  TIP3      H2            -43.9814066405      -42.8231922861      -16.8265896465  W2        7407            0.0000000000
     22222      7408  TIP3      OH2           -41.0785466405      -43.4030122861       -1.7475596465  W2        7408            0.0000000000
     22223      7408  TIP3      H1            -40.3330666405      -42.8146422861       -1.8671596465  W2        7408            0.0000000000
     22224      7408  TIP3      H2            -41.8358666405      -42.8210422861       -1.6842496465  W2        7408            0.0000000000
     22225      7409  TIP3      OH2           -52.6360266405      -46.0882222861        0.8565003535  W2        7409            0.0000000000
     22226      7409  TIP3      H1            -52.2279066405      -46.9455622861        0.7355603535  W2        7409            0.0000000000
     22227      7409  TIP3      H2            -52.8962666405      -46.0740922861        1.7775303535  W2        7409            0.0000000000
     22228      7410  TIP3      OH2           -47.9779266405      -44.9723622861      -14.1251696465  W2        7410            0.0000000000
     22229      7410  TIP3      H1            -48.4377266405      -45.4565322861      -13.4393196465  W2        7410            0.0000000000
     22230      7410  TIP3      H2            -47.7230566405      -45.6408222861      -14.7611196465  W2        7410            0.0000000000
     22231      7411  TIP3      OH2           -48.6889966405      -47.0796522861       -1.7692096465  W2        7411            0.0000000000
     22232      7411  TIP3      H1            -49.3073866405      -46.4049922861       -1.4887396465  W2        7411            0.0000000000
     22233      7411  TIP3      H2            -48.3448766405      -46.7582622861       -2.6025896465  W2        7411            0.0000000000
     22234      7412  TIP3      OH2           -46.9068866405      -46.7291822861      -15.8628496465  W2        7412            0.0000000000
     22235      7412  TIP3      H1            -47.0873866405      -46.8840622861      -16.7900196465  W2        7412            0.0000000000
     22236      7412  TIP3      H2            -45.9568366405      -46.6213122861      -15.8180596465  W2        7412            0.0000000000
     22237      7413  TIP3      OH2           -43.6691766405      -44.6081222861        1.5082703535  W2        7413            0.0000000000
     22238      7413  TIP3      H1            -42.7160566405      -44.5242122861        1.4808703535  W2        7413            0.0000000000
     22239      7413  TIP3      H2            -43.8297166405      -45.3199422861        2.1277603535  W2        7413            0.0000000000
     22240      7414  TIP3      OH2           -37.5170566405      -44.3747622861      -16.4170396465  W2        7414            0.0000000000
     22241      7414  TIP3      H1            -37.7905766405      -44.7992122861      -17.2302096465  W2        7414            0.0000000000
     22242      7414  TIP3      H2            -37.4776466405      -43.4433122861      -16.6339996465  W2        7414            0.0000000000
     22243      7415  TIP3      OH2           -48.3496266405      -49.7245722861       -0.6868996465  W2        7415            0.0000000000
     22244      7415  TIP3      H1            -48.1995366405      -50.4534422861       -1.2889296465  W2        7415            0.0000000000
     22245      7415  TIP3      H2            -48.3473866405      -48.9474022861       -1.2456796465  W2        7415            0.0000000000
     22246      7416  TIP3      OH2           -47.9370566405      -51.3549922861       -3.1941596465  W2        7416            0.0000000000
     22247      7416  TIP3      H1            -47.4013066405      -50.9033222861       -3.8462296465  W2        7416            0.0000000000
     22248      7416  TIP3      H2            -48.7890966405      -51.4630122861       -3.6167496465  W2        7416            0.0000000000
     22249      7417  TIP3      OH2           -46.3552166405      -45.9153722861       -2.9546396465  W2        7417            0.0000000000
     22250      7417  TIP3      H1            -45.6047366405      -46.0716222861       -3.5278596465  W2        7417            0.0000000000
     22251      7417  TIP3      H2            -46.6943866405      -45.0637122861       -3.2300896465  W2        7417            0.0000000000
     22252      7418  TIP3      OH2           -41.9395966405      -48.1001922861        2.0738903535  W2        7418            0.0000000000
     22253      7418  TIP3      H1            -41.7474666405      -49.0312522861        1.9623403535  W2        7418            0.0000000000
     22254      7418  TIP3      H2            -41.0819666405      -47.6752422861        2.0634303535  W2        7418            0.0000000000
     22255      7419  TIP3      OH2           -40.6228766405      -45.3116722861        0.1511603535  W2        7419            0.0000000000
     22256      7419  TIP3      H1            -40.9043766405      -44.6022122861       -0.4264596465  W2        7419            0.0000000000
     22257      7419  TIP3      H2            -39.6804466405      -45.3843722861        0.0002803535  W2        7419            0.0000000000
     22258      7420  TIP3      OH2           -49.8709966405      -48.5262222861        1.2246603535  W2        7420            0.0000000000
     22259      7420  TIP3      H1            -50.6380966405      -49.0587422861        1.0144203535  W2        7420            0.0000000000
     22260      7420  TIP3      H2            -49.1920966405      -48.8361822861        0.6252903535  W2        7420            0.0000000000
     22261      7421  TIP3      OH2           -47.1315066405      -53.8984222861       -2.7627996465  W2        7421            0.0000000000
     22262      7421  TIP3      H1            -47.2295466405      -52.9521022861       -2.8681796465  W2        7421            0.0000000000
     22263      7421  TIP3      H2            -47.8738866405      -54.2710422861       -3.2384496465  W2        7421            0.0000000000
     22264      7422  TIP3      OH2           -45.8674566405      -49.5768822861        0.8010403535  W2        7422            0.0000000000
     22265      7422  TIP3      H1            -46.1029166405      -49.7962122861        1.7025303535  W2        7422            0.0000000000
     22266      7422  TIP3      H2            -46.6507666405      -49.7837622861        0.2912903535  W2        7422            0.0000000000
     22267      7423  TIP3      OH2           -43.1517966405      -50.4495322861       -0.1236096465  W2        7423            0.0000000000
     22268      7423  TIP3      H1            -44.0992566405      -50.4175622861        0.0087203535  W2        7423            0.0000000000
     22269      7423  TIP3      H2            -42.8391266405      -51.0748222861        0.5302103535  W2        7423            0.0000000000
     22270      7424  TIP3      OH2           -41.5176466405      -51.8154222861        1.8815803535  W2        7424            0.0000000000
     22271      7424  TIP3      H1            -41.6144666405      -52.7676922861        1.8757703535  W2        7424            0.0000000000
     22272      7424  TIP3      H2            -41.8393366405      -51.5467422861        2.7421303535  W2        7424            0.0000000000
     22273      7425  TIP3      OH2           -51.6907166405      -50.6058422861        0.9291303535  W2        7425            0.0000000000
     22274      7425  TIP3      H1            -51.4789766405      -51.3122322861        0.3188803535  W2        7425            0.0000000000
     22275      7425  TIP3      H2            -51.8019666405      -51.0432422861        1.7732503535  W2        7425            0.0000000000
     22276      7426  TIP3      OH2           -46.9096966405      -54.6046822861       -0.0915196465  W2        7426            0.0000000000
     22277      7426  TIP3      H1            -46.1978566405      -55.2444622861       -0.1056096465  W2        7426            0.0000000000
     22278      7426  TIP3      H2            -47.0106566405      -54.3378522861       -1.0052096465  W2        7426            0.0000000000
     22279      7427  TIP3      OH2           -46.5559466405      -52.9218422861        1.9621103535  W2        7427            0.0000000000
     22280      7427  TIP3      H1            -46.6877266405      -53.3974622861        1.1419603535  W2        7427            0.0000000000
     22281      7427  TIP3      H2            -47.1552066405      -52.1774822861        1.9068203535  W2        7427            0.0000000000
     22282      7428  TIP3      OH2           -47.0097166405      -36.0388122861      -14.8614896465  W2        7428            0.0000000000
     22283      7428  TIP3      H1            -46.0766466405      -35.8809422861      -14.7176496465  W2        7428            0.0000000000
     22284      7428  TIP3      H2            -47.2738366405      -35.3635122861      -15.4863396465  W2        7428            0.0000000000
     22285      7429  TIP3      OH2           -53.4412266405      -41.4024322861      -15.3786796465  W2        7429            0.0000000000
     22286      7429  TIP3      H1            -52.5273066405      -41.3235422861      -15.1052896465  W2        7429            0.0000000000
     22287      7429  TIP3      H2            -53.4339166405      -42.0894722861      -16.0451196465  W2        7429            0.0000000000
     22288      7430  TIP3      OH2           -54.7921666405      -36.0095822861      -10.3012896465  W2        7430            0.0000000000
     22289      7430  TIP3      H1            -55.4394566405      -36.4714122861      -10.8341696465  W2        7430            0.0000000000
     22290      7430  TIP3      H2            -54.4377066405      -36.6812522861       -9.7186696465  W2        7430            0.0000000000
     22291      7431  TIP3      OH2           -53.9222466405      -37.9288822861       -8.4966696465  W2        7431            0.0000000000
     22292      7431  TIP3      H1            -54.2565666405      -38.8091522861       -8.3246496465  W2        7431            0.0000000000
     22293      7431  TIP3      H2            -53.7000066405      -37.5833822861       -7.6321096465  W2        7431            0.0000000000
     22294      7432  TIP3      OH2           -36.3737666405      -37.1192422861       -5.5161896465  W2        7432            0.0000000000
     22295      7432  TIP3      H1            -36.3950966405      -36.9344022861       -4.5772496465  W2        7432            0.0000000000
     22296      7432  TIP3      H2            -35.6831466405      -36.5508422861       -5.8570496465  W2        7432            0.0000000000
     22297      7433  TIP3      OH2           -36.8104766405      -37.5521322861       -2.5942796465  W2        7433            0.0000000000
     22298      7433  TIP3      H1            -37.2976066405      -38.2877222861       -2.9655396465  W2        7433            0.0000000000
     22299      7433  TIP3      H2            -36.2612066405      -37.9457422861       -1.9163396465  W2        7433            0.0000000000
     22300      7434  TIP3      OH2           -38.3597466405      -41.7623222861        2.0437503535  W2        7434            0.0000000000
     22301      7434  TIP3      H1            -39.2256366405      -41.8673522861        2.4379803535  W2        7434            0.0000000000
     22302      7434  TIP3      H2            -37.9831566405      -41.0039922861        2.4902203535  W2        7434            0.0000000000
     22303      7435  TIP3      OH2           -37.0587766405      -43.5059522861      -12.4419996465  W2        7435            0.0000000000
     22304      7435  TIP3      H1            -36.2086366405      -43.0848622861      -12.3148396465  W2        7435            0.0000000000
     22305      7435  TIP3      H2            -37.0532666405      -44.2459422861      -11.8348596465  W2        7435            0.0000000000
     22306      7436  TIP3      OH2           -36.6642166405      -45.4522122861      -10.6184296465  W2        7436            0.0000000000
     22307      7436  TIP3      H1            -37.3907566405      -45.9319522861      -10.2206696465  W2        7436            0.0000000000
     22308      7436  TIP3      H2            -36.0828866405      -45.2467422861       -9.8862696465  W2        7436            0.0000000000
     22309      7437  TIP3      OH2           -36.9050966405      -42.6674622861       -5.6706696465  W2        7437            0.0000000000
     22310      7437  TIP3      H1            -36.0716766405      -43.0454622861       -5.9513096465  W2        7437            0.0000000000
     22311      7437  TIP3      H2            -36.7930666405      -41.7243422861       -5.7897596465  W2        7437            0.0000000000
     22312      7438  TIP3      OH2           -38.4188666405      -39.7897122861       -3.3638296465  W2        7438            0.0000000000
     22313      7438  TIP3      H1            -39.0663366405      -39.4645622861       -2.7383096465  W2        7438            0.0000000000
     22314      7438  TIP3      H2            -38.9364666405      -40.2299422861       -4.0379996465  W2        7438            0.0000000000
     22315      7439  TIP3      OH2           -36.3959066405      -45.5513622861      -14.2272996465  W2        7439            0.0000000000
     22316      7439  TIP3      H1            -36.9177966405      -45.1949522861      -14.9462096465  W2        7439            0.0000000000
     22317      7439  TIP3      H2            -36.4289866405      -44.8765822861      -13.5492096465  W2        7439            0.0000000000
     22318      7440  TIP3      OH2           -38.0470066405      -48.3118022861      -15.6765896465  W2        7440            0.0000000000
     22319      7440  TIP3      H1            -37.9505666405      -47.6451022861      -16.3566196465  W2        7440            0.0000000000
     22320      7440  TIP3      H2            -38.1870466405      -49.1271722861      -16.1580396465  W2        7440            0.0000000000
     22321      7441  TIP3      OH2           -38.8775366405      -46.9315622861      -10.0555596465  W2        7441            0.0000000000
     22322      7441  TIP3      H1            -39.0276566405      -47.8767022861      -10.0757796465  W2        7441            0.0000000000
     22323      7441  TIP3      H2            -39.2310866405      -46.6504222861       -9.2116496465  W2        7441            0.0000000000
     22324      7442  TIP3      OH2           -53.8422966405      -44.8533422861       -6.0451796465  W2        7442            0.0000000000
     22325      7442  TIP3      H1            -53.6580066405      -44.9351722861       -6.9808896465  W2        7442            0.0000000000
     22326      7442  TIP3      H2            -52.9930066405      -44.9776422861       -5.6215396465  W2        7442            0.0000000000
     22327      7443  TIP3      OH2           -38.0212466405      -44.9612322861       -0.4167296465  W2        7443            0.0000000000
     22328      7443  TIP3      H1            -37.4385166405      -45.6960022861       -0.2250096465  W2        7443            0.0000000000
     22329      7443  TIP3      H2            -37.4573166405      -44.1892022861       -0.3701496465  W2        7443            0.0000000000
     22330      7444  TIP3      OH2           -36.5245366405      -47.0586522861        0.2678103535  W2        7444            0.0000000000
     22331      7444  TIP3      H1            -37.3878666405      -47.4374422861        0.1022803535  W2        7444            0.0000000000
     22332      7444  TIP3      H2            -35.9201666405      -47.7971722861        0.1933903535  W2        7444            0.0000000000
     22333      7445  TIP3      OH2           -38.7996266405      -50.9038222861      -16.5590396465  W2        7445            0.0000000000
     22334      7445  TIP3      H1            -38.1890466405      -51.2751422861      -15.9222196465  W2        7445            0.0000000000
     22335      7445  TIP3      H2            -39.6364766405      -51.3251322861      -16.3630396465  W2        7445            0.0000000000
     22336      7446  TIP3      OH2           -39.1670566405      -49.3489822861      -11.5930496465  W2        7446            0.0000000000
     22337      7446  TIP3      H1            -38.8873466405      -50.2559422861      -11.4688796465  W2        7446            0.0000000000
     22338      7446  TIP3      H2            -38.4078866405      -48.9148322861      -11.9821296465  W2        7446            0.0000000000
     22339      7447  TIP3      OH2           -38.5552266405      -48.7672422861       -6.1571596465  W2        7447            0.0000000000
     22340      7447  TIP3      H1            -37.6224266405      -48.5552522861       -6.1915596465  W2        7447            0.0000000000
     22341      7447  TIP3      H2            -38.7904766405      -48.6660322861       -5.2348596465  W2        7447            0.0000000000
     22342      7448  TIP3      OH2           -38.5260366405      -48.0307122861       -3.3812196465  W2        7448            0.0000000000
     22343      7448  TIP3      H1            -39.3689066405      -47.7626722861       -3.0152396465  W2        7448            0.0000000000
     22344      7448  TIP3      H2            -38.0836066405      -47.2085222861       -3.5921096465  W2        7448            0.0000000000
     22345      7449  TIP3      OH2           -54.2448166405      -49.5828422861        0.0957003535  W2        7449            0.0000000000
     22346      7449  TIP3      H1            -53.3253266405      -49.7050122861        0.3320103535  W2        7449            0.0000000000
     22347      7449  TIP3      H2            -54.6943666405      -50.3328722861        0.4850503535  W2        7449            0.0000000000
     22348      7450  TIP3      OH2           -36.2428766405      -54.0506922861        1.9722803535  W2        7450            0.0000000000
     22349      7450  TIP3      H1            -35.8931766405      -54.7043422861        1.3667503535  W2        7450            0.0000000000
     22350      7450  TIP3      H2            -36.0959266405      -53.2132822861        1.5325403535  W2        7450            0.0000000000
     22351      7451  TIP3      OH2           -38.5535766405      -52.0860522861      -11.5448496465  W2        7451            0.0000000000
     22352      7451  TIP3      H1            -38.3710766405      -52.5349022861      -10.7193496465  W2        7451            0.0000000000
     22353      7451  TIP3      H2            -39.1532866405      -52.6706122861      -12.0083896465  W2        7451            0.0000000000
     22354      7452  TIP3      OH2           -53.0235666405      -51.2706822861       -7.0130096465  W2        7452            0.0000000000
     22355      7452  TIP3      H1            -52.5784066405      -52.0624322861       -6.7110396465  W2        7452            0.0000000000
     22356      7452  TIP3      H2            -52.5572666405      -50.5541622861       -6.5824496465  W2        7452            0.0000000000
     22357      7453  TIP3      OH2           -54.7195366405      -48.2713822861       -5.9439896465  W2        7453            0.0000000000
     22358      7453  TIP3      H1            -54.2275566405      -48.4923322861       -6.7347896465  W2        7453            0.0000000000
     22359      7453  TIP3      H2            -54.3574466405      -47.4310422861       -5.6630396465  W2        7453            0.0000000000
     22360      7454  TIP3      OH2           -36.7231566405      -51.9412322861        0.3214103535  W2        7454            0.0000000000
     22361      7454  TIP3      H1            -37.6405866405      -51.6705222861        0.2857603535  W2        7454            0.0000000000
     22362      7454  TIP3      H2            -36.6002166405      -52.4763922861       -0.4626196465  W2        7454            0.0000000000
     22363      7455  TIP3      OH2           -36.6869566405      -52.0182422861      -15.0168196465  W2        7455            0.0000000000
     22364      7455  TIP3      H1            -36.2746966405      -52.7396722861      -15.4920196465  W2        7455            0.0000000000
     22365      7455  TIP3      H2            -36.0053066405      -51.3487822861      -14.9583896465  W2        7455            0.0000000000
     22366      7456  TIP3      OH2           -54.4058866405      -52.0134722861      -11.8897496465  W2        7456            0.0000000000
     22367      7456  TIP3      H1            -55.3310466405      -51.8048122861      -12.0191996465  W2        7456            0.0000000000
     22368      7456  TIP3      H2            -53.9518966405      -51.5293922861      -12.5795196465  W2        7456            0.0000000000
     22369      7457  TIP3      OH2           -39.6351666405      -37.0293022861       -9.9440096465  W2        7457            0.0000000000
     22370      7457  TIP3      H1            -38.9828766405      -37.3770922861      -10.5520996465  W2        7457            0.0000000000
     22371      7457  TIP3      H2            -39.1247866405      -36.5409822861       -9.2980396465  W2        7457            0.0000000000
     22372      7458  TIP3      OH2           -54.4423466405      -53.2755722861       -3.5454996465  W2        7458            0.0000000000
     22373      7458  TIP3      H1            -55.1072966405      -53.5215422861       -2.9024096465  W2        7458            0.0000000000
     22374      7458  TIP3      H2            -54.8852166405      -52.6535322861       -4.1226996465  W2        7458            0.0000000000
     22375      7459  TIP3      OH2           -52.2504166405      -40.1001622861        0.5990803535  W2        7459            0.0000000000
     22376      7459  TIP3      H1            -53.0711666405      -39.9255122861        0.1385503535  W2        7459            0.0000000000
     22377      7459  TIP3      H2            -52.5026366405      -40.1736922861        1.5195203535  W2        7459            0.0000000000
     22378      7460  TIP3      OH2           -49.2961266405      -39.1260422861       -3.1425196465  W2        7460            0.0000000000
     22379      7460  TIP3      H1            -49.7210166405      -38.3161922861       -3.4250596465  W2        7460            0.0000000000
     22380      7460  TIP3      H2            -48.3918466405      -39.0406322861       -3.4445396465  W2        7460            0.0000000000
     22381      7461  TIP3      OH2           -44.9849866405      -37.7270422861       -0.1831496465  W2        7461            0.0000000000
     22382      7461  TIP3      H1            -44.8002366405      -38.0604322861        0.6948803535  W2        7461            0.0000000000
     22383      7461  TIP3      H2            -44.1385366405      -37.4171822861       -0.5052296465  W2        7461            0.0000000000
     22384      7462  TIP3      OH2           -42.6399466405      -36.4411522861       -0.9390096465  W2        7462            0.0000000000
     22385      7462  TIP3      H1            -41.9630566405      -37.0739222861       -1.1790896465  W2        7462            0.0000000000
     22386      7462  TIP3      H2            -42.3180666405      -36.0401022861       -0.1316796465  W2        7462            0.0000000000
     22387      7463  TIP3      OH2           -37.7225666405      -53.8516022861       -1.8595096465  W2        7463            0.0000000000
     22388      7463  TIP3      H1            -38.5352166405      -53.5265722861       -2.2470396465  W2        7463            0.0000000000
     22389      7463  TIP3      H2            -37.4897166405      -54.6117522861       -2.3925996465  W2        7463            0.0000000000
     22390      7464  TIP3      OH2           -51.8944566405      -35.8696522861       -3.0949896465  W2        7464            0.0000000000
     22391      7464  TIP3      H1            -52.6148166405      -35.4295522861       -3.5462196465  W2        7464            0.0000000000
     22392      7464  TIP3      H2            -52.2600566405      -36.1201822861       -2.2465896465  W2        7464            0.0000000000
     22393      7465  TIP3      OH2           -49.4271966405      -36.2692622861       -4.0652696465  W2        7465            0.0000000000
     22394      7465  TIP3      H1            -50.2919766405      -36.1974122861       -3.6612596465  W2        7465            0.0000000000
     22395      7465  TIP3      H2            -49.4822966405      -35.7225322861       -4.8490196465  W2        7465            0.0000000000
     22396      7466  TIP3      OH2           -44.7166366405      -36.3813722861       -4.8896696465  W2        7466            0.0000000000
     22397      7466  TIP3      H1            -45.1732366405      -35.8524022861       -5.5438296465  W2        7466            0.0000000000
     22398      7466  TIP3      H2            -44.5538366405      -35.7782322861       -4.1644396465  W2        7466            0.0000000000
     22399      7467  TIP3      OH2           -42.3890066405      -37.5034122861       -3.9446396465  W2        7467            0.0000000000
     22400      7467  TIP3      H1            -43.2936366405      -37.3383922861       -4.2104296465  W2        7467            0.0000000000
     22401      7467  TIP3      H2            -41.9601466405      -36.6501922861       -4.0102996465  W2        7467            0.0000000000
     22402      7468  TIP3      OH2           -39.7848166405      -35.9335022861       -3.6498596465  W2        7468            0.0000000000
     22403      7468  TIP3      H1            -39.9666166405      -35.0176122861       -3.8603696465  W2        7468            0.0000000000
     22404      7468  TIP3      H2            -39.6080366405      -36.3437922861       -4.4963996465  W2        7468            0.0000000000
     22405      7469  TIP3      OH2           -52.4796466405      -37.2464022861       -6.1848096465  W2        7469            0.0000000000
     22406      7469  TIP3      H1            -52.4980466405      -37.6718922861       -5.3275796465  W2        7469            0.0000000000
     22407      7469  TIP3      H2            -51.6748566405      -37.5649022861       -6.5935896465  W2        7469            0.0000000000
     22408      7470  TIP3      OH2           -50.3383366405      -38.5365322861       -7.5298196465  W2        7470            0.0000000000
     22409      7470  TIP3      H1            -50.5572666405      -39.4527922861       -7.3602196465  W2        7470            0.0000000000
     22410      7470  TIP3      H2            -49.5141166405      -38.3964922861       -7.0636796465  W2        7470            0.0000000000
     22411      7471  TIP3      OH2           -47.8010866405      -38.0666022861       -6.6810196465  W2        7471            0.0000000000
     22412      7471  TIP3      H1            -47.5885166405      -38.9547022861       -6.9679296465  W2        7471            0.0000000000
     22413      7471  TIP3      H2            -47.7365766405      -38.1008322861       -5.7266196465  W2        7471            0.0000000000
     22414      7472  TIP3      OH2           -44.2927166405      -52.4025422861       -7.5366896465  W2        7472            0.0000000000
     22415      7472  TIP3      H1            -44.9670366405      -53.0319822861       -7.2811096465  W2        7472            0.0000000000
     22416      7472  TIP3      H2            -43.7287966405      -52.8866522861       -8.1398996465  W2        7472            0.0000000000
     22417      7473  TIP3      OH2           -39.1499966405      -54.2951422861       -7.4239796465  W2        7473            0.0000000000
     22418      7473  TIP3      H1            -38.5462366405      -53.7476022861       -7.9258796465  W2        7473            0.0000000000
     22419      7473  TIP3      H2            -40.0197966405      -53.9761022861       -7.6645696465  W2        7473            0.0000000000
     22420      7474  TIP3      OH2           -37.4229566405      -53.1562722861       -9.0908896465  W2        7474            0.0000000000
     22421      7474  TIP3      H1            -36.8112066405      -53.6707022861       -9.6175296465  W2        7474            0.0000000000
     22422      7474  TIP3      H2            -37.0406166405      -52.2790622861       -9.0674496465  W2        7474            0.0000000000
     22423      7475  TIP3      OH2           -51.9659666405      -53.7685122861       -9.7146996465  W2        7475            0.0000000000
     22424      7475  TIP3      H1            -52.7429866405      -54.0030222861      -10.2221096465  W2        7475            0.0000000000
     22425      7475  TIP3      H2            -51.4356066405      -54.5653022861       -9.7058996465  W2        7475            0.0000000000
     22426      7476  TIP3      OH2           -53.1296266405      -53.9707022861      -13.9110896465  W2        7476            0.0000000000
     22427      7476  TIP3      H1            -52.6905566405      -53.3596522861      -14.5027396465  W2        7476            0.0000000000
     22428      7476  TIP3      H2            -53.7633866405      -53.4322922861      -13.4370896465  W2        7476            0.0000000000
     22429      7477  TIP3      OH2           -47.3867066405      -53.8418022861       -9.9013896465  W2        7477            0.0000000000
     22430      7477  TIP3      H1            -46.5123666405      -53.4533722861       -9.9309596465  W2        7477            0.0000000000
     22431      7477  TIP3      H2            -47.5226266405      -54.0570222861       -8.9786696465  W2        7477            0.0000000000
     22432      7478  TIP3      OH2           -41.8298666405      -53.8118222861       -8.2522196465  W2        7478            0.0000000000
     22433      7478  TIP3      H1            -41.7537066405      -53.7166622861       -9.2016196465  W2        7478            0.0000000000
     22434      7478  TIP3      H2            -42.1049466405      -54.7195322861       -8.1233096465  W2        7478            0.0000000000
     22435      7479  TIP3      OH2           -40.4766066405      -53.7860422861      -12.5597196465  W2        7479            0.0000000000
     22436      7479  TIP3      H1            -41.1794966405      -53.1711222861      -12.7695796465  W2        7479            0.0000000000
     22437      7479  TIP3      H2            -40.9214666405      -54.6233722861      -12.4286296465  W2        7479            0.0000000000
     22438      7480  TIP3      OH2           -53.2286766405      -38.0224822861      -13.0135796465  W2        7480            0.0000000000
     22439      7480  TIP3      H1            -53.9136866405      -38.0605922861      -13.6810696465  W2        7480            0.0000000000
     22440      7480  TIP3      H2            -53.2249566405      -37.1097222861      -12.7253696465  W2        7480            0.0000000000
     22441      7481  TIP3      OH2           -51.2687166405      -52.0545522861      -15.4686796465  W2        7481            0.0000000000
     22442      7481  TIP3      H1            -50.7773766405      -52.6843122861      -15.9961296465  W2        7481            0.0000000000
     22443      7481  TIP3      H2            -50.6450866405      -51.7586122861      -14.8055596465  W2        7481            0.0000000000
     22444      7482  TIP3      OH2           -46.2427066405      -51.7614022861      -13.0116296465  W2        7482            0.0000000000
     22445      7482  TIP3      H1            -46.0645766405      -52.4080822861      -12.3287696465  W2        7482            0.0000000000
     22446      7482  TIP3      H2            -46.2960866405      -50.9276322861      -12.5445196465  W2        7482            0.0000000000
     22447      7483  TIP3      OH2           -44.3643266405      -36.8129922861      -14.6159596465  W2        7483            0.0000000000
     22448      7483  TIP3      H1            -43.4983066405      -36.4462522861      -14.7941396465  W2        7483            0.0000000000
     22449      7483  TIP3      H2            -44.6110466405      -37.2521922861      -15.4298796465  W2        7483            0.0000000000
     22450      7484  TIP3      OH2           -37.6553666405      -37.2499622861      -11.9368496465  W2        7484            0.0000000000
     22451      7484  TIP3      H1            -37.8496566405      -37.9977522861      -12.5018896465  W2        7484            0.0000000000
     22452      7484  TIP3      H2            -37.6943566405      -36.4919522861      -12.5200596465  W2        7484            0.0000000000
     22453      7485  TIP3      OH2           -52.0081666405      -53.2543222861       -0.1970796465  W2        7485            0.0000000000
     22454      7485  TIP3      H1            -52.3743466405      -54.0200622861        0.2453903535  W2        7485            0.0000000000
     22455      7485  TIP3      H2            -51.0953166405      -53.2253022861        0.0894303535  W2        7485            0.0000000000
     22456      7486  TIP3      OH2           -50.0350866405      -53.9038822861        1.3386303535  W2        7486            0.0000000000
     22457      7486  TIP3      H1            -49.1367266405      -54.1778622861        1.1539703535  W2        7486            0.0000000000
     22458      7486  TIP3      H2            -50.4217766405      -54.6462822861        1.8028903535  W2        7486            0.0000000000
     22459      7487  TIP3      OH2           -51.4105566405      -37.1024022861      -15.9883696465  W2        7487            0.0000000000
     22460      7487  TIP3      H1            -51.6780966405      -36.8161122861      -15.1150596465  W2        7487            0.0000000000
     22461      7487  TIP3      H2            -50.6392966405      -37.6484822861      -15.8361196465  W2        7487            0.0000000000
     22462      7488  TIP3      OH2           -41.6138566405      -54.5713522861        1.5209103535  W2        7488            0.0000000000
     22463      7488  TIP3      H1            -41.5371366405      -54.9972822861        2.3746803535  W2        7488            0.0000000000
     22464      7488  TIP3      H2            -40.7201966405      -54.5578822861        1.1782603535  W2        7488            0.0000000000
     22465      7489  TIP3      OH2           -38.4377466405      -38.4987222861        0.2133303535  W2        7489            0.0000000000
     22466      7489  TIP3      H1            -39.2195566405      -38.6849222861       -0.3066096465  W2        7489            0.0000000000
     22467      7489  TIP3      H2            -38.5097566405      -37.5692922861        0.4305803535  W2        7489            0.0000000000
     22468      7490  TIP3      OH2           -24.0317066405      -44.6122822861       -9.7559496465  W2        7490            0.0000000000
     22469      7490  TIP3      H1            -23.9425966405      -43.6684622861       -9.8882396465  W2        7490            0.0000000000
     22470      7490  TIP3      H2            -24.6699466405      -44.8876422861      -10.4140096465  W2        7490            0.0000000000
     22471      7491  TIP3      OH2           -25.0985766405      -45.3572122861       -6.3371296465  W2        7491            0.0000000000
     22472      7491  TIP3      H1            -25.1368266405      -46.0035822861       -5.6321696465  W2        7491            0.0000000000
     22473      7491  TIP3      H2            -25.4209266405      -45.8237722861       -7.1082596465  W2        7491            0.0000000000
     22474      7492  TIP3      OH2           -32.7300766405      -45.7430022861       -4.7441396465  W2        7492            0.0000000000
     22475      7492  TIP3      H1            -32.6888666405      -46.3686722861       -4.0208996465  W2        7492            0.0000000000
     22476      7492  TIP3      H2            -32.0273066405      -45.1191422861       -4.5620996465  W2        7492            0.0000000000
     22477      7493  TIP3      OH2           -21.3925566405      -42.4181722861       -8.0356196465  W2        7493            0.0000000000
     22478      7493  TIP3      H1            -21.8332866405      -43.1385722861       -7.5850596465  W2        7493            0.0000000000
     22479      7493  TIP3      H2            -21.4055866405      -41.6974522861       -7.4058496465  W2        7493            0.0000000000
     22480      7494  TIP3      OH2           -31.8067666405      -41.2931122861       -6.2092296465  W2        7494            0.0000000000
     22481      7494  TIP3      H1            -32.1762466405      -42.0950622861       -6.5787996465  W2        7494            0.0000000000
     22482      7494  TIP3      H2            -30.8656566405      -41.4616222861       -6.1628896465  W2        7494            0.0000000000
     22483      7495  TIP3      OH2           -35.1967166405      -47.6328522861      -10.8163496465  W2        7495            0.0000000000
     22484      7495  TIP3      H1            -35.6443766405      -46.7869822861      -10.8346996465  W2        7495            0.0000000000
     22485      7495  TIP3      H2            -35.7575966405      -48.2124322861      -11.3318396465  W2        7495            0.0000000000
     22486      7496  TIP3      OH2           -34.4861066405      -45.4708922861       -8.6905496465  W2        7496            0.0000000000
     22487      7496  TIP3      H1            -34.2727566405      -46.2407322861       -8.1632496465  W2        7496            0.0000000000
     22488      7496  TIP3      H2            -33.7483466405      -45.3812222861       -9.2937896465  W2        7496            0.0000000000
     22489      7497  TIP3      OH2           -24.2810066405      -37.3140022861       -7.8235796465  W2        7497            0.0000000000
     22490      7497  TIP3      H1            -23.6613666405      -37.9905322861       -8.0966596465  W2        7497            0.0000000000
     22491      7497  TIP3      H2            -24.4892666405      -37.5319222861       -6.9150896465  W2        7497            0.0000000000
     22492      7498  TIP3      OH2           -26.7091366405      -42.9250722861       -5.9310296465  W2        7498            0.0000000000
     22493      7498  TIP3      H1            -26.4053466405      -43.6109322861       -6.5256196465  W2        7498            0.0000000000
     22494      7498  TIP3      H2            -25.9877366405      -42.8062022861       -5.3132296465  W2        7498            0.0000000000
     22495      7499  TIP3      OH2           -18.0461566405      -51.3235422861       -5.0704096465  W2        7499            0.0000000000
     22496      7499  TIP3      H1            -17.9969366405      -50.7134222861       -4.3344996465  W2        7499            0.0000000000
     22497      7499  TIP3      H2            -17.6206466405      -50.8624522861       -5.7932996465  W2        7499            0.0000000000
     22498      7500  TIP3      OH2           -23.5684366405      -48.5308322861       -5.6035496465  W2        7500            0.0000000000
     22499      7500  TIP3      H1            -23.4258466405      -49.4771322861       -5.5833896465  W2        7500            0.0000000000
     22500      7500  TIP3      H2            -23.6745366405      -48.3238522861       -6.5320596465  W2        7500            0.0000000000
     22501      7501  TIP3      OH2           -30.4136066405      -50.4291922861       -8.3310696465  W2        7501            0.0000000000
     22502      7501  TIP3      H1            -30.3704966405      -49.5693422861       -8.7494396465  W2        7501            0.0000000000
     22503      7501  TIP3      H2            -30.8711966405      -50.9817222861       -8.9647496465  W2        7501            0.0000000000
     22504      7502  TIP3      OH2           -22.6913366405      -50.2986322861       -9.9302396465  W2        7502            0.0000000000
     22505      7502  TIP3      H1            -22.0449066405      -50.6273122861       -9.3054796465  W2        7502            0.0000000000
     22506      7502  TIP3      H2            -22.1813966405      -49.7807322861      -10.5530996465  W2        7502            0.0000000000
     22507      7503  TIP3      OH2           -33.7934566405      -48.0326122861       -7.5689296465  W2        7503            0.0000000000
     22508      7503  TIP3      H1            -33.1397966405      -48.5824422861       -7.1369196465  W2        7503            0.0000000000
     22509      7503  TIP3      H2            -33.7695266405      -48.3067122861       -8.4857296465  W2        7503            0.0000000000
     22510      7504  TIP3      OH2           -28.6370066405      -46.4824822861       -8.3537796465  W2        7504            0.0000000000
     22511      7504  TIP3      H1            -28.0209066405      -47.0089422861       -7.8443796465  W2        7504            0.0000000000
     22512      7504  TIP3      H2            -29.2231266405      -47.1226122861       -8.7574196465  W2        7504            0.0000000000
     22513      7505  TIP3      OH2           -17.6546966405      -49.8456222861       -2.8344296465  W2        7505            0.0000000000
     22514      7505  TIP3      H1            -18.3432366405      -49.1875522861       -2.9297696465  W2        7505            0.0000000000
     22515      7505  TIP3      H2            -17.6392366405      -50.0428322861       -1.8978896465  W2        7505            0.0000000000
     22516      7506  TIP3      OH2           -31.6034166405      -51.5113522861       -4.2569896465  W2        7506            0.0000000000
     22517      7506  TIP3      H1            -31.8222466405      -50.9812922861       -5.0233896465  W2        7506            0.0000000000
     22518      7506  TIP3      H2            -32.2713266405      -51.2848022861       -3.6098496465  W2        7506            0.0000000000
     22519      7507  TIP3      OH2           -24.2344366405      -42.0112422861      -10.7130796465  W2        7507            0.0000000000
     22520      7507  TIP3      H1            -24.5299266405      -42.3340122861      -11.5643896465  W2        7507            0.0000000000
     22521      7507  TIP3      H2            -24.5586566405      -41.1115722861      -10.6718196465  W2        7507            0.0000000000
     22522      7508  TIP3      OH2           -29.0342766405      -43.8357822861       -3.9696196465  W2        7508            0.0000000000
     22523      7508  TIP3      H1            -29.7743666405      -43.2376322861       -3.8660996465  W2        7508            0.0000000000
     22524      7508  TIP3      H2            -28.3203266405      -43.2818222861       -4.2852596465  W2        7508            0.0000000000
     22525      7509  TIP3      OH2           -20.9274966405      -51.0077022861       -7.9496496465  W2        7509            0.0000000000
     22526      7509  TIP3      H1            -21.1426966405      -51.7733622861       -7.4170496465  W2        7509            0.0000000000
     22527      7509  TIP3      H2            -20.2717566405      -50.5352422861       -7.4367996465  W2        7509            0.0000000000
     22528      7510  TIP3      OH2           -32.0096866405      -49.6191722861       -6.3047696465  W2        7510            0.0000000000
     22529      7510  TIP3      H1            -31.3960566405      -48.9864122861       -5.9315296465  W2        7510            0.0000000000
     22530      7510  TIP3      H2            -31.4976166405      -50.0916722861       -6.9610796465  W2        7510            0.0000000000
     22531      7511  TIP3      OH2           -30.6268466405      -41.8714822861       -3.1824696465  W2        7511            0.0000000000
     22532      7511  TIP3      H1            -30.6320866405      -40.9921322861       -3.5605396465  W2        7511            0.0000000000
     22533      7511  TIP3      H2            -31.4804366405      -41.9550722861       -2.7574796465  W2        7511            0.0000000000
     22534      7512  TIP3      OH2           -34.5057566405      -42.2006922861      -12.4005396465  W2        7512            0.0000000000
     22535      7512  TIP3      H1            -34.7776666405      -41.9715922861      -13.2892496465  W2        7512            0.0000000000
     22536      7512  TIP3      H2            -34.4601866405      -41.3628122861      -11.9400096465  W2        7512            0.0000000000
     22537      7513  TIP3      OH2           -20.8807866405      -40.5791022861       -5.6876896465  W2        7513            0.0000000000
     22538      7513  TIP3      H1            -21.8224166405      -40.5207122861       -5.5259996465  W2        7513            0.0000000000
     22539      7513  TIP3      H2            -20.6041766405      -39.6730522861       -5.8247196465  W2        7513            0.0000000000
     22540      7514  TIP3      OH2           -20.5800866405      -52.2925722861       -4.2702996465  W2        7514            0.0000000000
     22541      7514  TIP3      H1            -21.3161666405      -51.6818622861       -4.3081696465  W2        7514            0.0000000000
     22542      7514  TIP3      H2            -19.8966866405      -51.8776722861       -4.7966596465  W2        7514            0.0000000000
     22543      7515  TIP3      OH2           -27.5769466405      -54.2058422861       -6.8044996465  W2        7515            0.0000000000
     22544      7515  TIP3      H1            -27.6945266405      -55.1542422861       -6.8586696465  W2        7515            0.0000000000
     22545      7515  TIP3      H2            -28.4319366405      -53.8732322861       -6.5313896465  W2        7515            0.0000000000
     22546      7516  TIP3      OH2           -22.6286666405      -38.7977522861       -9.0625296465  W2        7516            0.0000000000
     22547      7516  TIP3      H1            -22.2034366405      -39.5049622861       -9.5475696465  W2        7516            0.0000000000
     22548      7516  TIP3      H2            -22.3116666405      -37.9964822861       -9.4793096465  W2        7516            0.0000000000
     22549      7517  TIP3      OH2           -21.4690166405      -40.8969022861      -10.5538696465  W2        7517            0.0000000000
     22550      7517  TIP3      H1            -21.7265366405      -41.5868922861      -11.1652796465  W2        7517            0.0000000000
     22551      7517  TIP3      H2            -21.3979366405      -41.3397822861       -9.7082796465  W2        7517            0.0000000000
     22552      7518  TIP3      OH2           -19.7829966405      -42.3302322861       -2.0765196465  W2        7518            0.0000000000
     22553      7518  TIP3      H1            -19.6433666405      -42.9219822861       -2.8158196465  W2        7518            0.0000000000
     22554      7518  TIP3      H2            -19.6157166405      -41.4576422861       -2.4326396465  W2        7518            0.0000000000
     22555      7519  TIP3      OH2           -25.3104566405      -45.3682822861      -12.3039196465  W2        7519            0.0000000000
     22556      7519  TIP3      H1            -26.0219066405      -44.8333122861      -12.6558696465  W2        7519            0.0000000000
     22557      7519  TIP3      H2            -24.6194966405      -45.3130722861      -12.9640296465  W2        7519            0.0000000000
     22558      7520  TIP3      OH2           -25.2565366405      -46.9108522861      -15.2654196465  W2        7520            0.0000000000
     22559      7520  TIP3      H1            -24.5555466405      -46.8881622861      -14.6140196465  W2        7520            0.0000000000
     22560      7520  TIP3      H2            -24.9542466405      -47.5388822861      -15.9214896465  W2        7520            0.0000000000
     22561      7521  TIP3      OH2           -17.9410666405      -45.9904322861       -4.0104796465  W2        7521            0.0000000000
     22562      7521  TIP3      H1            -18.5936566405      -45.2958722861       -3.9213896465  W2        7521            0.0000000000
     22563      7521  TIP3      H2            -17.4760366405      -45.7803422861       -4.8203196465  W2        7521            0.0000000000
     22564      7522  TIP3      OH2           -21.9046866405      -45.1589522861      -11.3523296465  W2        7522            0.0000000000
     22565      7522  TIP3      H1            -22.6365866405      -44.9305822861      -10.7792696465  W2        7522            0.0000000000
     22566      7522  TIP3      H2            -21.4574666405      -45.8726822861      -10.8975796465  W2        7522            0.0000000000
     22567      7523  TIP3      OH2           -22.0073366405      -46.9846922861       -2.2846296465  W2        7523            0.0000000000
     22568      7523  TIP3      H1            -21.9274266405      -46.2212522861       -1.7127796465  W2        7523            0.0000000000
     22569      7523  TIP3      H2            -22.6085666405      -46.7054522861       -2.9751196465  W2        7523            0.0000000000
     22570      7524  TIP3      OH2           -30.2593166405      -44.5283322861       -9.4698296465  W2        7524            0.0000000000
     22571      7524  TIP3      H1            -30.5897966405      -44.8989922861      -10.2881296465  W2        7524            0.0000000000
     22572      7524  TIP3      H2            -29.6709066405      -45.1989322861       -9.1229996465  W2        7524            0.0000000000
     22573      7525  TIP3      OH2           -28.8925666405      -41.1002722861       -6.7886096465  W2        7525            0.0000000000
     22574      7525  TIP3      H1            -28.9874366405      -41.6789622861       -7.5451496465  W2        7525            0.0000000000
     22575      7525  TIP3      H2            -28.1632066405      -41.4717022861       -6.2923296465  W2        7525            0.0000000000
     22576      7526  TIP3      OH2           -29.8927666405      -45.7597722861       -5.8363296465  W2        7526            0.0000000000
     22577      7526  TIP3      H1            -29.3275166405      -45.6383522861       -6.5992096465  W2        7526            0.0000000000
     22578      7526  TIP3      H2            -29.5738766405      -45.1222722861       -5.1974796465  W2        7526            0.0000000000
     22579      7527  TIP3      OH2           -23.5835466405      -40.2565822861       -5.1022796465  W2        7527            0.0000000000
     22580      7527  TIP3      H1            -23.8238866405      -39.5942722861       -4.4543596465  W2        7527            0.0000000000
     22581      7527  TIP3      H2            -23.7817266405      -41.0910622861       -4.6773196465  W2        7527            0.0000000000
     22582      7528  TIP3      OH2           -29.0126966405      -41.3605022861       -1.1191396465  W2        7528            0.0000000000
     22583      7528  TIP3      H1            -29.3239466405      -40.5781822861       -0.6638196465  W2        7528            0.0000000000
     22584      7528  TIP3      H2            -29.6626766405      -41.5135922861       -1.8049396465  W2        7528            0.0000000000
     22585      7529  TIP3      OH2           -23.0337366405      -45.9966622861      -13.6672096465  W2        7529            0.0000000000
     22586      7529  TIP3      H1            -22.4541866405      -45.8466322861      -12.9203196465  W2        7529            0.0000000000
     22587      7529  TIP3      H2            -22.6197366405      -45.5259222861      -14.3905696465  W2        7529            0.0000000000
     22588      7530  TIP3      OH2           -32.0927066405      -45.1623922861       -1.8905696465  W2        7530            0.0000000000
     22589      7530  TIP3      H1            -32.0223866405      -44.5117122861       -1.1920696465  W2        7530            0.0000000000
     22590      7530  TIP3      H2            -32.9834866405      -45.0596422861       -2.2254796465  W2        7530            0.0000000000
     22591      7531  TIP3      OH2           -25.3072466405      -39.2598122861      -10.2318996465  W2        7531            0.0000000000
     22592      7531  TIP3      H1            -24.8334866405      -38.9641822861       -9.4544796465  W2        7531            0.0000000000
     22593      7531  TIP3      H2            -25.8703166405      -38.5216522861      -10.4649396465  W2        7531            0.0000000000
     22594      7532  TIP3      OH2           -30.7731066405      -39.2890022861       -0.3557596465  W2        7532            0.0000000000
     22595      7532  TIP3      H1            -30.7655766405      -39.4250322861       -1.3032096465  W2        7532            0.0000000000
     22596      7532  TIP3      H2            -31.6890666405      -39.4061922861       -0.1037596465  W2        7532            0.0000000000
     22597      7533  TIP3      OH2           -19.3348966405      -54.2466222861      -13.8542396465  W2        7533            0.0000000000
     22598      7533  TIP3      H1            -20.2348266405      -54.1077222861      -13.5591796465  W2        7533            0.0000000000
     22599      7533  TIP3      H2            -19.0830566405      -53.4151622861      -14.2560696465  W2        7533            0.0000000000
     22600      7534  TIP3      OH2           -31.2690466405      -45.4589022861      -11.8805496465  W2        7534            0.0000000000
     22601      7534  TIP3      H1            -31.5609166405      -44.6907322861      -12.3714196465  W2        7534            0.0000000000
     22602      7534  TIP3      H2            -31.9435266405      -46.1182822861      -12.0434096465  W2        7534            0.0000000000
     22603      7535  TIP3      OH2           -18.1457566405      -39.8803822861      -15.4778496465  W2        7535            0.0000000000
     22604      7535  TIP3      H1            -18.0724066405      -38.9413622861      -15.3073196465  W2        7535            0.0000000000
     22605      7535  TIP3      H2            -17.2402466405      -40.1855222861      -15.5341196465  W2        7535            0.0000000000
     22606      7536  TIP3      OH2           -35.1760366405      -43.0959822861       -3.0655696465  W2        7536            0.0000000000
     22607      7536  TIP3      H1            -35.6771966405      -43.1240422861       -3.8805996465  W2        7536            0.0000000000
     22608      7536  TIP3      H2            -35.1706666405      -44.0016622861       -2.7558396465  W2        7536            0.0000000000
     22609      7537  TIP3      OH2           -35.4257666405      -40.3156022861       -6.1815496465  W2        7537            0.0000000000
     22610      7537  TIP3      H1            -34.4797066405      -40.4599022861       -6.2005996465  W2        7537            0.0000000000
     22611      7537  TIP3      H2            -35.5381366405      -39.5313222861       -5.6444296465  W2        7537            0.0000000000
     22612      7538  TIP3      OH2           -17.2279166405      -39.6496322861       -0.4991796465  W2        7538            0.0000000000
     22613      7538  TIP3      H1            -17.2772366405      -40.6048222861       -0.5364196465  W2        7538            0.0000000000
     22614      7538  TIP3      H2            -18.0546866405      -39.3821022861       -0.0977996465  W2        7538            0.0000000000
     22615      7539  TIP3      OH2           -26.2495166405      -40.0757122861       -1.6230396465  W2        7539            0.0000000000
     22616      7539  TIP3      H1            -26.1620566405      -39.2492522861       -1.1481296465  W2        7539            0.0000000000
     22617      7539  TIP3      H2            -27.1130066405      -40.4053322861       -1.3741096465  W2        7539            0.0000000000
     22618      7540  TIP3      OH2           -25.8349366405      -36.3033422861      -11.8169796465  W2        7540            0.0000000000
     22619      7540  TIP3      H1            -25.9103366405      -36.4246222861      -12.7634596465  W2        7540            0.0000000000
     22620      7540  TIP3      H2            -25.8020666405      -35.3540722861      -11.6985196465  W2        7540            0.0000000000
     22621      7541  TIP3      OH2           -32.1815566405      -37.5146422861      -10.0360796465  W2        7541            0.0000000000
     22622      7541  TIP3      H1            -32.0295166405      -37.8626022861       -9.1574296465  W2        7541            0.0000000000
     22623      7541  TIP3      H2            -33.0325166405      -37.8709122861      -10.2913596465  W2        7541            0.0000000000
     22624      7542  TIP3      OH2           -22.7333366405      -37.1493222861      -14.8147396465  W2        7542            0.0000000000
     22625      7542  TIP3      H1            -22.3584966405      -37.8937122861      -15.2854796465  W2        7542            0.0000000000
     22626      7542  TIP3      H2            -22.7289666405      -37.4192622861      -13.8964096465  W2        7542            0.0000000000
     22627      7543  TIP3      OH2           -23.0645266405      -37.2236122861      -12.0655196465  W2        7543            0.0000000000
     22628      7543  TIP3      H1            -23.9995466405      -37.1234222861      -11.8868196465  W2        7543            0.0000000000
     22629      7543  TIP3      H2            -22.7843366405      -37.9330122861      -11.4871996465  W2        7543            0.0000000000
     22630      7544  TIP3      OH2           -20.0759366405      -48.1563822861       -0.0189596465  W2        7544            0.0000000000
     22631      7544  TIP3      H1            -20.4832566405      -47.6758222861       -0.7396296465  W2        7544            0.0000000000
     22632      7544  TIP3      H2            -20.0353666405      -49.0617822861       -0.3268796465  W2        7544            0.0000000000
     22633      7545  TIP3      OH2           -32.9269866405      -41.7724422861       -2.0222896465  W2        7545            0.0000000000
     22634      7545  TIP3      H1            -32.7108566405      -42.1338822861       -1.1627096465  W2        7545            0.0000000000
     22635      7545  TIP3      H2            -33.7825166405      -42.1470622861       -2.2319396465  W2        7545            0.0000000000
     22636      7546  TIP3      OH2           -30.3081866405      -53.3023922861       -6.0268696465  W2        7546            0.0000000000
     22637      7546  TIP3      H1            -31.1698166405      -53.3895722861       -6.4345796465  W2        7546            0.0000000000
     22638      7546  TIP3      H2            -30.3306166405      -52.4463822861       -5.5991096465  W2        7546            0.0000000000
     22639      7547  TIP3      OH2           -25.6454066405      -53.5803522861       -2.6521696465  W2        7547            0.0000000000
     22640      7547  TIP3      H1            -25.2250966405      -53.9956422861       -1.8991096465  W2        7547            0.0000000000
     22641      7547  TIP3      H2            -26.5784466405      -53.7590222861       -2.5349696465  W2        7547            0.0000000000
     22642      7548  TIP3      OH2           -22.3189166405      -49.8248322861       -1.7987196465  W2        7548            0.0000000000
     22643      7548  TIP3      H1            -22.8329666405      -49.9506122861       -1.0011196465  W2        7548            0.0000000000
     22644      7548  TIP3      H2            -22.4744466405      -48.9125222861       -2.0430996465  W2        7548            0.0000000000
     22645      7549  TIP3      OH2           -21.5564266405      -44.9638322861      -16.0374196465  W2        7549            0.0000000000
     22646      7549  TIP3      H1            -21.5143466405      -45.1864422861      -16.9674196465  W2        7549            0.0000000000
     22647      7549  TIP3      H2            -20.7072166405      -44.5651222861      -15.8474296465  W2        7549            0.0000000000
     22648      7550  TIP3      OH2           -25.9836766405      -51.0880122861      -15.3670896465  W2        7550            0.0000000000
     22649      7550  TIP3      H1            -26.2371966405      -51.0688522861      -14.4442796465  W2        7550            0.0000000000
     22650      7550  TIP3      H2            -26.2404666405      -51.9594722861      -15.6684696465  W2        7550            0.0000000000
     22651      7551  TIP3      OH2           -30.2171766405      -48.3369422861       -4.9318496465  W2        7551            0.0000000000
     22652      7551  TIP3      H1            -30.8589666405      -48.3772122861       -4.2228396465  W2        7551            0.0000000000
     22653      7551  TIP3      H2            -30.1799766405      -47.4104722861       -5.1695496465  W2        7551            0.0000000000
     22654      7552  TIP3      OH2           -30.2202666405      -48.1159322861      -10.0198496465  W2        7552            0.0000000000
     22655      7552  TIP3      H1            -31.1129766405      -48.4563222861      -10.0784696465  W2        7552            0.0000000000
     22656      7552  TIP3      H2            -29.7696066405      -48.4928422861      -10.7755296465  W2        7552            0.0000000000
     22657      7553  TIP3      OH2           -24.6847166405      -47.6999022861      -11.2027696465  W2        7553            0.0000000000
     22658      7553  TIP3      H1            -25.0936866405      -46.8850422861      -11.4942896465  W2        7553            0.0000000000
     22659      7553  TIP3      H2            -23.9640966405      -47.8398922861      -11.8170596465  W2        7553            0.0000000000
     22660      7554  TIP3      OH2           -25.5825566405      -47.5242622861        0.2853003535  W2        7554            0.0000000000
     22661      7554  TIP3      H1            -26.1451766405      -48.2291022861        0.6060803535  W2        7554            0.0000000000
     22662      7554  TIP3      H2            -24.7562166405      -47.6450722861        0.7530603535  W2        7554            0.0000000000
     22663      7555  TIP3      OH2           -23.6799466405      -48.2538622861       -8.3887996465  W2        7555            0.0000000000
     22664      7555  TIP3      H1            -23.8754966405      -47.6481822861       -9.1037396465  W2        7555            0.0000000000
     22665      7555  TIP3      H2            -23.4986866405      -49.0873422861       -8.8231696465  W2        7555            0.0000000000
     22666      7556  TIP3      OH2           -32.4671266405      -48.0165922861       -3.0646496465  W2        7556            0.0000000000
     22667      7556  TIP3      H1            -32.5051866405      -47.6164322861       -2.1959396465  W2        7556            0.0000000000
     22668      7556  TIP3      H2            -32.9580166405      -48.8333522861       -2.9743596465  W2        7556            0.0000000000
     22669      7557  TIP3      OH2           -29.1013866405      -50.6423622861      -16.2660496465  W2        7557            0.0000000000
     22670      7557  TIP3      H1            -29.5323166405      -51.0873522861      -15.5363096465  W2        7557            0.0000000000
     22671      7557  TIP3      H2            -29.8195166405      -50.2707322861      -16.7782996465  W2        7557            0.0000000000
     22672      7558  TIP3      OH2           -35.8590466405      -50.9004122861       -9.2141796465  W2        7558            0.0000000000
     22673      7558  TIP3      H1            -35.2282766405      -50.9292022861       -8.4947896465  W2        7558            0.0000000000
     22674      7558  TIP3      H2            -35.4096166405      -51.3255422861       -9.9445896465  W2        7558            0.0000000000
     22675      7559  TIP3      OH2           -34.5848366405      -50.1542122861      -13.7901396465  W2        7559            0.0000000000
     22676      7559  TIP3      H1            -34.1106666405      -49.5632222861      -14.3750496465  W2        7559            0.0000000000
     22677      7559  TIP3      H2            -35.3021966405      -49.6239222861      -13.4431296465  W2        7559            0.0000000000
     22678      7560  TIP3      OH2           -24.4160266405      -46.6157322861       -3.7175596465  W2        7560            0.0000000000
     22679      7560  TIP3      H1            -24.0925466405      -47.2467622861       -4.3605096465  W2        7560            0.0000000000
     22680      7560  TIP3      H2            -24.8560966405      -47.1505122861       -3.0568196465  W2        7560            0.0000000000
     22681      7561  TIP3      OH2           -27.6387366405      -50.6881822861       -8.9334396465  W2        7561            0.0000000000
     22682      7561  TIP3      H1            -28.5496266405      -50.6315022861       -8.6448396465  W2        7561            0.0000000000
     22683      7561  TIP3      H2            -27.1334466405      -50.7486322861       -8.1227196465  W2        7561            0.0000000000
     22684      7562  TIP3      OH2           -32.8103966405      -49.0595522861      -10.1066796465  W2        7562            0.0000000000
     22685      7562  TIP3      H1            -33.6995966405      -48.9600022861      -10.4467196465  W2        7562            0.0000000000
     22686      7562  TIP3      H2            -32.5139066405      -49.9012522861      -10.4528896465  W2        7562            0.0000000000
     22687      7563  TIP3      OH2           -29.1572166405      -49.0592922861      -12.4502196465  W2        7563            0.0000000000
     22688      7563  TIP3      H1            -28.2256666405      -48.9302922861      -12.2719096465  W2        7563            0.0000000000
     22689      7563  TIP3      H2            -29.3721866405      -48.3898622861      -13.0997496465  W2        7563            0.0000000000
     22690      7564  TIP3      OH2           -23.2335466405      -51.4535522861       -5.6692596465  W2        7564            0.0000000000
     22691      7564  TIP3      H1            -23.9103866405      -51.3222422861       -5.0052896465  W2        7564            0.0000000000
     22692      7564  TIP3      H2            -23.7190566405      -51.6086022861       -6.4794896465  W2        7564            0.0000000000
     22693      7565  TIP3      OH2           -30.4831966405      -47.8650722861      -14.8836096465  W2        7565            0.0000000000
     22694      7565  TIP3      H1            -31.0256866405      -48.2446922861      -15.5748496465  W2        7565            0.0000000000
     22695      7565  TIP3      H2            -29.6497066405      -47.6706022861      -15.3121996465  W2        7565            0.0000000000
     22696      7566  TIP3      OH2           -19.9460366405      -35.7820122861        0.6075003535  W2        7566            0.0000000000
     22697      7566  TIP3      H1            -19.7461666405      -35.3578222861       -0.2269696465  W2        7566            0.0000000000
     22698      7566  TIP3      H2            -19.2906666405      -35.4381922861        1.2145403535  W2        7566            0.0000000000
     22699      7567  TIP3      OH2           -32.3480566405      -43.3078822861        0.2155503535  W2        7567            0.0000000000
     22700      7567  TIP3      H1            -31.6158166405      -43.0532922861        0.7770003535  W2        7567            0.0000000000
     22701      7567  TIP3      H2            -33.1281866405      -43.1033422861        0.7310903535  W2        7567            0.0000000000
     22702      7568  TIP3      OH2           -26.3187666405      -47.9008822861       -7.0464796465  W2        7568            0.0000000000
     22703      7568  TIP3      H1            -25.7544266405      -48.4472222861       -7.5935196465  W2        7568            0.0000000000
     22704      7568  TIP3      H2            -26.4664266405      -48.4226922861       -6.2577196465  W2        7568            0.0000000000
     22705      7569  TIP3      OH2           -31.3167966405      -51.7642722861      -10.6279996465  W2        7569            0.0000000000
     22706      7569  TIP3      H1            -31.6338466405      -52.6667422861      -10.6634596465  W2        7569            0.0000000000
     22707      7569  TIP3      H2            -30.5353866405      -51.7625322861      -11.1808396465  W2        7569            0.0000000000
     22708      7570  TIP3      OH2           -27.6921766405      -49.5122722861       -4.6324396465  W2        7570            0.0000000000
     22709      7570  TIP3      H1            -28.5276466405      -49.0583222861       -4.5221996465  W2        7570            0.0000000000
     22710      7570  TIP3      H2            -27.1681166405      -49.2364222861       -3.8804496465  W2        7570            0.0000000000
     22711      7571  TIP3      OH2           -27.1479166405      -43.2995022861      -12.9477996465  W2        7571            0.0000000000
     22712      7571  TIP3      H1            -27.8928166405      -43.8069722861      -13.2700096465  W2        7571            0.0000000000
     22713      7571  TIP3      H2            -27.2821966405      -43.2507022861      -12.0013196465  W2        7571            0.0000000000
     22714      7572  TIP3      OH2           -19.9980266405      -44.1666822861       -4.1610396465  W2        7572            0.0000000000
     22715      7572  TIP3      H1            -19.3561466405      -43.7100522861       -4.7048196465  W2        7572            0.0000000000
     22716      7572  TIP3      H2            -20.8283366405      -44.0534422861       -4.6236296465  W2        7572            0.0000000000
     22717      7573  TIP3      OH2           -23.2502366405      -50.4855122861      -14.7485396465  W2        7573            0.0000000000
     22718      7573  TIP3      H1            -24.1888166405      -50.3739522861      -14.8996596465  W2        7573            0.0000000000
     22719      7573  TIP3      H2            -22.9530266405      -49.6288222861      -14.4419696465  W2        7573            0.0000000000
     22720      7574  TIP3      OH2           -25.6287066405      -43.1151722861       -1.7108896465  W2        7574            0.0000000000
     22721      7574  TIP3      H1            -25.9740966405      -43.4969322861       -0.9039296465  W2        7574            0.0000000000
     22722      7574  TIP3      H2            -25.8286966405      -42.1818122861       -1.6395996465  W2        7574            0.0000000000
     22723      7575  TIP3      OH2           -22.5318866405      -48.6182422861      -13.0877996465  W2        7575            0.0000000000
     22724      7575  TIP3      H1            -21.6399866405      -48.7557422861      -12.7686796465  W2        7575            0.0000000000
     22725      7575  TIP3      H2            -22.4755266405      -47.8276322861      -13.6244496465  W2        7575            0.0000000000
     22726      7576  TIP3      OH2           -32.0230866405      -44.0045022861       -7.1780096465  W2        7576            0.0000000000
     22727      7576  TIP3      H1            -31.2783666405      -44.0069322861       -7.7793596465  W2        7576            0.0000000000
     22728      7576  TIP3      H2            -31.9454266405      -44.8281222861       -6.6964996465  W2        7576            0.0000000000
     22729      7577  TIP3      OH2           -25.0225066405      -41.8410722861      -13.9223396465  W2        7577            0.0000000000
     22730      7577  TIP3      H1            -25.3176666405      -41.0142822861      -13.5408596465  W2        7577            0.0000000000
     22731      7577  TIP3      H2            -25.7255066405      -42.4603822861      -13.7261996465  W2        7577            0.0000000000
     22732      7578  TIP3      OH2           -35.0151166405      -45.5438122861       -1.8631596465  W2        7578            0.0000000000
     22733      7578  TIP3      H1            -34.7922566405      -45.9618522861       -1.0314096465  W2        7578            0.0000000000
     22734      7578  TIP3      H2            -35.6171066405      -46.1563122861       -2.2858796465  W2        7578            0.0000000000
     22735      7579  TIP3      OH2           -27.9986266405      -46.0268222861        0.3498103535  W2        7579            0.0000000000
     22736      7579  TIP3      H1            -28.2945466405      -46.1925222861       -0.5452796465  W2        7579            0.0000000000
     22737      7579  TIP3      H2            -27.0671066405      -46.2467922861        0.3392003535  W2        7579            0.0000000000
     22738      7580  TIP3      OH2           -23.3783466405      -40.6536222861       -1.7603896465  W2        7580            0.0000000000
     22739      7580  TIP3      H1            -24.2789166405      -40.4703622861       -2.0279996465  W2        7580            0.0000000000
     22740      7580  TIP3      H2            -23.3442366405      -40.3946922861       -0.8395096465  W2        7580            0.0000000000
     22741      7581  TIP3      OH2           -17.6470166405      -48.4088322861      -13.3931296465  W2        7581            0.0000000000
     22742      7581  TIP3      H1            -18.2013866405      -48.8050322861      -14.0653796465  W2        7581            0.0000000000
     22743      7581  TIP3      H2            -17.5466566405      -47.4983122861      -13.6707996465  W2        7581            0.0000000000
     22744      7582  TIP3      OH2           -17.6838166405      -42.6086622861       -0.5559796465  W2        7582            0.0000000000
     22745      7582  TIP3      H1            -18.5349666405      -42.3702822861       -0.9233396465  W2        7582            0.0000000000
     22746      7582  TIP3      H2            -17.0934766405      -42.6253422861       -1.3092696465  W2        7582            0.0000000000
     22747      7583  TIP3      OH2           -19.3518466405      -39.6227922861      -12.9279196465  W2        7583            0.0000000000
     22748      7583  TIP3      H1            -19.7247366405      -40.4484122861      -12.6188596465  W2        7583            0.0000000000
     22749      7583  TIP3      H2            -19.0744966405      -39.8058522861      -13.8255796465  W2        7583            0.0000000000
     22750      7584  TIP3      OH2           -22.1914566405      -44.8148422861       -5.9067296465  W2        7584            0.0000000000
     22751      7584  TIP3      H1            -23.1197666405      -45.0466522861       -5.9337996465  W2        7584            0.0000000000
     22752      7584  TIP3      H2            -21.7403466405      -45.5918622861       -6.2368496465  W2        7584            0.0000000000
     22753      7585  TIP3      OH2           -29.6481466405      -40.4866822861       -9.7738596465  W2        7585            0.0000000000
     22754      7585  TIP3      H1            -29.1209266405      -39.7132422861       -9.9739796465  W2        7585            0.0000000000
     22755      7585  TIP3      H2            -30.5282966405      -40.2617622861      -10.0754596465  W2        7585            0.0000000000
     22756      7586  TIP3      OH2           -33.8933766405      -45.6242722861      -15.1866196465  W2        7586            0.0000000000
     22757      7586  TIP3      H1            -33.2773866405      -44.9975522861      -14.8071396465  W2        7586            0.0000000000
     22758      7586  TIP3      H2            -34.7551166405      -45.3082922861      -14.9149696465  W2        7586            0.0000000000
     22759      7587  TIP3      OH2           -28.2209166405      -42.8236922861      -10.1974296465  W2        7587            0.0000000000
     22760      7587  TIP3      H1            -28.4619166405      -41.8982522861      -10.1558996465  W2        7587            0.0000000000
     22761      7587  TIP3      H2            -28.9615566405      -43.2825622861       -9.8010396465  W2        7587            0.0000000000
     22762      7588  TIP3      OH2           -27.7062566405      -38.6743322861       -3.8823196465  W2        7588            0.0000000000
     22763      7588  TIP3      H1            -27.3437866405      -37.8197722861       -4.1158796465  W2        7588            0.0000000000
     22764      7588  TIP3      H2            -27.1747366405      -38.9661722861       -3.1416896465  W2        7588            0.0000000000
     22765      7589  TIP3      OH2           -29.5378366405      -37.8019322861      -10.6522096465  W2        7589            0.0000000000
     22766      7589  TIP3      H1            -30.4877866405      -37.6961922861      -10.6008796465  W2        7589            0.0000000000
     22767      7589  TIP3      H2            -29.1860266405      -36.9811922861      -10.3074596465  W2        7589            0.0000000000
     22768      7590  TIP3      OH2           -24.1621766405      -42.5752622861       -4.1817596465  W2        7590            0.0000000000
     22769      7590  TIP3      H1            -24.5880466405      -42.8030922861       -3.3553596465  W2        7590            0.0000000000
     22770      7590  TIP3      H2            -23.5815966405      -43.3140822861       -4.3642296465  W2        7590            0.0000000000
     22771      7591  TIP3      OH2           -21.9592866405      -41.6462122861      -15.1078596465  W2        7591            0.0000000000
     22772      7591  TIP3      H1            -21.6059766405      -42.0262322861      -14.3035096465  W2        7591            0.0000000000
     22773      7591  TIP3      H2            -22.9079366405      -41.7397322861      -15.0209296465  W2        7591            0.0000000000
     22774      7592  TIP3      OH2           -21.5037566405      -38.0233122861       -1.7122796465  W2        7592            0.0000000000
     22775      7592  TIP3      H1            -22.1054366405      -38.5790222861       -2.2076496465  W2        7592            0.0000000000
     22776      7592  TIP3      H2            -21.2223866405      -37.3563322861       -2.3385396465  W2        7592            0.0000000000
     22777      7593  TIP3      OH2           -17.4558466405      -37.1669622861      -14.9068396465  W2        7593            0.0000000000
     22778      7593  TIP3      H1            -16.7120566405      -36.5809122861      -15.0466796465  W2        7593            0.0000000000
     22779      7593  TIP3      H2            -18.1500366405      -36.5983822861      -14.5735996465  W2        7593            0.0000000000
     22780      7594  TIP3      OH2           -33.3811666405      -50.7905422861       -2.3050196465  W2        7594            0.0000000000
     22781      7594  TIP3      H1            -34.2739366405      -50.4520022861       -2.3726196465  W2        7594            0.0000000000
     22782      7594  TIP3      H2            -33.4798866405      -51.6459322861       -1.8869396465  W2        7594            0.0000000000
     22783      7595  TIP3      OH2           -21.0933566405      -42.9740122861      -12.8810696465  W2        7595            0.0000000000
     22784      7595  TIP3      H1            -21.3705966405      -43.7020822861      -12.3249596465  W2        7595            0.0000000000
     22785      7595  TIP3      H2            -20.1660566405      -42.8548122861      -12.6758096465  W2        7595            0.0000000000
     22786      7596  TIP3      OH2           -33.7299666405      -38.9861022861       -3.8700796465  W2        7596            0.0000000000
     22787      7596  TIP3      H1            -33.5129366405      -39.9178622861       -3.9011096465  W2        7596            0.0000000000
     22788      7596  TIP3      H2            -33.4836166405      -38.7116022861       -2.9867996465  W2        7596            0.0000000000
     22789      7597  TIP3      OH2           -27.8685066405      -40.5346022861      -16.6608596465  W2        7597            0.0000000000
     22790      7597  TIP3      H1            -27.6295266405      -41.2827922861      -17.2079696465  W2        7597            0.0000000000
     22791      7597  TIP3      H2            -28.1373766405      -40.9224322861      -15.8280796465  W2        7597            0.0000000000
     22792      7598  TIP3      OH2           -28.9314466405      -40.9642222861      -14.2045996465  W2        7598            0.0000000000
     22793      7598  TIP3      H1            -28.7846466405      -41.4842422861      -13.4145096465  W2        7598            0.0000000000
     22794      7598  TIP3      H2            -28.9342766405      -40.0574622861      -13.8980096465  W2        7598            0.0000000000
     22795      7599  TIP3      OH2           -32.4783366405      -43.7118922861      -13.6940596465  W2        7599            0.0000000000
     22796      7599  TIP3      H1            -33.1644066405      -43.3596422861      -13.1270896465  W2        7599            0.0000000000
     22797      7599  TIP3      H2            -31.9555466405      -42.9489322861      -13.9406296465  W2        7599            0.0000000000
     22798      7600  TIP3      OH2           -24.6468266405      -51.0495122861       -3.4151596465  W2        7600            0.0000000000
     22799      7600  TIP3      H1            -23.9480366405      -50.9756422861       -2.7651896465  W2        7600            0.0000000000
     22800      7600  TIP3      H2            -25.0276866405      -51.9140122861       -3.2608696465  W2        7600            0.0000000000
     22801      7601  TIP3      OH2           -23.8623366405      -51.3973422861      -12.3179296465  W2        7601            0.0000000000
     22802      7601  TIP3      H1            -23.6425066405      -50.9258022861      -13.1213896465  W2        7601            0.0000000000
     22803      7601  TIP3      H2            -23.3039366405      -51.0030822861      -11.6478696465  W2        7601            0.0000000000
     22804      7602  TIP3      OH2           -26.1937266405      -39.2668622861      -13.4551796465  W2        7602            0.0000000000
     22805      7602  TIP3      H1            -27.0101166405      -38.7698922861      -13.4027496465  W2        7602            0.0000000000
     22806      7602  TIP3      H2            -25.6640966405      -38.7915122861      -14.0952996465  W2        7602            0.0000000000
     22807      7603  TIP3      OH2           -26.6623466405      -49.6694622861      -11.4830896465  W2        7603            0.0000000000
     22808      7603  TIP3      H1            -25.8500866405      -49.1651422861      -11.4369196465  W2        7603            0.0000000000
     22809      7603  TIP3      H2            -26.9070466405      -49.8144922861      -10.5691296465  W2        7603            0.0000000000
     22810      7604  TIP3      OH2           -26.1267066405      -48.6831922861       -2.2984296465  W2        7604            0.0000000000
     22811      7604  TIP3      H1            -26.0076766405      -48.1096522861       -1.5413896465  W2        7604            0.0000000000
     22812      7604  TIP3      H2            -25.4712466405      -49.3712522861       -2.1836496465  W2        7604            0.0000000000
     22813      7605  TIP3      OH2           -25.7786766405      -52.5881622861      -10.5449796465  W2        7605            0.0000000000
     22814      7605  TIP3      H1            -26.1253266405      -51.9711022861       -9.9005496465  W2        7605            0.0000000000
     22815      7605  TIP3      H2            -25.1199866405      -52.0875922861      -11.0264296465  W2        7605            0.0000000000
     22816      7606  TIP3      OH2           -28.8554166405      -38.2231422861      -13.4734896465  W2        7606            0.0000000000
     22817      7606  TIP3      H1            -28.6945466405      -37.4233922861      -13.9742296465  W2        7606            0.0000000000
     22818      7606  TIP3      H2            -29.0526366405      -37.9165422861      -12.5884296465  W2        7606            0.0000000000
     22819      7607  TIP3      OH2           -30.1209766405      -51.5252222861      -13.8577296465  W2        7607            0.0000000000
     22820      7607  TIP3      H1            -30.2044966405      -50.6369122861      -13.5110896465  W2        7607            0.0000000000
     22821      7607  TIP3      H2            -29.2309466405      -51.7905522861      -13.6260496465  W2        7607            0.0000000000
     22822      7608  TIP3      OH2           -19.9221266405      -50.7761622861       -1.4634596465  W2        7608            0.0000000000
     22823      7608  TIP3      H1            -20.8385466405      -50.5139922861       -1.5510896465  W2        7608            0.0000000000
     22824      7608  TIP3      H2            -19.5866266405      -50.7792622861       -2.3599296465  W2        7608            0.0000000000
     22825      7609  TIP3      OH2           -21.3200266405      -47.0260622861       -7.3677296465  W2        7609            0.0000000000
     22826      7609  TIP3      H1            -22.1175866405      -47.4410422861       -7.6962296465  W2        7609            0.0000000000
     22827      7609  TIP3      H2            -20.8749166405      -47.7166922861       -6.8766796465  W2        7609            0.0000000000
     22828      7610  TIP3      OH2           -31.8624466405      -41.0980022861      -14.7972796465  W2        7610            0.0000000000
     22829      7610  TIP3      H1            -31.2702966405      -40.3985222861      -14.5210396465  W2        7610            0.0000000000
     22830      7610  TIP3      H2            -31.4031466405      -41.5310522861      -15.5168196465  W2        7610            0.0000000000
     22831      7611  TIP3      OH2           -33.5465266405      -48.4337022861      -15.6813396465  W2        7611            0.0000000000
     22832      7611  TIP3      H1            -33.5912666405      -47.4943922861      -15.5026396465  W2        7611            0.0000000000
     22833      7611  TIP3      H2            -34.4342066405      -48.6692122861      -15.9511296465  W2        7611            0.0000000000
     22834      7612  TIP3      OH2           -20.2335666405      -37.7698122861       -5.7453796465  W2        7612            0.0000000000
     22835      7612  TIP3      H1            -20.3891366405      -37.0913722861       -6.4024496465  W2        7612            0.0000000000
     22836      7612  TIP3      H2            -19.3009266405      -37.6978822861       -5.5423196465  W2        7612            0.0000000000
     22837      7613  TIP3      OH2           -32.7383266405      -53.6520422861       -7.0082396465  W2        7613            0.0000000000
     22838      7613  TIP3      H1            -32.9673466405      -53.5927922861       -7.9357396465  W2        7613            0.0000000000
     22839      7613  TIP3      H2            -33.1809866405      -54.4434922861       -6.7018296465  W2        7613            0.0000000000
     22840      7614  TIP3      OH2           -33.8079966405      -39.7113322861      -10.8476596465  W2        7614            0.0000000000
     22841      7614  TIP3      H1            -34.6401366405      -39.2390622861      -10.8205196465  W2        7614            0.0000000000
     22842      7614  TIP3      H2            -33.2621666405      -39.2015722861      -11.4463496465  W2        7614            0.0000000000
     22843      7615  TIP3      OH2           -34.5196266405      -37.0989622861        0.4821403535  W2        7615            0.0000000000
     22844      7615  TIP3      H1            -33.9794066405      -37.3155622861        1.2420603535  W2        7615            0.0000000000
     22845      7615  TIP3      H2            -35.0008266405      -37.9043622861        0.2923903535  W2        7615            0.0000000000
     22846      7616  TIP3      OH2           -29.9222866405      -38.1795222861        2.1025603535  W2        7616            0.0000000000
     22847      7616  TIP3      H1            -29.1545666405      -38.6384422861        2.4434803535  W2        7616            0.0000000000
     22848      7616  TIP3      H2            -29.9436666405      -38.4055422861        1.1726803535  W2        7616            0.0000000000
     22849      7617  TIP3      OH2           -25.8303266405      -38.6714622861      -16.5222596465  W2        7617            0.0000000000
     22850      7617  TIP3      H1            -26.4742266405      -39.3026022861      -16.2008896465  W2        7617            0.0000000000
     22851      7617  TIP3      H2            -25.0684966405      -39.2026622861      -16.7539096465  W2        7617            0.0000000000
     22852      7618  TIP3      OH2           -23.3454166405      -39.7994122861        0.8317103535  W2        7618            0.0000000000
     22853      7618  TIP3      H1            -23.6964666405      -40.6561122861        1.0747503535  W2        7618            0.0000000000
     22854      7618  TIP3      H2            -22.6190966405      -39.6567422861        1.4386103535  W2        7618            0.0000000000
     22855      7619  TIP3      OH2           -21.2260366405      -38.8544722861      -16.2884596465  W2        7619            0.0000000000
     22856      7619  TIP3      H1            -20.9429966405      -39.6489522861      -15.8357696465  W2        7619            0.0000000000
     22857      7619  TIP3      H2            -20.4862466405      -38.6213722861      -16.8493496465  W2        7619            0.0000000000
     22858      7620  TIP3      OH2           -34.6126766405      -43.2885522861        1.4365703535  W2        7620            0.0000000000
     22859      7620  TIP3      H1            -34.4686266405      -44.1904822861        1.1502403535  W2        7620            0.0000000000
     22860      7620  TIP3      H2            -35.3849366405      -43.0023422861        0.9488003535  W2        7620            0.0000000000
     22861      7621  TIP3      OH2           -30.2713066405      -42.9449822861      -16.4309696465  W2        7621            0.0000000000
     22862      7621  TIP3      H1            -30.2068966405      -43.7390222861      -15.9003296465  W2        7621            0.0000000000
     22863      7621  TIP3      H2            -29.6183866405      -43.0637022861      -17.1207696465  W2        7621            0.0000000000
     22864      7622  TIP3      OH2           -27.9570666405      -43.3187422861        0.8692103535  W2        7622            0.0000000000
     22865      7622  TIP3      H1            -28.2856866405      -43.0479322861        0.0119503535  W2        7622            0.0000000000
     22866      7622  TIP3      H2            -27.8052466405      -44.2597622861        0.7817103535  W2        7622            0.0000000000
     22867      7623  TIP3      OH2           -24.9189666405      -41.8978122861      -16.6951696465  W2        7623            0.0000000000
     22868      7623  TIP3      H1            -25.1875566405      -41.7176022861      -15.7942796465  W2        7623            0.0000000000
     22869      7623  TIP3      H2            -25.1254066405      -42.8231922861      -16.8265896465  W2        7623            0.0000000000
     22870      7624  TIP3      OH2           -22.2225466405      -43.4030122861       -1.7475596465  W2        7624            0.0000000000
     22871      7624  TIP3      H1            -21.4770666405      -42.8146422861       -1.8671596465  W2        7624            0.0000000000
     22872      7624  TIP3      H2            -22.9798666405      -42.8210422861       -1.6842496465  W2        7624            0.0000000000
     22873      7625  TIP3      OH2           -33.7800266405      -46.0882222861        0.8565003535  W2        7625            0.0000000000
     22874      7625  TIP3      H1            -33.3719066405      -46.9455622861        0.7355603535  W2        7625            0.0000000000
     22875      7625  TIP3      H2            -34.0402666405      -46.0740922861        1.7775303535  W2        7625            0.0000000000
     22876      7626  TIP3      OH2           -29.1219266405      -44.9723622861      -14.1251696465  W2        7626            0.0000000000
     22877      7626  TIP3      H1            -29.5817266405      -45.4565322861      -13.4393196465  W2        7626            0.0000000000
     22878      7626  TIP3      H2            -28.8670566405      -45.6408222861      -14.7611196465  W2        7626            0.0000000000
     22879      7627  TIP3      OH2           -29.8329966405      -47.0796522861       -1.7692096465  W2        7627            0.0000000000
     22880      7627  TIP3      H1            -30.4513866405      -46.4049922861       -1.4887396465  W2        7627            0.0000000000
     22881      7627  TIP3      H2            -29.4888766405      -46.7582622861       -2.6025896465  W2        7627            0.0000000000
     22882      7628  TIP3      OH2           -28.0508866405      -46.7291822861      -15.8628496465  W2        7628            0.0000000000
     22883      7628  TIP3      H1            -28.2313866405      -46.8840622861      -16.7900196465  W2        7628            0.0000000000
     22884      7628  TIP3      H2            -27.1008366405      -46.6213122861      -15.8180596465  W2        7628            0.0000000000
     22885      7629  TIP3      OH2           -24.8131766405      -44.6081222861        1.5082703535  W2        7629            0.0000000000
     22886      7629  TIP3      H1            -23.8600566405      -44.5242122861        1.4808703535  W2        7629            0.0000000000
     22887      7629  TIP3      H2            -24.9737166405      -45.3199422861        2.1277603535  W2        7629            0.0000000000
     22888      7630  TIP3      OH2           -18.6610566405      -44.3747622861      -16.4170396465  W2        7630            0.0000000000
     22889      7630  TIP3      H1            -18.9345766405      -44.7992122861      -17.2302096465  W2        7630            0.0000000000
     22890      7630  TIP3      H2            -18.6216466405      -43.4433122861      -16.6339996465  W2        7630            0.0000000000
     22891      7631  TIP3      OH2           -29.4936266405      -49.7245722861       -0.6868996465  W2        7631            0.0000000000
     22892      7631  TIP3      H1            -29.3435366405      -50.4534422861       -1.2889296465  W2        7631            0.0000000000
     22893      7631  TIP3      H2            -29.4913866405      -48.9474022861       -1.2456796465  W2        7631            0.0000000000
     22894      7632  TIP3      OH2           -29.0810566405      -51.3549922861       -3.1941596465  W2        7632            0.0000000000
     22895      7632  TIP3      H1            -28.5453066405      -50.9033222861       -3.8462296465  W2        7632            0.0000000000
     22896      7632  TIP3      H2            -29.9330966405      -51.4630122861       -3.6167496465  W2        7632            0.0000000000
     22897      7633  TIP3      OH2           -27.4992166405      -45.9153722861       -2.9546396465  W2        7633            0.0000000000
     22898      7633  TIP3      H1            -26.7487366405      -46.0716222861       -3.5278596465  W2        7633            0.0000000000
     22899      7633  TIP3      H2            -27.8383866405      -45.0637122861       -3.2300896465  W2        7633            0.0000000000
     22900      7634  TIP3      OH2           -23.0835966405      -48.1001922861        2.0738903535  W2        7634            0.0000000000
     22901      7634  TIP3      H1            -22.8914666405      -49.0312522861        1.9623403535  W2        7634            0.0000000000
     22902      7634  TIP3      H2            -22.2259666405      -47.6752422861        2.0634303535  W2        7634            0.0000000000
     22903      7635  TIP3      OH2           -21.7668766405      -45.3116722861        0.1511603535  W2        7635            0.0000000000
     22904      7635  TIP3      H1            -22.0483766405      -44.6022122861       -0.4264596465  W2        7635            0.0000000000
     22905      7635  TIP3      H2            -20.8244466405      -45.3843722861        0.0002803535  W2        7635            0.0000000000
     22906      7636  TIP3      OH2           -31.0149966405      -48.5262222861        1.2246603535  W2        7636            0.0000000000
     22907      7636  TIP3      H1            -31.7820966405      -49.0587422861        1.0144203535  W2        7636            0.0000000000
     22908      7636  TIP3      H2            -30.3360966405      -48.8361822861        0.6252903535  W2        7636            0.0000000000
     22909      7637  TIP3      OH2           -28.2755066405      -53.8984222861       -2.7627996465  W2        7637            0.0000000000
     22910      7637  TIP3      H1            -28.3735466405      -52.9521022861       -2.8681796465  W2        7637            0.0000000000
     22911      7637  TIP3      H2            -29.0178866405      -54.2710422861       -3.2384496465  W2        7637            0.0000000000
     22912      7638  TIP3      OH2           -27.0114566405      -49.5768822861        0.8010403535  W2        7638            0.0000000000
     22913      7638  TIP3      H1            -27.2469166405      -49.7962122861        1.7025303535  W2        7638            0.0000000000
     22914      7638  TIP3      H2            -27.7947666405      -49.7837622861        0.2912903535  W2        7638            0.0000000000
     22915      7639  TIP3      OH2           -24.2957966405      -50.4495322861       -0.1236096465  W2        7639            0.0000000000
     22916      7639  TIP3      H1            -25.2432566405      -50.4175622861        0.0087203535  W2        7639            0.0000000000
     22917      7639  TIP3      H2            -23.9831266405      -51.0748222861        0.5302103535  W2        7639            0.0000000000
     22918      7640  TIP3      OH2           -22.6616466405      -51.8154222861        1.8815803535  W2        7640            0.0000000000
     22919      7640  TIP3      H1            -22.7584666405      -52.7676922861        1.8757703535  W2        7640            0.0000000000
     22920      7640  TIP3      H2            -22.9833366405      -51.5467422861        2.7421303535  W2        7640            0.0000000000
     22921      7641  TIP3      OH2           -32.8347166405      -50.6058422861        0.9291303535  W2        7641            0.0000000000
     22922      7641  TIP3      H1            -32.6229766405      -51.3122322861        0.3188803535  W2        7641            0.0000000000
     22923      7641  TIP3      H2            -32.9459666405      -51.0432422861        1.7732503535  W2        7641            0.0000000000
     22924      7642  TIP3      OH2           -28.0536966405      -54.6046822861       -0.0915196465  W2        7642            0.0000000000
     22925      7642  TIP3      H1            -27.3418566405      -55.2444622861       -0.1056096465  W2        7642            0.0000000000
     22926      7642  TIP3      H2            -28.1546566405      -54.3378522861       -1.0052096465  W2        7642            0.0000000000
     22927      7643  TIP3      OH2           -27.6999466405      -52.9218422861        1.9621103535  W2        7643            0.0000000000
     22928      7643  TIP3      H1            -27.8317266405      -53.3974622861        1.1419603535  W2        7643            0.0000000000
     22929      7643  TIP3      H2            -28.2992066405      -52.1774822861        1.9068203535  W2        7643            0.0000000000
     22930      7644  TIP3      OH2           -28.1537166405      -36.0388122861      -14.8614896465  W2        7644            0.0000000000
     22931      7644  TIP3      H1            -27.2206466405      -35.8809422861      -14.7176496465  W2        7644            0.0000000000
     22932      7644  TIP3      H2            -28.4178366405      -35.3635122861      -15.4863396465  W2        7644            0.0000000000
     22933      7645  TIP3      OH2           -34.5852266405      -41.4024322861      -15.3786796465  W2        7645            0.0000000000
     22934      7645  TIP3      H1            -33.6713066405      -41.3235422861      -15.1052896465  W2        7645            0.0000000000
     22935      7645  TIP3      H2            -34.5779166405      -42.0894722861      -16.0451196465  W2        7645            0.0000000000
     22936      7646  TIP3      OH2           -35.9361666405      -36.0095822861      -10.3012896465  W2        7646            0.0000000000
     22937      7646  TIP3      H1            -36.5834566405      -36.4714122861      -10.8341696465  W2        7646            0.0000000000
     22938      7646  TIP3      H2            -35.5817066405      -36.6812522861       -9.7186696465  W2        7646            0.0000000000
     22939      7647  TIP3      OH2           -35.0662466405      -37.9288822861       -8.4966696465  W2        7647            0.0000000000
     22940      7647  TIP3      H1            -35.4005666405      -38.8091522861       -8.3246496465  W2        7647            0.0000000000
     22941      7647  TIP3      H2            -34.8440066405      -37.5833822861       -7.6321096465  W2        7647            0.0000000000
     22942      7648  TIP3      OH2           -17.5177666405      -37.1192422861       -5.5161896465  W2        7648            0.0000000000
     22943      7648  TIP3      H1            -17.5390966405      -36.9344022861       -4.5772496465  W2        7648            0.0000000000
     22944      7648  TIP3      H2            -16.8271466405      -36.5508422861       -5.8570496465  W2        7648            0.0000000000
     22945      7649  TIP3      OH2           -17.9544766405      -37.5521322861       -2.5942796465  W2        7649            0.0000000000
     22946      7649  TIP3      H1            -18.4416066405      -38.2877222861       -2.9655396465  W2        7649            0.0000000000
     22947      7649  TIP3      H2            -17.4052066405      -37.9457422861       -1.9163396465  W2        7649            0.0000000000
     22948      7650  TIP3      OH2           -19.5037466405      -41.7623222861        2.0437503535  W2        7650            0.0000000000
     22949      7650  TIP3      H1            -20.3696366405      -41.8673522861        2.4379803535  W2        7650            0.0000000000
     22950      7650  TIP3      H2            -19.1271566405      -41.0039922861        2.4902203535  W2        7650            0.0000000000
     22951      7651  TIP3      OH2           -18.2027766405      -43.5059522861      -12.4419996465  W2        7651            0.0000000000
     22952      7651  TIP3      H1            -17.3526366405      -43.0848622861      -12.3148396465  W2        7651            0.0000000000
     22953      7651  TIP3      H2            -18.1972666405      -44.2459422861      -11.8348596465  W2        7651            0.0000000000
     22954      7652  TIP3      OH2           -17.8082166405      -45.4522122861      -10.6184296465  W2        7652            0.0000000000
     22955      7652  TIP3      H1            -18.5347566405      -45.9319522861      -10.2206696465  W2        7652            0.0000000000
     22956      7652  TIP3      H2            -17.2268866405      -45.2467422861       -9.8862696465  W2        7652            0.0000000000
     22957      7653  TIP3      OH2           -18.0490966405      -42.6674622861       -5.6706696465  W2        7653            0.0000000000
     22958      7653  TIP3      H1            -17.2156766405      -43.0454622861       -5.9513096465  W2        7653            0.0000000000
     22959      7653  TIP3      H2            -17.9370666405      -41.7243422861       -5.7897596465  W2        7653            0.0000000000
     22960      7654  TIP3      OH2           -19.5628666405      -39.7897122861       -3.3638296465  W2        7654            0.0000000000
     22961      7654  TIP3      H1            -20.2103366405      -39.4645622861       -2.7383096465  W2        7654            0.0000000000
     22962      7654  TIP3      H2            -20.0804666405      -40.2299422861       -4.0379996465  W2        7654            0.0000000000
     22963      7655  TIP3      OH2           -17.5399066405      -45.5513622861      -14.2272996465  W2        7655            0.0000000000
     22964      7655  TIP3      H1            -18.0617966405      -45.1949522861      -14.9462096465  W2        7655            0.0000000000
     22965      7655  TIP3      H2            -17.5729866405      -44.8765822861      -13.5492096465  W2        7655            0.0000000000
     22966      7656  TIP3      OH2           -19.1910066405      -48.3118022861      -15.6765896465  W2        7656            0.0000000000
     22967      7656  TIP3      H1            -19.0945666405      -47.6451022861      -16.3566196465  W2        7656            0.0000000000
     22968      7656  TIP3      H2            -19.3310466405      -49.1271722861      -16.1580396465  W2        7656            0.0000000000
     22969      7657  TIP3      OH2           -20.0215366405      -46.9315622861      -10.0555596465  W2        7657            0.0000000000
     22970      7657  TIP3      H1            -20.1716566405      -47.8767022861      -10.0757796465  W2        7657            0.0000000000
     22971      7657  TIP3      H2            -20.3750866405      -46.6504222861       -9.2116496465  W2        7657            0.0000000000
     22972      7658  TIP3      OH2           -34.9862966405      -44.8533422861       -6.0451796465  W2        7658            0.0000000000
     22973      7658  TIP3      H1            -34.8020066405      -44.9351722861       -6.9808896465  W2        7658            0.0000000000
     22974      7658  TIP3      H2            -34.1370066405      -44.9776422861       -5.6215396465  W2        7658            0.0000000000
     22975      7659  TIP3      OH2           -19.1652466405      -44.9612322861       -0.4167296465  W2        7659            0.0000000000
     22976      7659  TIP3      H1            -18.5825166405      -45.6960022861       -0.2250096465  W2        7659            0.0000000000
     22977      7659  TIP3      H2            -18.6013166405      -44.1892022861       -0.3701496465  W2        7659            0.0000000000
     22978      7660  TIP3      OH2           -17.6685366405      -47.0586522861        0.2678103535  W2        7660            0.0000000000
     22979      7660  TIP3      H1            -18.5318666405      -47.4374422861        0.1022803535  W2        7660            0.0000000000
     22980      7660  TIP3      H2            -17.0641666405      -47.7971722861        0.1933903535  W2        7660            0.0000000000
     22981      7661  TIP3      OH2           -19.9436266405      -50.9038222861      -16.5590396465  W2        7661            0.0000000000
     22982      7661  TIP3      H1            -19.3330466405      -51.2751422861      -15.9222196465  W2        7661            0.0000000000
     22983      7661  TIP3      H2            -20.7804766405      -51.3251322861      -16.3630396465  W2        7661            0.0000000000
     22984      7662  TIP3      OH2           -20.3110566405      -49.3489822861      -11.5930496465  W2        7662            0.0000000000
     22985      7662  TIP3      H1            -20.0313466405      -50.2559422861      -11.4688796465  W2        7662            0.0000000000
     22986      7662  TIP3      H2            -19.5518866405      -48.9148322861      -11.9821296465  W2        7662            0.0000000000
     22987      7663  TIP3      OH2           -19.6992266405      -48.7672422861       -6.1571596465  W2        7663            0.0000000000
     22988      7663  TIP3      H1            -18.7664266405      -48.5552522861       -6.1915596465  W2        7663            0.0000000000
     22989      7663  TIP3      H2            -19.9344766405      -48.6660322861       -5.2348596465  W2        7663            0.0000000000
     22990      7664  TIP3      OH2           -19.6700366405      -48.0307122861       -3.3812196465  W2        7664            0.0000000000
     22991      7664  TIP3      H1            -20.5129066405      -47.7626722861       -3.0152396465  W2        7664            0.0000000000
     22992      7664  TIP3      H2            -19.2276066405      -47.2085222861       -3.5921096465  W2        7664            0.0000000000
     22993      7665  TIP3      OH2           -35.3888166405      -49.5828422861        0.0957003535  W2        7665            0.0000000000
     22994      7665  TIP3      H1            -34.4693266405      -49.7050122861        0.3320103535  W2        7665            0.0000000000
     22995      7665  TIP3      H2            -35.8383666405      -50.3328722861        0.4850503535  W2        7665            0.0000000000
     22996      7666  TIP3      OH2           -17.3868766405      -54.0506922861        1.9722803535  W2        7666            0.0000000000
     22997      7666  TIP3      H1            -17.0371766405      -54.7043422861        1.3667503535  W2        7666            0.0000000000
     22998      7666  TIP3      H2            -17.2399266405      -53.2132822861        1.5325403535  W2        7666            0.0000000000
     22999      7667  TIP3      OH2           -19.6975766405      -52.0860522861      -11.5448496465  W2        7667            0.0000000000
     23000      7667  TIP3      H1            -19.5150766405      -52.5349022861      -10.7193496465  W2        7667            0.0000000000
     23001      7667  TIP3      H2            -20.2972866405      -52.6706122861      -12.0083896465  W2        7667            0.0000000000
     23002      7668  TIP3      OH2           -34.1675666405      -51.2706822861       -7.0130096465  W2        7668            0.0000000000
     23003      7668  TIP3      H1            -33.7224066405      -52.0624322861       -6.7110396465  W2        7668            0.0000000000
     23004      7668  TIP3      H2            -33.7012666405      -50.5541622861       -6.5824496465  W2        7668            0.0000000000
     23005      7669  TIP3      OH2           -35.8635366405      -48.2713822861       -5.9439896465  W2        7669            0.0000000000
     23006      7669  TIP3      H1            -35.3715566405      -48.4923322861       -6.7347896465  W2        7669            0.0000000000
     23007      7669  TIP3      H2            -35.5014466405      -47.4310422861       -5.6630396465  W2        7669            0.0000000000
     23008      7670  TIP3      OH2           -17.8671566405      -51.9412322861        0.3214103535  W2        7670            0.0000000000
     23009      7670  TIP3      H1            -18.7845866405      -51.6705222861        0.2857603535  W2        7670            0.0000000000
     23010      7670  TIP3      H2            -17.7442166405      -52.4763922861       -0.4626196465  W2        7670            0.0000000000
     23011      7671  TIP3      OH2           -17.8309566405      -52.0182422861      -15.0168196465  W2        7671            0.0000000000
     23012      7671  TIP3      H1            -17.4186966405      -52.7396722861      -15.4920196465  W2        7671            0.0000000000
     23013      7671  TIP3      H2            -17.1493066405      -51.3487822861      -14.9583896465  W2        7671            0.0000000000
     23014      7672  TIP3      OH2           -35.5498866405      -52.0134722861      -11.8897496465  W2        7672            0.0000000000
     23015      7672  TIP3      H1            -36.4750466405      -51.8048122861      -12.0191996465  W2        7672            0.0000000000
     23016      7672  TIP3      H2            -35.0958966405      -51.5293922861      -12.5795196465  W2        7672            0.0000000000
     23017      7673  TIP3      OH2           -20.7791666405      -37.0293022861       -9.9440096465  W2        7673            0.0000000000
     23018      7673  TIP3      H1            -20.1268766405      -37.3770922861      -10.5520996465  W2        7673            0.0000000000
     23019      7673  TIP3      H2            -20.2687866405      -36.5409822861       -9.2980396465  W2        7673            0.0000000000
     23020      7674  TIP3      OH2           -35.5863466405      -53.2755722861       -3.5454996465  W2        7674            0.0000000000
     23021      7674  TIP3      H1            -36.2512966405      -53.5215422861       -2.9024096465  W2        7674            0.0000000000
     23022      7674  TIP3      H2            -36.0292166405      -52.6535322861       -4.1226996465  W2        7674            0.0000000000
     23023      7675  TIP3      OH2           -33.3944166405      -40.1001622861        0.5990803535  W2        7675            0.0000000000
     23024      7675  TIP3      H1            -34.2151666405      -39.9255122861        0.1385503535  W2        7675            0.0000000000
     23025      7675  TIP3      H2            -33.6466366405      -40.1736922861        1.5195203535  W2        7675            0.0000000000
     23026      7676  TIP3      OH2           -30.4401266405      -39.1260422861       -3.1425196465  W2        7676            0.0000000000
     23027      7676  TIP3      H1            -30.8650166405      -38.3161922861       -3.4250596465  W2        7676            0.0000000000
     23028      7676  TIP3      H2            -29.5358466405      -39.0406322861       -3.4445396465  W2        7676            0.0000000000
     23029      7677  TIP3      OH2           -26.1289866405      -37.7270422861       -0.1831496465  W2        7677            0.0000000000
     23030      7677  TIP3      H1            -25.9442366405      -38.0604322861        0.6948803535  W2        7677            0.0000000000
     23031      7677  TIP3      H2            -25.2825366405      -37.4171822861       -0.5052296465  W2        7677            0.0000000000
     23032      7678  TIP3      OH2           -23.7839466405      -36.4411522861       -0.9390096465  W2        7678            0.0000000000
     23033      7678  TIP3      H1            -23.1070566405      -37.0739222861       -1.1790896465  W2        7678            0.0000000000
     23034      7678  TIP3      H2            -23.4620666405      -36.0401022861       -0.1316796465  W2        7678            0.0000000000
     23035      7679  TIP3      OH2           -18.8665666405      -53.8516022861       -1.8595096465  W2        7679            0.0000000000
     23036      7679  TIP3      H1            -19.6792166405      -53.5265722861       -2.2470396465  W2        7679            0.0000000000
     23037      7679  TIP3      H2            -18.6337166405      -54.6117522861       -2.3925996465  W2        7679            0.0000000000
     23038      7680  TIP3      OH2           -33.0384566405      -35.8696522861       -3.0949896465  W2        7680            0.0000000000
     23039      7680  TIP3      H1            -33.7588166405      -35.4295522861       -3.5462196465  W2        7680            0.0000000000
     23040      7680  TIP3      H2            -33.4040566405      -36.1201822861       -2.2465896465  W2        7680            0.0000000000
     23041      7681  TIP3      OH2           -30.5711966405      -36.2692622861       -4.0652696465  W2        7681            0.0000000000
     23042      7681  TIP3      H1            -31.4359766405      -36.1974122861       -3.6612596465  W2        7681            0.0000000000
     23043      7681  TIP3      H2            -30.6262966405      -35.7225322861       -4.8490196465  W2        7681            0.0000000000
     23044      7682  TIP3      OH2           -25.8606366405      -36.3813722861       -4.8896696465  W2        7682            0.0000000000
     23045      7682  TIP3      H1            -26.3172366405      -35.8524022861       -5.5438296465  W2        7682            0.0000000000
     23046      7682  TIP3      H2            -25.6978366405      -35.7782322861       -4.1644396465  W2        7682            0.0000000000
     23047      7683  TIP3      OH2           -23.5330066405      -37.5034122861       -3.9446396465  W2        7683            0.0000000000
     23048      7683  TIP3      H1            -24.4376366405      -37.3383922861       -4.2104296465  W2        7683            0.0000000000
     23049      7683  TIP3      H2            -23.1041466405      -36.6501922861       -4.0102996465  W2        7683            0.0000000000
     23050      7684  TIP3      OH2           -20.9288166405      -35.9335022861       -3.6498596465  W2        7684            0.0000000000
     23051      7684  TIP3      H1            -21.1106166405      -35.0176122861       -3.8603696465  W2        7684            0.0000000000
     23052      7684  TIP3      H2            -20.7520366405      -36.3437922861       -4.4963996465  W2        7684            0.0000000000
     23053      7685  TIP3      OH2           -33.6236466405      -37.2464022861       -6.1848096465  W2        7685            0.0000000000
     23054      7685  TIP3      H1            -33.6420466405      -37.6718922861       -5.3275796465  W2        7685            0.0000000000
     23055      7685  TIP3      H2            -32.8188566405      -37.5649022861       -6.5935896465  W2        7685            0.0000000000
     23056      7686  TIP3      OH2           -31.4823366405      -38.5365322861       -7.5298196465  W2        7686            0.0000000000
     23057      7686  TIP3      H1            -31.7012666405      -39.4527922861       -7.3602196465  W2        7686            0.0000000000
     23058      7686  TIP3      H2            -30.6581166405      -38.3964922861       -7.0636796465  W2        7686            0.0000000000
     23059      7687  TIP3      OH2           -28.9450866405      -38.0666022861       -6.6810196465  W2        7687            0.0000000000
     23060      7687  TIP3      H1            -28.7325166405      -38.9547022861       -6.9679296465  W2        7687            0.0000000000
     23061      7687  TIP3      H2            -28.8805766405      -38.1008322861       -5.7266196465  W2        7687            0.0000000000
     23062      7688  TIP3      OH2           -25.4367166405      -52.4025422861       -7.5366896465  W2        7688            0.0000000000
     23063      7688  TIP3      H1            -26.1110366405      -53.0319822861       -7.2811096465  W2        7688            0.0000000000
     23064      7688  TIP3      H2            -24.8727966405      -52.8866522861       -8.1398996465  W2        7688            0.0000000000
     23065      7689  TIP3      OH2           -20.2939966405      -54.2951422861       -7.4239796465  W2        7689            0.0000000000
     23066      7689  TIP3      H1            -19.6902366405      -53.7476022861       -7.9258796465  W2        7689            0.0000000000
     23067      7689  TIP3      H2            -21.1637966405      -53.9761022861       -7.6645696465  W2        7689            0.0000000000
     23068      7690  TIP3      OH2           -18.5669566405      -53.1562722861       -9.0908896465  W2        7690            0.0000000000
     23069      7690  TIP3      H1            -17.9552066405      -53.6707022861       -9.6175296465  W2        7690            0.0000000000
     23070      7690  TIP3      H2            -18.1846166405      -52.2790622861       -9.0674496465  W2        7690            0.0000000000
     23071      7691  TIP3      OH2           -33.1099666405      -53.7685122861       -9.7146996465  W2        7691            0.0000000000
     23072      7691  TIP3      H1            -33.8869866405      -54.0030222861      -10.2221096465  W2        7691            0.0000000000
     23073      7691  TIP3      H2            -32.5796066405      -54.5653022861       -9.7058996465  W2        7691            0.0000000000
     23074      7692  TIP3      OH2           -34.2736266405      -53.9707022861      -13.9110896465  W2        7692            0.0000000000
     23075      7692  TIP3      H1            -33.8345566405      -53.3596522861      -14.5027396465  W2        7692            0.0000000000
     23076      7692  TIP3      H2            -34.9073866405      -53.4322922861      -13.4370896465  W2        7692            0.0000000000
     23077      7693  TIP3      OH2           -28.5307066405      -53.8418022861       -9.9013896465  W2        7693            0.0000000000
     23078      7693  TIP3      H1            -27.6563666405      -53.4533722861       -9.9309596465  W2        7693            0.0000000000
     23079      7693  TIP3      H2            -28.6666266405      -54.0570222861       -8.9786696465  W2        7693            0.0000000000
     23080      7694  TIP3      OH2           -22.9738666405      -53.8118222861       -8.2522196465  W2        7694            0.0000000000
     23081      7694  TIP3      H1            -22.8977066405      -53.7166622861       -9.2016196465  W2        7694            0.0000000000
     23082      7694  TIP3      H2            -23.2489466405      -54.7195322861       -8.1233096465  W2        7694            0.0000000000
     23083      7695  TIP3      OH2           -21.6206066405      -53.7860422861      -12.5597196465  W2        7695            0.0000000000
     23084      7695  TIP3      H1            -22.3234966405      -53.1711222861      -12.7695796465  W2        7695            0.0000000000
     23085      7695  TIP3      H2            -22.0654666405      -54.6233722861      -12.4286296465  W2        7695            0.0000000000
     23086      7696  TIP3      OH2           -34.3726766405      -38.0224822861      -13.0135796465  W2        7696            0.0000000000
     23087      7696  TIP3      H1            -35.0576866405      -38.0605922861      -13.6810696465  W2        7696            0.0000000000
     23088      7696  TIP3      H2            -34.3689566405      -37.1097222861      -12.7253696465  W2        7696            0.0000000000
     23089      7697  TIP3      OH2           -32.4127166405      -52.0545522861      -15.4686796465  W2        7697            0.0000000000
     23090      7697  TIP3      H1            -31.9213766405      -52.6843122861      -15.9961296465  W2        7697            0.0000000000
     23091      7697  TIP3      H2            -31.7890866405      -51.7586122861      -14.8055596465  W2        7697            0.0000000000
     23092      7698  TIP3      OH2           -27.3867066405      -51.7614022861      -13.0116296465  W2        7698            0.0000000000
     23093      7698  TIP3      H1            -27.2085766405      -52.4080822861      -12.3287696465  W2        7698            0.0000000000
     23094      7698  TIP3      H2            -27.4400866405      -50.9276322861      -12.5445196465  W2        7698            0.0000000000
     23095      7699  TIP3      OH2           -25.5083266405      -36.8129922861      -14.6159596465  W2        7699            0.0000000000
     23096      7699  TIP3      H1            -24.6423066405      -36.4462522861      -14.7941396465  W2        7699            0.0000000000
     23097      7699  TIP3      H2            -25.7550466405      -37.2521922861      -15.4298796465  W2        7699            0.0000000000
     23098      7700  TIP3      OH2           -18.7993666405      -37.2499622861      -11.9368496465  W2        7700            0.0000000000
     23099      7700  TIP3      H1            -18.9936566405      -37.9977522861      -12.5018896465  W2        7700            0.0000000000
     23100      7700  TIP3      H2            -18.8383566405      -36.4919522861      -12.5200596465  W2        7700            0.0000000000
     23101      7701  TIP3      OH2           -33.1521666405      -53.2543222861       -0.1970796465  W2        7701            0.0000000000
     23102      7701  TIP3      H1            -33.5183466405      -54.0200622861        0.2453903535  W2        7701            0.0000000000
     23103      7701  TIP3      H2            -32.2393166405      -53.2253022861        0.0894303535  W2        7701            0.0000000000
     23104      7702  TIP3      OH2           -31.1790866405      -53.9038822861        1.3386303535  W2        7702            0.0000000000
     23105      7702  TIP3      H1            -30.2807266405      -54.1778622861        1.1539703535  W2        7702            0.0000000000
     23106      7702  TIP3      H2            -31.5657766405      -54.6462822861        1.8028903535  W2        7702            0.0000000000
     23107      7703  TIP3      OH2           -32.5545566405      -37.1024022861      -15.9883696465  W2        7703            0.0000000000
     23108      7703  TIP3      H1            -32.8220966405      -36.8161122861      -15.1150596465  W2        7703            0.0000000000
     23109      7703  TIP3      H2            -31.7832966405      -37.6484822861      -15.8361196465  W2        7703            0.0000000000
     23110      7704  TIP3      OH2           -22.7578566405      -54.5713522861        1.5209103535  W2        7704            0.0000000000
     23111      7704  TIP3      H1            -22.6811366405      -54.9972822861        2.3746803535  W2        7704            0.0000000000
     23112      7704  TIP3      H2            -21.8641966405      -54.5578822861        1.1782603535  W2        7704            0.0000000000
     23113      7705  TIP3      OH2           -19.5817466405      -38.4987222861        0.2133303535  W2        7705            0.0000000000
     23114      7705  TIP3      H1            -20.3635566405      -38.6849222861       -0.3066096465  W2        7705            0.0000000000
     23115      7705  TIP3      H2            -19.6537566405      -37.5692922861        0.4305803535  W2        7705            0.0000000000
     23116      7706  TIP3      OH2            -5.1757066405      -44.6122822861       -9.7559496465  W2        7706            0.0000000000
     23117      7706  TIP3      H1             -5.0865966405      -43.6684622861       -9.8882396465  W2        7706            0.0000000000
     23118      7706  TIP3      H2             -5.8139466405      -44.8876422861      -10.4140096465  W2        7706            0.0000000000
     23119      7707  TIP3      OH2            -6.2425766405      -45.3572122861       -6.3371296465  W2        7707            0.0000000000
     23120      7707  TIP3      H1             -6.2808266405      -46.0035822861       -5.6321696465  W2        7707            0.0000000000
     23121      7707  TIP3      H2             -6.5649266405      -45.8237722861       -7.1082596465  W2        7707            0.0000000000
     23122      7708  TIP3      OH2           -13.8740766405      -45.7430022861       -4.7441396465  W2        7708            0.0000000000
     23123      7708  TIP3      H1            -13.8328666405      -46.3686722861       -4.0208996465  W2        7708            0.0000000000
     23124      7708  TIP3      H2            -13.1713066405      -45.1191422861       -4.5620996465  W2        7708            0.0000000000
     23125      7709  TIP3      OH2            -2.5365566405      -42.4181722861       -8.0356196465  W2        7709            0.0000000000
     23126      7709  TIP3      H1             -2.9772866405      -43.1385722861       -7.5850596465  W2        7709            0.0000000000
     23127      7709  TIP3      H2             -2.5495866405      -41.6974522861       -7.4058496465  W2        7709            0.0000000000
     23128      7710  TIP3      OH2           -12.9507666405      -41.2931122861       -6.2092296465  W2        7710            0.0000000000
     23129      7710  TIP3      H1            -13.3202466405      -42.0950622861       -6.5787996465  W2        7710            0.0000000000
     23130      7710  TIP3      H2            -12.0096566405      -41.4616222861       -6.1628896465  W2        7710            0.0000000000
     23131      7711  TIP3      OH2           -16.3407166405      -47.6328522861      -10.8163496465  W2        7711            0.0000000000
     23132      7711  TIP3      H1            -16.7883766405      -46.7869822861      -10.8346996465  W2        7711            0.0000000000
     23133      7711  TIP3      H2            -16.9015966405      -48.2124322861      -11.3318396465  W2        7711            0.0000000000
     23134      7712  TIP3      OH2           -15.6301066405      -45.4708922861       -8.6905496465  W2        7712            0.0000000000
     23135      7712  TIP3      H1            -15.4167566405      -46.2407322861       -8.1632496465  W2        7712            0.0000000000
     23136      7712  TIP3      H2            -14.8923466405      -45.3812222861       -9.2937896465  W2        7712            0.0000000000
     23137      7713  TIP3      OH2            -5.4250066405      -37.3140022861       -7.8235796465  W2        7713            0.0000000000
     23138      7713  TIP3      H1             -4.8053666405      -37.9905322861       -8.0966596465  W2        7713            0.0000000000
     23139      7713  TIP3      H2             -5.6332666405      -37.5319222861       -6.9150896465  W2        7713            0.0000000000
     23140      7714  TIP3      OH2            -7.8531366405      -42.9250722861       -5.9310296465  W2        7714            0.0000000000
     23141      7714  TIP3      H1             -7.5493466405      -43.6109322861       -6.5256196465  W2        7714            0.0000000000
     23142      7714  TIP3      H2             -7.1317366405      -42.8062022861       -5.3132296465  W2        7714            0.0000000000
     23143      7715  TIP3      OH2             0.8098433595      -51.3235422861       -5.0704096465  W2        7715            0.0000000000
     23144      7715  TIP3      H1              0.8590633595      -50.7134222861       -4.3344996465  W2        7715            0.0000000000
     23145      7715  TIP3      H2              1.2353533595      -50.8624522861       -5.7932996465  W2        7715            0.0000000000
     23146      7716  TIP3      OH2            -4.7124366405      -48.5308322861       -5.6035496465  W2        7716            0.0000000000
     23147      7716  TIP3      H1             -4.5698466405      -49.4771322861       -5.5833896465  W2        7716            0.0000000000
     23148      7716  TIP3      H2             -4.8185366405      -48.3238522861       -6.5320596465  W2        7716            0.0000000000
     23149      7717  TIP3      OH2           -11.5576066405      -50.4291922861       -8.3310696465  W2        7717            0.0000000000
     23150      7717  TIP3      H1            -11.5144966405      -49.5693422861       -8.7494396465  W2        7717            0.0000000000
     23151      7717  TIP3      H2            -12.0151966405      -50.9817222861       -8.9647496465  W2        7717            0.0000000000
     23152      7718  TIP3      OH2            -3.8353366405      -50.2986322861       -9.9302396465  W2        7718            0.0000000000
     23153      7718  TIP3      H1             -3.1889066405      -50.6273122861       -9.3054796465  W2        7718            0.0000000000
     23154      7718  TIP3      H2             -3.3253966405      -49.7807322861      -10.5530996465  W2        7718            0.0000000000
     23155      7719  TIP3      OH2           -14.9374566405      -48.0326122861       -7.5689296465  W2        7719            0.0000000000
     23156      7719  TIP3      H1            -14.2837966405      -48.5824422861       -7.1369196465  W2        7719            0.0000000000
     23157      7719  TIP3      H2            -14.9135266405      -48.3067122861       -8.4857296465  W2        7719            0.0000000000
     23158      7720  TIP3      OH2            -9.7810066405      -46.4824822861       -8.3537796465  W2        7720            0.0000000000
     23159      7720  TIP3      H1             -9.1649066405      -47.0089422861       -7.8443796465  W2        7720            0.0000000000
     23160      7720  TIP3      H2            -10.3671266405      -47.1226122861       -8.7574196465  W2        7720            0.0000000000
     23161      7721  TIP3      OH2             1.2013033595      -49.8456222861       -2.8344296465  W2        7721            0.0000000000
     23162      7721  TIP3      H1              0.5127633595      -49.1875522861       -2.9297696465  W2        7721            0.0000000000
     23163      7721  TIP3      H2              1.2167633595      -50.0428322861       -1.8978896465  W2        7721            0.0000000000
     23164      7722  TIP3      OH2           -12.7474166405      -51.5113522861       -4.2569896465  W2        7722            0.0000000000
     23165      7722  TIP3      H1            -12.9662466405      -50.9812922861       -5.0233896465  W2        7722            0.0000000000
     23166      7722  TIP3      H2            -13.4153266405      -51.2848022861       -3.6098496465  W2        7722            0.0000000000
     23167      7723  TIP3      OH2            -5.3784366405      -42.0112422861      -10.7130796465  W2        7723            0.0000000000
     23168      7723  TIP3      H1             -5.6739266405      -42.3340122861      -11.5643896465  W2        7723            0.0000000000
     23169      7723  TIP3      H2             -5.7026566405      -41.1115722861      -10.6718196465  W2        7723            0.0000000000
     23170      7724  TIP3      OH2           -10.1782766405      -43.8357822861       -3.9696196465  W2        7724            0.0000000000
     23171      7724  TIP3      H1            -10.9183666405      -43.2376322861       -3.8660996465  W2        7724            0.0000000000
     23172      7724  TIP3      H2             -9.4643266405      -43.2818222861       -4.2852596465  W2        7724            0.0000000000
     23173      7725  TIP3      OH2            -2.0714966405      -51.0077022861       -7.9496496465  W2        7725            0.0000000000
     23174      7725  TIP3      H1             -2.2866966405      -51.7733622861       -7.4170496465  W2        7725            0.0000000000
     23175      7725  TIP3      H2             -1.4157566405      -50.5352422861       -7.4367996465  W2        7725            0.0000000000
     23176      7726  TIP3      OH2           -13.1536866405      -49.6191722861       -6.3047696465  W2        7726            0.0000000000
     23177      7726  TIP3      H1            -12.5400566405      -48.9864122861       -5.9315296465  W2        7726            0.0000000000
     23178      7726  TIP3      H2            -12.6416166405      -50.0916722861       -6.9610796465  W2        7726            0.0000000000
     23179      7727  TIP3      OH2           -11.7708466405      -41.8714822861       -3.1824696465  W2        7727            0.0000000000
     23180      7727  TIP3      H1            -11.7760866405      -40.9921322861       -3.5605396465  W2        7727            0.0000000000
     23181      7727  TIP3      H2            -12.6244366405      -41.9550722861       -2.7574796465  W2        7727            0.0000000000
     23182      7728  TIP3      OH2           -15.6497566405      -42.2006922861      -12.4005396465  W2        7728            0.0000000000
     23183      7728  TIP3      H1            -15.9216666405      -41.9715922861      -13.2892496465  W2        7728            0.0000000000
     23184      7728  TIP3      H2            -15.6041866405      -41.3628122861      -11.9400096465  W2        7728            0.0000000000
     23185      7729  TIP3      OH2            -2.0247866405      -40.5791022861       -5.6876896465  W2        7729            0.0000000000
     23186      7729  TIP3      H1             -2.9664166405      -40.5207122861       -5.5259996465  W2        7729            0.0000000000
     23187      7729  TIP3      H2             -1.7481766405      -39.6730522861       -5.8247196465  W2        7729            0.0000000000
     23188      7730  TIP3      OH2            -1.7240866405      -52.2925722861       -4.2702996465  W2        7730            0.0000000000
     23189      7730  TIP3      H1             -2.4601666405      -51.6818622861       -4.3081696465  W2        7730            0.0000000000
     23190      7730  TIP3      H2             -1.0406866405      -51.8776722861       -4.7966596465  W2        7730            0.0000000000
     23191      7731  TIP3      OH2            -8.7209466405      -54.2058422861       -6.8044996465  W2        7731            0.0000000000
     23192      7731  TIP3      H1             -8.8385266405      -55.1542422861       -6.8586696465  W2        7731            0.0000000000
     23193      7731  TIP3      H2             -9.5759366405      -53.8732322861       -6.5313896465  W2        7731            0.0000000000
     23194      7732  TIP3      OH2            -3.7726666405      -38.7977522861       -9.0625296465  W2        7732            0.0000000000
     23195      7732  TIP3      H1             -3.3474366405      -39.5049622861       -9.5475696465  W2        7732            0.0000000000
     23196      7732  TIP3      H2             -3.4556666405      -37.9964822861       -9.4793096465  W2        7732            0.0000000000
     23197      7733  TIP3      OH2            -2.6130166405      -40.8969022861      -10.5538696465  W2        7733            0.0000000000
     23198      7733  TIP3      H1             -2.8705366405      -41.5868922861      -11.1652796465  W2        7733            0.0000000000
     23199      7733  TIP3      H2             -2.5419366405      -41.3397822861       -9.7082796465  W2        7733            0.0000000000
     23200      7734  TIP3      OH2            -0.9269966405      -42.3302322861       -2.0765196465  W2        7734            0.0000000000
     23201      7734  TIP3      H1             -0.7873666405      -42.9219822861       -2.8158196465  W2        7734            0.0000000000
     23202      7734  TIP3      H2             -0.7597166405      -41.4576422861       -2.4326396465  W2        7734            0.0000000000
     23203      7735  TIP3      OH2            -6.4544566405      -45.3682822861      -12.3039196465  W2        7735            0.0000000000
     23204      7735  TIP3      H1             -7.1659066405      -44.8333122861      -12.6558696465  W2        7735            0.0000000000
     23205      7735  TIP3      H2             -5.7634966405      -45.3130722861      -12.9640296465  W2        7735            0.0000000000
     23206      7736  TIP3      OH2            -6.4005366405      -46.9108522861      -15.2654196465  W2        7736            0.0000000000
     23207      7736  TIP3      H1             -5.6995466405      -46.8881622861      -14.6140196465  W2        7736            0.0000000000
     23208      7736  TIP3      H2             -6.0982466405      -47.5388822861      -15.9214896465  W2        7736            0.0000000000
     23209      7737  TIP3      OH2             0.9149333595      -45.9904322861       -4.0104796465  W2        7737            0.0000000000
     23210      7737  TIP3      H1              0.2623433595      -45.2958722861       -3.9213896465  W2        7737            0.0000000000
     23211      7737  TIP3      H2              1.3799633595      -45.7803422861       -4.8203196465  W2        7737            0.0000000000
     23212      7738  TIP3      OH2            -3.0486866405      -45.1589522861      -11.3523296465  W2        7738            0.0000000000
     23213      7738  TIP3      H1             -3.7805866405      -44.9305822861      -10.7792696465  W2        7738            0.0000000000
     23214      7738  TIP3      H2             -2.6014666405      -45.8726822861      -10.8975796465  W2        7738            0.0000000000
     23215      7739  TIP3      OH2            -3.1513366405      -46.9846922861       -2.2846296465  W2        7739            0.0000000000
     23216      7739  TIP3      H1             -3.0714266405      -46.2212522861       -1.7127796465  W2        7739            0.0000000000
     23217      7739  TIP3      H2             -3.7525666405      -46.7054522861       -2.9751196465  W2        7739            0.0000000000
     23218      7740  TIP3      OH2           -11.4033166405      -44.5283322861       -9.4698296465  W2        7740            0.0000000000
     23219      7740  TIP3      H1            -11.7337966405      -44.8989922861      -10.2881296465  W2        7740            0.0000000000
     23220      7740  TIP3      H2            -10.8149066405      -45.1989322861       -9.1229996465  W2        7740            0.0000000000
     23221      7741  TIP3      OH2           -10.0365666405      -41.1002722861       -6.7886096465  W2        7741            0.0000000000
     23222      7741  TIP3      H1            -10.1314366405      -41.6789622861       -7.5451496465  W2        7741            0.0000000000
     23223      7741  TIP3      H2             -9.3072066405      -41.4717022861       -6.2923296465  W2        7741            0.0000000000
     23224      7742  TIP3      OH2           -11.0367666405      -45.7597722861       -5.8363296465  W2        7742            0.0000000000
     23225      7742  TIP3      H1            -10.4715166405      -45.6383522861       -6.5992096465  W2        7742            0.0000000000
     23226      7742  TIP3      H2            -10.7178766405      -45.1222722861       -5.1974796465  W2        7742            0.0000000000
     23227      7743  TIP3      OH2            -4.7275466405      -40.2565822861       -5.1022796465  W2        7743            0.0000000000
     23228      7743  TIP3      H1             -4.9678866405      -39.5942722861       -4.4543596465  W2        7743            0.0000000000
     23229      7743  TIP3      H2             -4.9257266405      -41.0910622861       -4.6773196465  W2        7743            0.0000000000
     23230      7744  TIP3      OH2           -10.1566966405      -41.3605022861       -1.1191396465  W2        7744            0.0000000000
     23231      7744  TIP3      H1            -10.4679466405      -40.5781822861       -0.6638196465  W2        7744            0.0000000000
     23232      7744  TIP3      H2            -10.8066766405      -41.5135922861       -1.8049396465  W2        7744            0.0000000000
     23233      7745  TIP3      OH2            -4.1777366405      -45.9966622861      -13.6672096465  W2        7745            0.0000000000
     23234      7745  TIP3      H1             -3.5981866405      -45.8466322861      -12.9203196465  W2        7745            0.0000000000
     23235      7745  TIP3      H2             -3.7637366405      -45.5259222861      -14.3905696465  W2        7745            0.0000000000
     23236      7746  TIP3      OH2           -13.2367066405      -45.1623922861       -1.8905696465  W2        7746            0.0000000000
     23237      7746  TIP3      H1            -13.1663866405      -44.5117122861       -1.1920696465  W2        7746            0.0000000000
     23238      7746  TIP3      H2            -14.1274866405      -45.0596422861       -2.2254796465  W2        7746            0.0000000000
     23239      7747  TIP3      OH2            -6.4512466405      -39.2598122861      -10.2318996465  W2        7747            0.0000000000
     23240      7747  TIP3      H1             -5.9774866405      -38.9641822861       -9.4544796465  W2        7747            0.0000000000
     23241      7747  TIP3      H2             -7.0143166405      -38.5216522861      -10.4649396465  W2        7747            0.0000000000
     23242      7748  TIP3      OH2           -11.9171066405      -39.2890022861       -0.3557596465  W2        7748            0.0000000000
     23243      7748  TIP3      H1            -11.9095766405      -39.4250322861       -1.3032096465  W2        7748            0.0000000000
     23244      7748  TIP3      H2            -12.8330666405      -39.4061922861       -0.1037596465  W2        7748            0.0000000000
     23245      7749  TIP3      OH2            -0.4788966405      -54.2466222861      -13.8542396465  W2        7749            0.0000000000
     23246      7749  TIP3      H1             -1.3788266405      -54.1077222861      -13.5591796465  W2        7749            0.0000000000
     23247      7749  TIP3      H2             -0.2270566405      -53.4151622861      -14.2560696465  W2        7749            0.0000000000
     23248      7750  TIP3      OH2           -12.4130466405      -45.4589022861      -11.8805496465  W2        7750            0.0000000000
     23249      7750  TIP3      H1            -12.7049166405      -44.6907322861      -12.3714196465  W2        7750            0.0000000000
     23250      7750  TIP3      H2            -13.0875266405      -46.1182822861      -12.0434096465  W2        7750            0.0000000000
     23251      7751  TIP3      OH2             0.7102433595      -39.8803822861      -15.4778496465  W2        7751            0.0000000000
     23252      7751  TIP3      H1              0.7835933595      -38.9413622861      -15.3073196465  W2        7751            0.0000000000
     23253      7751  TIP3      H2              1.6157533595      -40.1855222861      -15.5341196465  W2        7751            0.0000000000
     23254      7752  TIP3      OH2           -16.3200366405      -43.0959822861       -3.0655696465  W2        7752            0.0000000000
     23255      7752  TIP3      H1            -16.8211966405      -43.1240422861       -3.8805996465  W2        7752            0.0000000000
     23256      7752  TIP3      H2            -16.3146666405      -44.0016622861       -2.7558396465  W2        7752            0.0000000000
     23257      7753  TIP3      OH2           -16.5697666405      -40.3156022861       -6.1815496465  W2        7753            0.0000000000
     23258      7753  TIP3      H1            -15.6237066405      -40.4599022861       -6.2005996465  W2        7753            0.0000000000
     23259      7753  TIP3      H2            -16.6821366405      -39.5313222861       -5.6444296465  W2        7753            0.0000000000
     23260      7754  TIP3      OH2             1.6280833595      -39.6496322861       -0.4991796465  W2        7754            0.0000000000
     23261      7754  TIP3      H1              1.5787633595      -40.6048222861       -0.5364196465  W2        7754            0.0000000000
     23262      7754  TIP3      H2              0.8013133595      -39.3821022861       -0.0977996465  W2        7754            0.0000000000
     23263      7755  TIP3      OH2            -7.3935166405      -40.0757122861       -1.6230396465  W2        7755            0.0000000000
     23264      7755  TIP3      H1             -7.3060566405      -39.2492522861       -1.1481296465  W2        7755            0.0000000000
     23265      7755  TIP3      H2             -8.2570066405      -40.4053322861       -1.3741096465  W2        7755            0.0000000000
     23266      7756  TIP3      OH2            -6.9789366405      -36.3033422861      -11.8169796465  W2        7756            0.0000000000
     23267      7756  TIP3      H1             -7.0543366405      -36.4246222861      -12.7634596465  W2        7756            0.0000000000
     23268      7756  TIP3      H2             -6.9460666405      -35.3540722861      -11.6985196465  W2        7756            0.0000000000
     23269      7757  TIP3      OH2           -13.3255566405      -37.5146422861      -10.0360796465  W2        7757            0.0000000000
     23270      7757  TIP3      H1            -13.1735166405      -37.8626022861       -9.1574296465  W2        7757            0.0000000000
     23271      7757  TIP3      H2            -14.1765166405      -37.8709122861      -10.2913596465  W2        7757            0.0000000000
     23272      7758  TIP3      OH2            -3.8773366405      -37.1493222861      -14.8147396465  W2        7758            0.0000000000
     23273      7758  TIP3      H1             -3.5024966405      -37.8937122861      -15.2854796465  W2        7758            0.0000000000
     23274      7758  TIP3      H2             -3.8729666405      -37.4192622861      -13.8964096465  W2        7758            0.0000000000
     23275      7759  TIP3      OH2            -4.2085266405      -37.2236122861      -12.0655196465  W2        7759            0.0000000000
     23276      7759  TIP3      H1             -5.1435466405      -37.1234222861      -11.8868196465  W2        7759            0.0000000000
     23277      7759  TIP3      H2             -3.9283366405      -37.9330122861      -11.4871996465  W2        7759            0.0000000000
     23278      7760  TIP3      OH2            -1.2199366405      -48.1563822861       -0.0189596465  W2        7760            0.0000000000
     23279      7760  TIP3      H1             -1.6272566405      -47.6758222861       -0.7396296465  W2        7760            0.0000000000
     23280      7760  TIP3      H2             -1.1793666405      -49.0617822861       -0.3268796465  W2        7760            0.0000000000
     23281      7761  TIP3      OH2           -14.0709866405      -41.7724422861       -2.0222896465  W2        7761            0.0000000000
     23282      7761  TIP3      H1            -13.8548566405      -42.1338822861       -1.1627096465  W2        7761            0.0000000000
     23283      7761  TIP3      H2            -14.9265166405      -42.1470622861       -2.2319396465  W2        7761            0.0000000000
     23284      7762  TIP3      OH2           -11.4521866405      -53.3023922861       -6.0268696465  W2        7762            0.0000000000
     23285      7762  TIP3      H1            -12.3138166405      -53.3895722861       -6.4345796465  W2        7762            0.0000000000
     23286      7762  TIP3      H2            -11.4746166405      -52.4463822861       -5.5991096465  W2        7762            0.0000000000
     23287      7763  TIP3      OH2            -6.7894066405      -53.5803522861       -2.6521696465  W2        7763            0.0000000000
     23288      7763  TIP3      H1             -6.3690966405      -53.9956422861       -1.8991096465  W2        7763            0.0000000000
     23289      7763  TIP3      H2             -7.7224466405      -53.7590222861       -2.5349696465  W2        7763            0.0000000000
     23290      7764  TIP3      OH2            -3.4629166405      -49.8248322861       -1.7987196465  W2        7764            0.0000000000
     23291      7764  TIP3      H1             -3.9769666405      -49.9506122861       -1.0011196465  W2        7764            0.0000000000
     23292      7764  TIP3      H2             -3.6184466405      -48.9125222861       -2.0430996465  W2        7764            0.0000000000
     23293      7765  TIP3      OH2            -2.7004266405      -44.9638322861      -16.0374196465  W2        7765            0.0000000000
     23294      7765  TIP3      H1             -2.6583466405      -45.1864422861      -16.9674196465  W2        7765            0.0000000000
     23295      7765  TIP3      H2             -1.8512166405      -44.5651222861      -15.8474296465  W2        7765            0.0000000000
     23296      7766  TIP3      OH2            -7.1276766405      -51.0880122861      -15.3670896465  W2        7766            0.0000000000
     23297      7766  TIP3      H1             -7.3811966405      -51.0688522861      -14.4442796465  W2        7766            0.0000000000
     23298      7766  TIP3      H2             -7.3844666405      -51.9594722861      -15.6684696465  W2        7766            0.0000000000
     23299      7767  TIP3      OH2           -11.3611766405      -48.3369422861       -4.9318496465  W2        7767            0.0000000000
     23300      7767  TIP3      H1            -12.0029666405      -48.3772122861       -4.2228396465  W2        7767            0.0000000000
     23301      7767  TIP3      H2            -11.3239766405      -47.4104722861       -5.1695496465  W2        7767            0.0000000000
     23302      7768  TIP3      OH2           -11.3642666405      -48.1159322861      -10.0198496465  W2        7768            0.0000000000
     23303      7768  TIP3      H1            -12.2569766405      -48.4563222861      -10.0784696465  W2        7768            0.0000000000
     23304      7768  TIP3      H2            -10.9136066405      -48.4928422861      -10.7755296465  W2        7768            0.0000000000
     23305      7769  TIP3      OH2            -5.8287166405      -47.6999022861      -11.2027696465  W2        7769            0.0000000000
     23306      7769  TIP3      H1             -6.2376866405      -46.8850422861      -11.4942896465  W2        7769            0.0000000000
     23307      7769  TIP3      H2             -5.1080966405      -47.8398922861      -11.8170596465  W2        7769            0.0000000000
     23308      7770  TIP3      OH2            -6.7265566405      -47.5242622861        0.2853003535  W2        7770            0.0000000000
     23309      7770  TIP3      H1             -7.2891766405      -48.2291022861        0.6060803535  W2        7770            0.0000000000
     23310      7770  TIP3      H2             -5.9002166405      -47.6450722861        0.7530603535  W2        7770            0.0000000000
     23311      7771  TIP3      OH2            -4.8239466405      -48.2538622861       -8.3887996465  W2        7771            0.0000000000
     23312      7771  TIP3      H1             -5.0194966405      -47.6481822861       -9.1037396465  W2        7771            0.0000000000
     23313      7771  TIP3      H2             -4.6426866405      -49.0873422861       -8.8231696465  W2        7771            0.0000000000
     23314      7772  TIP3      OH2           -13.6111266405      -48.0165922861       -3.0646496465  W2        7772            0.0000000000
     23315      7772  TIP3      H1            -13.6491866405      -47.6164322861       -2.1959396465  W2        7772            0.0000000000
     23316      7772  TIP3      H2            -14.1020166405      -48.8333522861       -2.9743596465  W2        7772            0.0000000000
     23317      7773  TIP3      OH2           -10.2453866405      -50.6423622861      -16.2660496465  W2        7773            0.0000000000
     23318      7773  TIP3      H1            -10.6763166405      -51.0873522861      -15.5363096465  W2        7773            0.0000000000
     23319      7773  TIP3      H2            -10.9635166405      -50.2707322861      -16.7782996465  W2        7773            0.0000000000
     23320      7774  TIP3      OH2           -17.0030466405      -50.9004122861       -9.2141796465  W2        7774            0.0000000000
     23321      7774  TIP3      H1            -16.3722766405      -50.9292022861       -8.4947896465  W2        7774            0.0000000000
     23322      7774  TIP3      H2            -16.5536166405      -51.3255422861       -9.9445896465  W2        7774            0.0000000000
     23323      7775  TIP3      OH2           -15.7288366405      -50.1542122861      -13.7901396465  W2        7775            0.0000000000
     23324      7775  TIP3      H1            -15.2546666405      -49.5632222861      -14.3750496465  W2        7775            0.0000000000
     23325      7775  TIP3      H2            -16.4461966405      -49.6239222861      -13.4431296465  W2        7775            0.0000000000
     23326      7776  TIP3      OH2            -5.5600266405      -46.6157322861       -3.7175596465  W2        7776            0.0000000000
     23327      7776  TIP3      H1             -5.2365466405      -47.2467622861       -4.3605096465  W2        7776            0.0000000000
     23328      7776  TIP3      H2             -6.0000966405      -47.1505122861       -3.0568196465  W2        7776            0.0000000000
     23329      7777  TIP3      OH2            -8.7827366405      -50.6881822861       -8.9334396465  W2        7777            0.0000000000
     23330      7777  TIP3      H1             -9.6936266405      -50.6315022861       -8.6448396465  W2        7777            0.0000000000
     23331      7777  TIP3      H2             -8.2774466405      -50.7486322861       -8.1227196465  W2        7777            0.0000000000
     23332      7778  TIP3      OH2           -13.9543966405      -49.0595522861      -10.1066796465  W2        7778            0.0000000000
     23333      7778  TIP3      H1            -14.8435966405      -48.9600022861      -10.4467196465  W2        7778            0.0000000000
     23334      7778  TIP3      H2            -13.6579066405      -49.9012522861      -10.4528896465  W2        7778            0.0000000000
     23335      7779  TIP3      OH2           -10.3012166405      -49.0592922861      -12.4502196465  W2        7779            0.0000000000
     23336      7779  TIP3      H1             -9.3696666405      -48.9302922861      -12.2719096465  W2        7779            0.0000000000
     23337      7779  TIP3      H2            -10.5161866405      -48.3898622861      -13.0997496465  W2        7779            0.0000000000
     23338      7780  TIP3      OH2            -4.3775466405      -51.4535522861       -5.6692596465  W2        7780            0.0000000000
     23339      7780  TIP3      H1             -5.0543866405      -51.3222422861       -5.0052896465  W2        7780            0.0000000000
     23340      7780  TIP3      H2             -4.8630566405      -51.6086022861       -6.4794896465  W2        7780            0.0000000000
     23341      7781  TIP3      OH2           -11.6271966405      -47.8650722861      -14.8836096465  W2        7781            0.0000000000
     23342      7781  TIP3      H1            -12.1696866405      -48.2446922861      -15.5748496465  W2        7781            0.0000000000
     23343      7781  TIP3      H2            -10.7937066405      -47.6706022861      -15.3121996465  W2        7781            0.0000000000
     23344      7782  TIP3      OH2            -1.0900366405      -35.7820122861        0.6075003535  W2        7782            0.0000000000
     23345      7782  TIP3      H1             -0.8901666405      -35.3578222861       -0.2269696465  W2        7782            0.0000000000
     23346      7782  TIP3      H2             -0.4346666405      -35.4381922861        1.2145403535  W2        7782            0.0000000000
     23347      7783  TIP3      OH2           -13.4920566405      -43.3078822861        0.2155503535  W2        7783            0.0000000000
     23348      7783  TIP3      H1            -12.7598166405      -43.0532922861        0.7770003535  W2        7783            0.0000000000
     23349      7783  TIP3      H2            -14.2721866405      -43.1033422861        0.7310903535  W2        7783            0.0000000000
     23350      7784  TIP3      OH2            -7.4627666405      -47.9008822861       -7.0464796465  W2        7784            0.0000000000
     23351      7784  TIP3      H1             -6.8984266405      -48.4472222861       -7.5935196465  W2        7784            0.0000000000
     23352      7784  TIP3      H2             -7.6104266405      -48.4226922861       -6.2577196465  W2        7784            0.0000000000
     23353      7785  TIP3      OH2           -12.4607966405      -51.7642722861      -10.6279996465  W2        7785            0.0000000000
     23354      7785  TIP3      H1            -12.7778466405      -52.6667422861      -10.6634596465  W2        7785            0.0000000000
     23355      7785  TIP3      H2            -11.6793866405      -51.7625322861      -11.1808396465  W2        7785            0.0000000000
     23356      7786  TIP3      OH2            -8.8361766405      -49.5122722861       -4.6324396465  W2        7786            0.0000000000
     23357      7786  TIP3      H1             -9.6716466405      -49.0583222861       -4.5221996465  W2        7786            0.0000000000
     23358      7786  TIP3      H2             -8.3121166405      -49.2364222861       -3.8804496465  W2        7786            0.0000000000
     23359      7787  TIP3      OH2            -8.2919166405      -43.2995022861      -12.9477996465  W2        7787            0.0000000000
     23360      7787  TIP3      H1             -9.0368166405      -43.8069722861      -13.2700096465  W2        7787            0.0000000000
     23361      7787  TIP3      H2             -8.4261966405      -43.2507022861      -12.0013196465  W2        7787            0.0000000000
     23362      7788  TIP3      OH2            -1.1420266405      -44.1666822861       -4.1610396465  W2        7788            0.0000000000
     23363      7788  TIP3      H1             -0.5001466405      -43.7100522861       -4.7048196465  W2        7788            0.0000000000
     23364      7788  TIP3      H2             -1.9723366405      -44.0534422861       -4.6236296465  W2        7788            0.0000000000
     23365      7789  TIP3      OH2            -4.3942366405      -50.4855122861      -14.7485396465  W2        7789            0.0000000000
     23366      7789  TIP3      H1             -5.3328166405      -50.3739522861      -14.8996596465  W2        7789            0.0000000000
     23367      7789  TIP3      H2             -4.0970266405      -49.6288222861      -14.4419696465  W2        7789            0.0000000000
     23368      7790  TIP3      OH2            -6.7727066405      -43.1151722861       -1.7108896465  W2        7790            0.0000000000
     23369      7790  TIP3      H1             -7.1180966405      -43.4969322861       -0.9039296465  W2        7790            0.0000000000
     23370      7790  TIP3      H2             -6.9726966405      -42.1818122861       -1.6395996465  W2        7790            0.0000000000
     23371      7791  TIP3      OH2            -3.6758866405      -48.6182422861      -13.0877996465  W2        7791            0.0000000000
     23372      7791  TIP3      H1             -2.7839866405      -48.7557422861      -12.7686796465  W2        7791            0.0000000000
     23373      7791  TIP3      H2             -3.6195266405      -47.8276322861      -13.6244496465  W2        7791            0.0000000000
     23374      7792  TIP3      OH2           -13.1670866405      -44.0045022861       -7.1780096465  W2        7792            0.0000000000
     23375      7792  TIP3      H1            -12.4223666405      -44.0069322861       -7.7793596465  W2        7792            0.0000000000
     23376      7792  TIP3      H2            -13.0894266405      -44.8281222861       -6.6964996465  W2        7792            0.0000000000
     23377      7793  TIP3      OH2            -6.1665066405      -41.8410722861      -13.9223396465  W2        7793            0.0000000000
     23378      7793  TIP3      H1             -6.4616666405      -41.0142822861      -13.5408596465  W2        7793            0.0000000000
     23379      7793  TIP3      H2             -6.8695066405      -42.4603822861      -13.7261996465  W2        7793            0.0000000000
     23380      7794  TIP3      OH2           -16.1591166405      -45.5438122861       -1.8631596465  W2        7794            0.0000000000
     23381      7794  TIP3      H1            -15.9362566405      -45.9618522861       -1.0314096465  W2        7794            0.0000000000
     23382      7794  TIP3      H2            -16.7611066405      -46.1563122861       -2.2858796465  W2        7794            0.0000000000
     23383      7795  TIP3      OH2            -9.1426266405      -46.0268222861        0.3498103535  W2        7795            0.0000000000
     23384      7795  TIP3      H1             -9.4385466405      -46.1925222861       -0.5452796465  W2        7795            0.0000000000
     23385      7795  TIP3      H2             -8.2111066405      -46.2467922861        0.3392003535  W2        7795            0.0000000000
     23386      7796  TIP3      OH2            -4.5223466405      -40.6536222861       -1.7603896465  W2        7796            0.0000000000
     23387      7796  TIP3      H1             -5.4229166405      -40.4703622861       -2.0279996465  W2        7796            0.0000000000
     23388      7796  TIP3      H2             -4.4882366405      -40.3946922861       -0.8395096465  W2        7796            0.0000000000
     23389      7797  TIP3      OH2             1.2089833595      -48.4088322861      -13.3931296465  W2        7797            0.0000000000
     23390      7797  TIP3      H1              0.6546133595      -48.8050322861      -14.0653796465  W2        7797            0.0000000000
     23391      7797  TIP3      H2              1.3093433595      -47.4983122861      -13.6707996465  W2        7797            0.0000000000
     23392      7798  TIP3      OH2             1.1721833595      -42.6086622861       -0.5559796465  W2        7798            0.0000000000
     23393      7798  TIP3      H1              0.3210333595      -42.3702822861       -0.9233396465  W2        7798            0.0000000000
     23394      7798  TIP3      H2              1.7625233595      -42.6253422861       -1.3092696465  W2        7798            0.0000000000
     23395      7799  TIP3      OH2            -0.4958466405      -39.6227922861      -12.9279196465  W2        7799            0.0000000000
     23396      7799  TIP3      H1             -0.8687366405      -40.4484122861      -12.6188596465  W2        7799            0.0000000000
     23397      7799  TIP3      H2             -0.2184966405      -39.8058522861      -13.8255796465  W2        7799            0.0000000000
     23398      7800  TIP3      OH2            -3.3354566405      -44.8148422861       -5.9067296465  W2        7800            0.0000000000
     23399      7800  TIP3      H1             -4.2637666405      -45.0466522861       -5.9337996465  W2        7800            0.0000000000
     23400      7800  TIP3      H2             -2.8843466405      -45.5918622861       -6.2368496465  W2        7800            0.0000000000
     23401      7801  TIP3      OH2           -10.7921466405      -40.4866822861       -9.7738596465  W2        7801            0.0000000000
     23402      7801  TIP3      H1            -10.2649266405      -39.7132422861       -9.9739796465  W2        7801            0.0000000000
     23403      7801  TIP3      H2            -11.6722966405      -40.2617622861      -10.0754596465  W2        7801            0.0000000000
     23404      7802  TIP3      OH2           -15.0373766405      -45.6242722861      -15.1866196465  W2        7802            0.0000000000
     23405      7802  TIP3      H1            -14.4213866405      -44.9975522861      -14.8071396465  W2        7802            0.0000000000
     23406      7802  TIP3      H2            -15.8991166405      -45.3082922861      -14.9149696465  W2        7802            0.0000000000
     23407      7803  TIP3      OH2            -9.3649166405      -42.8236922861      -10.1974296465  W2        7803            0.0000000000
     23408      7803  TIP3      H1             -9.6059166405      -41.8982522861      -10.1558996465  W2        7803            0.0000000000
     23409      7803  TIP3      H2            -10.1055566405      -43.2825622861       -9.8010396465  W2        7803            0.0000000000
     23410      7804  TIP3      OH2            -8.8502566405      -38.6743322861       -3.8823196465  W2        7804            0.0000000000
     23411      7804  TIP3      H1             -8.4877866405      -37.8197722861       -4.1158796465  W2        7804            0.0000000000
     23412      7804  TIP3      H2             -8.3187366405      -38.9661722861       -3.1416896465  W2        7804            0.0000000000
     23413      7805  TIP3      OH2           -10.6818366405      -37.8019322861      -10.6522096465  W2        7805            0.0000000000
     23414      7805  TIP3      H1            -11.6317866405      -37.6961922861      -10.6008796465  W2        7805            0.0000000000
     23415      7805  TIP3      H2            -10.3300266405      -36.9811922861      -10.3074596465  W2        7805            0.0000000000
     23416      7806  TIP3      OH2            -5.3061766405      -42.5752622861       -4.1817596465  W2        7806            0.0000000000
     23417      7806  TIP3      H1             -5.7320466405      -42.8030922861       -3.3553596465  W2        7806            0.0000000000
     23418      7806  TIP3      H2             -4.7255966405      -43.3140822861       -4.3642296465  W2        7806            0.0000000000
     23419      7807  TIP3      OH2            -3.1032866405      -41.6462122861      -15.1078596465  W2        7807            0.0000000000
     23420      7807  TIP3      H1             -2.7499766405      -42.0262322861      -14.3035096465  W2        7807            0.0000000000
     23421      7807  TIP3      H2             -4.0519366405      -41.7397322861      -15.0209296465  W2        7807            0.0000000000
     23422      7808  TIP3      OH2            -2.6477566405      -38.0233122861       -1.7122796465  W2        7808            0.0000000000
     23423      7808  TIP3      H1             -3.2494366405      -38.5790222861       -2.2076496465  W2        7808            0.0000000000
     23424      7808  TIP3      H2             -2.3663866405      -37.3563322861       -2.3385396465  W2        7808            0.0000000000
     23425      7809  TIP3      OH2             1.4001533595      -37.1669622861      -14.9068396465  W2        7809            0.0000000000
     23426      7809  TIP3      H1              2.1439433595      -36.5809122861      -15.0466796465  W2        7809            0.0000000000
     23427      7809  TIP3      H2              0.7059633595      -36.5983822861      -14.5735996465  W2        7809            0.0000000000
     23428      7810  TIP3      OH2           -14.5251666405      -50.7905422861       -2.3050196465  W2        7810            0.0000000000
     23429      7810  TIP3      H1            -15.4179366405      -50.4520022861       -2.3726196465  W2        7810            0.0000000000
     23430      7810  TIP3      H2            -14.6238866405      -51.6459322861       -1.8869396465  W2        7810            0.0000000000
     23431      7811  TIP3      OH2            -2.2373566405      -42.9740122861      -12.8810696465  W2        7811            0.0000000000
     23432      7811  TIP3      H1             -2.5145966405      -43.7020822861      -12.3249596465  W2        7811            0.0000000000
     23433      7811  TIP3      H2             -1.3100566405      -42.8548122861      -12.6758096465  W2        7811            0.0000000000
     23434      7812  TIP3      OH2           -14.8739666405      -38.9861022861       -3.8700796465  W2        7812            0.0000000000
     23435      7812  TIP3      H1            -14.6569366405      -39.9178622861       -3.9011096465  W2        7812            0.0000000000
     23436      7812  TIP3      H2            -14.6276166405      -38.7116022861       -2.9867996465  W2        7812            0.0000000000
     23437      7813  TIP3      OH2            -9.0125066405      -40.5346022861      -16.6608596465  W2        7813            0.0000000000
     23438      7813  TIP3      H1             -8.7735266405      -41.2827922861      -17.2079696465  W2        7813            0.0000000000
     23439      7813  TIP3      H2             -9.2813766405      -40.9224322861      -15.8280796465  W2        7813            0.0000000000
     23440      7814  TIP3      OH2           -10.0754466405      -40.9642222861      -14.2045996465  W2        7814            0.0000000000
     23441      7814  TIP3      H1             -9.9286466405      -41.4842422861      -13.4145096465  W2        7814            0.0000000000
     23442      7814  TIP3      H2            -10.0782766405      -40.0574622861      -13.8980096465  W2        7814            0.0000000000
     23443      7815  TIP3      OH2           -13.6223366405      -43.7118922861      -13.6940596465  W2        7815            0.0000000000
     23444      7815  TIP3      H1            -14.3084066405      -43.3596422861      -13.1270896465  W2        7815            0.0000000000
     23445      7815  TIP3      H2            -13.0995466405      -42.9489322861      -13.9406296465  W2        7815            0.0000000000
     23446      7816  TIP3      OH2            -5.7908266405      -51.0495122861       -3.4151596465  W2        7816            0.0000000000
     23447      7816  TIP3      H1             -5.0920366405      -50.9756422861       -2.7651896465  W2        7816            0.0000000000
     23448      7816  TIP3      H2             -6.1716866405      -51.9140122861       -3.2608696465  W2        7816            0.0000000000
     23449      7817  TIP3      OH2            -5.0063366405      -51.3973422861      -12.3179296465  W2        7817            0.0000000000
     23450      7817  TIP3      H1             -4.7865066405      -50.9258022861      -13.1213896465  W2        7817            0.0000000000
     23451      7817  TIP3      H2             -4.4479366405      -51.0030822861      -11.6478696465  W2        7817            0.0000000000
     23452      7818  TIP3      OH2            -7.3377266405      -39.2668622861      -13.4551796465  W2        7818            0.0000000000
     23453      7818  TIP3      H1             -8.1541166405      -38.7698922861      -13.4027496465  W2        7818            0.0000000000
     23454      7818  TIP3      H2             -6.8080966405      -38.7915122861      -14.0952996465  W2        7818            0.0000000000
     23455      7819  TIP3      OH2            -7.8063466405      -49.6694622861      -11.4830896465  W2        7819            0.0000000000
     23456      7819  TIP3      H1             -6.9940866405      -49.1651422861      -11.4369196465  W2        7819            0.0000000000
     23457      7819  TIP3      H2             -8.0510466405      -49.8144922861      -10.5691296465  W2        7819            0.0000000000
     23458      7820  TIP3      OH2            -7.2707066405      -48.6831922861       -2.2984296465  W2        7820            0.0000000000
     23459      7820  TIP3      H1             -7.1516766405      -48.1096522861       -1.5413896465  W2        7820            0.0000000000
     23460      7820  TIP3      H2             -6.6152466405      -49.3712522861       -2.1836496465  W2        7820            0.0000000000
     23461      7821  TIP3      OH2            -6.9226766405      -52.5881622861      -10.5449796465  W2        7821            0.0000000000
     23462      7821  TIP3      H1             -7.2693266405      -51.9711022861       -9.9005496465  W2        7821            0.0000000000
     23463      7821  TIP3      H2             -6.2639866405      -52.0875922861      -11.0264296465  W2        7821            0.0000000000
     23464      7822  TIP3      OH2            -9.9994166405      -38.2231422861      -13.4734896465  W2        7822            0.0000000000
     23465      7822  TIP3      H1             -9.8385466405      -37.4233922861      -13.9742296465  W2        7822            0.0000000000
     23466      7822  TIP3      H2            -10.1966366405      -37.9165422861      -12.5884296465  W2        7822            0.0000000000
     23467      7823  TIP3      OH2           -11.2649766405      -51.5252222861      -13.8577296465  W2        7823            0.0000000000
     23468      7823  TIP3      H1            -11.3484966405      -50.6369122861      -13.5110896465  W2        7823            0.0000000000
     23469      7823  TIP3      H2            -10.3749466405      -51.7905522861      -13.6260496465  W2        7823            0.0000000000
     23470      7824  TIP3      OH2            -1.0661266405      -50.7761622861       -1.4634596465  W2        7824            0.0000000000
     23471      7824  TIP3      H1             -1.9825466405      -50.5139922861       -1.5510896465  W2        7824            0.0000000000
     23472      7824  TIP3      H2             -0.7306266405      -50.7792622861       -2.3599296465  W2        7824            0.0000000000
     23473      7825  TIP3      OH2            -2.4640266405      -47.0260622861       -7.3677296465  W2        7825            0.0000000000
     23474      7825  TIP3      H1             -3.2615866405      -47.4410422861       -7.6962296465  W2        7825            0.0000000000
     23475      7825  TIP3      H2             -2.0189166405      -47.7166922861       -6.8766796465  W2        7825            0.0000000000
     23476      7826  TIP3      OH2           -13.0064466405      -41.0980022861      -14.7972796465  W2        7826            0.0000000000
     23477      7826  TIP3      H1            -12.4142966405      -40.3985222861      -14.5210396465  W2        7826            0.0000000000
     23478      7826  TIP3      H2            -12.5471466405      -41.5310522861      -15.5168196465  W2        7826            0.0000000000
     23479      7827  TIP3      OH2           -14.6905266405      -48.4337022861      -15.6813396465  W2        7827            0.0000000000
     23480      7827  TIP3      H1            -14.7352666405      -47.4943922861      -15.5026396465  W2        7827            0.0000000000
     23481      7827  TIP3      H2            -15.5782066405      -48.6692122861      -15.9511296465  W2        7827            0.0000000000
     23482      7828  TIP3      OH2            -1.3775666405      -37.7698122861       -5.7453796465  W2        7828            0.0000000000
     23483      7828  TIP3      H1             -1.5331366405      -37.0913722861       -6.4024496465  W2        7828            0.0000000000
     23484      7828  TIP3      H2             -0.4449266405      -37.6978822861       -5.5423196465  W2        7828            0.0000000000
     23485      7829  TIP3      OH2           -13.8823266405      -53.6520422861       -7.0082396465  W2        7829            0.0000000000
     23486      7829  TIP3      H1            -14.1113466405      -53.5927922861       -7.9357396465  W2        7829            0.0000000000
     23487      7829  TIP3      H2            -14.3249866405      -54.4434922861       -6.7018296465  W2        7829            0.0000000000
     23488      7830  TIP3      OH2           -14.9519966405      -39.7113322861      -10.8476596465  W2        7830            0.0000000000
     23489      7830  TIP3      H1            -15.7841366405      -39.2390622861      -10.8205196465  W2        7830            0.0000000000
     23490      7830  TIP3      H2            -14.4061666405      -39.2015722861      -11.4463496465  W2        7830            0.0000000000
     23491      7831  TIP3      OH2           -15.6636266405      -37.0989622861        0.4821403535  W2        7831            0.0000000000
     23492      7831  TIP3      H1            -15.1234066405      -37.3155622861        1.2420603535  W2        7831            0.0000000000
     23493      7831  TIP3      H2            -16.1448266405      -37.9043622861        0.2923903535  W2        7831            0.0000000000
     23494      7832  TIP3      OH2           -11.0662866405      -38.1795222861        2.1025603535  W2        7832            0.0000000000
     23495      7832  TIP3      H1            -10.2985666405      -38.6384422861        2.4434803535  W2        7832            0.0000000000
     23496      7832  TIP3      H2            -11.0876666405      -38.4055422861        1.1726803535  W2        7832            0.0000000000
     23497      7833  TIP3      OH2            -6.9743266405      -38.6714622861      -16.5222596465  W2        7833            0.0000000000
     23498      7833  TIP3      H1             -7.6182266405      -39.3026022861      -16.2008896465  W2        7833            0.0000000000
     23499      7833  TIP3      H2             -6.2124966405      -39.2026622861      -16.7539096465  W2        7833            0.0000000000
     23500      7834  TIP3      OH2            -4.4894166405      -39.7994122861        0.8317103535  W2        7834            0.0000000000
     23501      7834  TIP3      H1             -4.8404666405      -40.6561122861        1.0747503535  W2        7834            0.0000000000
     23502      7834  TIP3      H2             -3.7630966405      -39.6567422861        1.4386103535  W2        7834            0.0000000000
     23503      7835  TIP3      OH2            -2.3700366405      -38.8544722861      -16.2884596465  W2        7835            0.0000000000
     23504      7835  TIP3      H1             -2.0869966405      -39.6489522861      -15.8357696465  W2        7835            0.0000000000
     23505      7835  TIP3      H2             -1.6302466405      -38.6213722861      -16.8493496465  W2        7835            0.0000000000
     23506      7836  TIP3      OH2           -15.7566766405      -43.2885522861        1.4365703535  W2        7836            0.0000000000
     23507      7836  TIP3      H1            -15.6126266405      -44.1904822861        1.1502403535  W2        7836            0.0000000000
     23508      7836  TIP3      H2            -16.5289366405      -43.0023422861        0.9488003535  W2        7836            0.0000000000
     23509      7837  TIP3      OH2           -11.4153066405      -42.9449822861      -16.4309696465  W2        7837            0.0000000000
     23510      7837  TIP3      H1            -11.3508966405      -43.7390222861      -15.9003296465  W2        7837            0.0000000000
     23511      7837  TIP3      H2            -10.7623866405      -43.0637022861      -17.1207696465  W2        7837            0.0000000000
     23512      7838  TIP3      OH2            -9.1010666405      -43.3187422861        0.8692103535  W2        7838            0.0000000000
     23513      7838  TIP3      H1             -9.4296866405      -43.0479322861        0.0119503535  W2        7838            0.0000000000
     23514      7838  TIP3      H2             -8.9492466405      -44.2597622861        0.7817103535  W2        7838            0.0000000000
     23515      7839  TIP3      OH2            -6.0629666405      -41.8978122861      -16.6951696465  W2        7839            0.0000000000
     23516      7839  TIP3      H1             -6.3315566405      -41.7176022861      -15.7942796465  W2        7839            0.0000000000
     23517      7839  TIP3      H2             -6.2694066405      -42.8231922861      -16.8265896465  W2        7839            0.0000000000
     23518      7840  TIP3      OH2            -3.3665466405      -43.4030122861       -1.7475596465  W2        7840            0.0000000000
     23519      7840  TIP3      H1             -2.6210666405      -42.8146422861       -1.8671596465  W2        7840            0.0000000000
     23520      7840  TIP3      H2             -4.1238666405      -42.8210422861       -1.6842496465  W2        7840            0.0000000000
     23521      7841  TIP3      OH2           -14.9240266405      -46.0882222861        0.8565003535  W2        7841            0.0000000000
     23522      7841  TIP3      H1            -14.5159066405      -46.9455622861        0.7355603535  W2        7841            0.0000000000
     23523      7841  TIP3      H2            -15.1842666405      -46.0740922861        1.7775303535  W2        7841            0.0000000000
     23524      7842  TIP3      OH2           -10.2659266405      -44.9723622861      -14.1251696465  W2        7842            0.0000000000
     23525      7842  TIP3      H1            -10.7257266405      -45.4565322861      -13.4393196465  W2        7842            0.0000000000
     23526      7842  TIP3      H2            -10.0110566405      -45.6408222861      -14.7611196465  W2        7842            0.0000000000
     23527      7843  TIP3      OH2           -10.9769966405      -47.0796522861       -1.7692096465  W2        7843            0.0000000000
     23528      7843  TIP3      H1            -11.5953866405      -46.4049922861       -1.4887396465  W2        7843            0.0000000000
     23529      7843  TIP3      H2            -10.6328766405      -46.7582622861       -2.6025896465  W2        7843            0.0000000000
     23530      7844  TIP3      OH2            -9.1948866405      -46.7291822861      -15.8628496465  W2        7844            0.0000000000
     23531      7844  TIP3      H1             -9.3753866405      -46.8840622861      -16.7900196465  W2        7844            0.0000000000
     23532      7844  TIP3      H2             -8.2448366405      -46.6213122861      -15.8180596465  W2        7844            0.0000000000
     23533      7845  TIP3      OH2            -5.9571766405      -44.6081222861        1.5082703535  W2        7845            0.0000000000
     23534      7845  TIP3      H1             -5.0040566405      -44.5242122861        1.4808703535  W2        7845            0.0000000000
     23535      7845  TIP3      H2             -6.1177166405      -45.3199422861        2.1277603535  W2        7845            0.0000000000
     23536      7846  TIP3      OH2             0.1949433595      -44.3747622861      -16.4170396465  W2        7846            0.0000000000
     23537      7846  TIP3      H1             -0.0785766405      -44.7992122861      -17.2302096465  W2        7846            0.0000000000
     23538      7846  TIP3      H2              0.2343533595      -43.4433122861      -16.6339996465  W2        7846            0.0000000000
     23539      7847  TIP3      OH2           -10.6376266405      -49.7245722861       -0.6868996465  W2        7847            0.0000000000
     23540      7847  TIP3      H1            -10.4875366405      -50.4534422861       -1.2889296465  W2        7847            0.0000000000
     23541      7847  TIP3      H2            -10.6353866405      -48.9474022861       -1.2456796465  W2        7847            0.0000000000
     23542      7848  TIP3      OH2           -10.2250566405      -51.3549922861       -3.1941596465  W2        7848            0.0000000000
     23543      7848  TIP3      H1             -9.6893066405      -50.9033222861       -3.8462296465  W2        7848            0.0000000000
     23544      7848  TIP3      H2            -11.0770966405      -51.4630122861       -3.6167496465  W2        7848            0.0000000000
     23545      7849  TIP3      OH2            -8.6432166405      -45.9153722861       -2.9546396465  W2        7849            0.0000000000
     23546      7849  TIP3      H1             -7.8927366405      -46.0716222861       -3.5278596465  W2        7849            0.0000000000
     23547      7849  TIP3      H2             -8.9823866405      -45.0637122861       -3.2300896465  W2        7849            0.0000000000
     23548      7850  TIP3      OH2            -4.2275966405      -48.1001922861        2.0738903535  W2        7850            0.0000000000
     23549      7850  TIP3      H1             -4.0354666405      -49.0312522861        1.9623403535  W2        7850            0.0000000000
     23550      7850  TIP3      H2             -3.3699666405      -47.6752422861        2.0634303535  W2        7850            0.0000000000
     23551      7851  TIP3      OH2            -2.9108766405      -45.3116722861        0.1511603535  W2        7851            0.0000000000
     23552      7851  TIP3      H1             -3.1923766405      -44.6022122861       -0.4264596465  W2        7851            0.0000000000
     23553      7851  TIP3      H2             -1.9684466405      -45.3843722861        0.0002803535  W2        7851            0.0000000000
     23554      7852  TIP3      OH2           -12.1589966405      -48.5262222861        1.2246603535  W2        7852            0.0000000000
     23555      7852  TIP3      H1            -12.9260966405      -49.0587422861        1.0144203535  W2        7852            0.0000000000
     23556      7852  TIP3      H2            -11.4800966405      -48.8361822861        0.6252903535  W2        7852            0.0000000000
     23557      7853  TIP3      OH2            -9.4195066405      -53.8984222861       -2.7627996465  W2        7853            0.0000000000
     23558      7853  TIP3      H1             -9.5175466405      -52.9521022861       -2.8681796465  W2        7853            0.0000000000
     23559      7853  TIP3      H2            -10.1618866405      -54.2710422861       -3.2384496465  W2        7853            0.0000000000
     23560      7854  TIP3      OH2            -8.1554566405      -49.5768822861        0.8010403535  W2        7854            0.0000000000
     23561      7854  TIP3      H1             -8.3909166405      -49.7962122861        1.7025303535  W2        7854            0.0000000000
     23562      7854  TIP3      H2             -8.9387666405      -49.7837622861        0.2912903535  W2        7854            0.0000000000
     23563      7855  TIP3      OH2            -5.4397966405      -50.4495322861       -0.1236096465  W2        7855            0.0000000000
     23564      7855  TIP3      H1             -6.3872566405      -50.4175622861        0.0087203535  W2        7855            0.0000000000
     23565      7855  TIP3      H2             -5.1271266405      -51.0748222861        0.5302103535  W2        7855            0.0000000000
     23566      7856  TIP3      OH2            -3.8056466405      -51.8154222861        1.8815803535  W2        7856            0.0000000000
     23567      7856  TIP3      H1             -3.9024666405      -52.7676922861        1.8757703535  W2        7856            0.0000000000
     23568      7856  TIP3      H2             -4.1273366405      -51.5467422861        2.7421303535  W2        7856            0.0000000000
     23569      7857  TIP3      OH2           -13.9787166405      -50.6058422861        0.9291303535  W2        7857            0.0000000000
     23570      7857  TIP3      H1            -13.7669766405      -51.3122322861        0.3188803535  W2        7857            0.0000000000
     23571      7857  TIP3      H2            -14.0899666405      -51.0432422861        1.7732503535  W2        7857            0.0000000000
     23572      7858  TIP3      OH2            -9.1976966405      -54.6046822861       -0.0915196465  W2        7858            0.0000000000
     23573      7858  TIP3      H1             -8.4858566405      -55.2444622861       -0.1056096465  W2        7858            0.0000000000
     23574      7858  TIP3      H2             -9.2986566405      -54.3378522861       -1.0052096465  W2        7858            0.0000000000
     23575      7859  TIP3      OH2            -8.8439466405      -52.9218422861        1.9621103535  W2        7859            0.0000000000
     23576      7859  TIP3      H1             -8.9757266405      -53.3974622861        1.1419603535  W2        7859            0.0000000000
     23577      7859  TIP3      H2             -9.4432066405      -52.1774822861        1.9068203535  W2        7859            0.0000000000
     23578      7860  TIP3      OH2            -9.2977166405      -36.0388122861      -14.8614896465  W2        7860            0.0000000000
     23579      7860  TIP3      H1             -8.3646466405      -35.8809422861      -14.7176496465  W2        7860            0.0000000000
     23580      7860  TIP3      H2             -9.5618366405      -35.3635122861      -15.4863396465  W2        7860            0.0000000000
     23581      7861  TIP3      OH2           -15.7292266405      -41.4024322861      -15.3786796465  W2        7861            0.0000000000
     23582      7861  TIP3      H1            -14.8153066405      -41.3235422861      -15.1052896465  W2        7861            0.0000000000
     23583      7861  TIP3      H2            -15.7219166405      -42.0894722861      -16.0451196465  W2        7861            0.0000000000
     23584      7862  TIP3      OH2           -17.0801666405      -36.0095822861      -10.3012896465  W2        7862            0.0000000000
     23585      7862  TIP3      H1            -17.7274566405      -36.4714122861      -10.8341696465  W2        7862            0.0000000000
     23586      7862  TIP3      H2            -16.7257066405      -36.6812522861       -9.7186696465  W2        7862            0.0000000000
     23587      7863  TIP3      OH2           -16.2102466405      -37.9288822861       -8.4966696465  W2        7863            0.0000000000
     23588      7863  TIP3      H1            -16.5445666405      -38.8091522861       -8.3246496465  W2        7863            0.0000000000
     23589      7863  TIP3      H2            -15.9880066405      -37.5833822861       -7.6321096465  W2        7863            0.0000000000
     23590      7864  TIP3      OH2             1.3382333595      -37.1192422861       -5.5161896465  W2        7864            0.0000000000
     23591      7864  TIP3      H1              1.3169033595      -36.9344022861       -4.5772496465  W2        7864            0.0000000000
     23592      7864  TIP3      H2              2.0288533595      -36.5508422861       -5.8570496465  W2        7864            0.0000000000
     23593      7865  TIP3      OH2             0.9015233595      -37.5521322861       -2.5942796465  W2        7865            0.0000000000
     23594      7865  TIP3      H1              0.4143933595      -38.2877222861       -2.9655396465  W2        7865            0.0000000000
     23595      7865  TIP3      H2              1.4507933595      -37.9457422861       -1.9163396465  W2        7865            0.0000000000
     23596      7866  TIP3      OH2            -0.6477466405      -41.7623222861        2.0437503535  W2        7866            0.0000000000
     23597      7866  TIP3      H1             -1.5136366405      -41.8673522861        2.4379803535  W2        7866            0.0000000000
     23598      7866  TIP3      H2             -0.2711566405      -41.0039922861        2.4902203535  W2        7866            0.0000000000
     23599      7867  TIP3      OH2             0.6532233595      -43.5059522861      -12.4419996465  W2        7867            0.0000000000
     23600      7867  TIP3      H1              1.5033633595      -43.0848622861      -12.3148396465  W2        7867            0.0000000000
     23601      7867  TIP3      H2              0.6587333595      -44.2459422861      -11.8348596465  W2        7867            0.0000000000
     23602      7868  TIP3      OH2             1.0477833595      -45.4522122861      -10.6184296465  W2        7868            0.0000000000
     23603      7868  TIP3      H1              0.3212433595      -45.9319522861      -10.2206696465  W2        7868            0.0000000000
     23604      7868  TIP3      H2              1.6291133595      -45.2467422861       -9.8862696465  W2        7868            0.0000000000
     23605      7869  TIP3      OH2             0.8069033595      -42.6674622861       -5.6706696465  W2        7869            0.0000000000
     23606      7869  TIP3      H1              1.6403233595      -43.0454622861       -5.9513096465  W2        7869            0.0000000000
     23607      7869  TIP3      H2              0.9189333595      -41.7243422861       -5.7897596465  W2        7869            0.0000000000
     23608      7870  TIP3      OH2            -0.7068666405      -39.7897122861       -3.3638296465  W2        7870            0.0000000000
     23609      7870  TIP3      H1             -1.3543366405      -39.4645622861       -2.7383096465  W2        7870            0.0000000000
     23610      7870  TIP3      H2             -1.2244666405      -40.2299422861       -4.0379996465  W2        7870            0.0000000000
     23611      7871  TIP3      OH2             1.3160933595      -45.5513622861      -14.2272996465  W2        7871            0.0000000000
     23612      7871  TIP3      H1              0.7942033595      -45.1949522861      -14.9462096465  W2        7871            0.0000000000
     23613      7871  TIP3      H2              1.2830133595      -44.8765822861      -13.5492096465  W2        7871            0.0000000000
     23614      7872  TIP3      OH2            -0.3350066405      -48.3118022861      -15.6765896465  W2        7872            0.0000000000
     23615      7872  TIP3      H1             -0.2385666405      -47.6451022861      -16.3566196465  W2        7872            0.0000000000
     23616      7872  TIP3      H2             -0.4750466405      -49.1271722861      -16.1580396465  W2        7872            0.0000000000
     23617      7873  TIP3      OH2            -1.1655366405      -46.9315622861      -10.0555596465  W2        7873            0.0000000000
     23618      7873  TIP3      H1             -1.3156566405      -47.8767022861      -10.0757796465  W2        7873            0.0000000000
     23619      7873  TIP3      H2             -1.5190866405      -46.6504222861       -9.2116496465  W2        7873            0.0000000000
     23620      7874  TIP3      OH2           -16.1302966405      -44.8533422861       -6.0451796465  W2        7874            0.0000000000
     23621      7874  TIP3      H1            -15.9460066405      -44.9351722861       -6.9808896465  W2        7874            0.0000000000
     23622      7874  TIP3      H2            -15.2810066405      -44.9776422861       -5.6215396465  W2        7874            0.0000000000
     23623      7875  TIP3      OH2            -0.3092466405      -44.9612322861       -0.4167296465  W2        7875            0.0000000000
     23624      7875  TIP3      H1              0.2734833595      -45.6960022861       -0.2250096465  W2        7875            0.0000000000
     23625      7875  TIP3      H2              0.2546833595      -44.1892022861       -0.3701496465  W2        7875            0.0000000000
     23626      7876  TIP3      OH2             1.1874633595      -47.0586522861        0.2678103535  W2        7876            0.0000000000
     23627      7876  TIP3      H1              0.3241333595      -47.4374422861        0.1022803535  W2        7876            0.0000000000
     23628      7876  TIP3      H2              1.7918333595      -47.7971722861        0.1933903535  W2        7876            0.0000000000
     23629      7877  TIP3      OH2            -1.0876266405      -50.9038222861      -16.5590396465  W2        7877            0.0000000000
     23630      7877  TIP3      H1             -0.4770466405      -51.2751422861      -15.9222196465  W2        7877            0.0000000000
     23631      7877  TIP3      H2             -1.9244766405      -51.3251322861      -16.3630396465  W2        7877            0.0000000000
     23632      7878  TIP3      OH2            -1.4550566405      -49.3489822861      -11.5930496465  W2        7878            0.0000000000
     23633      7878  TIP3      H1             -1.1753466405      -50.2559422861      -11.4688796465  W2        7878            0.0000000000
     23634      7878  TIP3      H2             -0.6958866405      -48.9148322861      -11.9821296465  W2        7878            0.0000000000
     23635      7879  TIP3      OH2            -0.8432266405      -48.7672422861       -6.1571596465  W2        7879            0.0000000000
     23636      7879  TIP3      H1              0.0895733595      -48.5552522861       -6.1915596465  W2        7879            0.0000000000
     23637      7879  TIP3      H2             -1.0784766405      -48.6660322861       -5.2348596465  W2        7879            0.0000000000
     23638      7880  TIP3      OH2            -0.8140366405      -48.0307122861       -3.3812196465  W2        7880            0.0000000000
     23639      7880  TIP3      H1             -1.6569066405      -47.7626722861       -3.0152396465  W2        7880            0.0000000000
     23640      7880  TIP3      H2             -0.3716066405      -47.2085222861       -3.5921096465  W2        7880            0.0000000000
     23641      7881  TIP3      OH2           -16.5328166405      -49.5828422861        0.0957003535  W2        7881            0.0000000000
     23642      7881  TIP3      H1            -15.6133266405      -49.7050122861        0.3320103535  W2        7881            0.0000000000
     23643      7881  TIP3      H2            -16.9823666405      -50.3328722861        0.4850503535  W2        7881            0.0000000000
     23644      7882  TIP3      OH2             1.4691233595      -54.0506922861        1.9722803535  W2        7882            0.0000000000
     23645      7882  TIP3      H1              1.8188233595      -54.7043422861        1.3667503535  W2        7882            0.0000000000
     23646      7882  TIP3      H2              1.6160733595      -53.2132822861        1.5325403535  W2        7882            0.0000000000
     23647      7883  TIP3      OH2            -0.8415766405      -52.0860522861      -11.5448496465  W2        7883            0.0000000000
     23648      7883  TIP3      H1             -0.6590766405      -52.5349022861      -10.7193496465  W2        7883            0.0000000000
     23649      7883  TIP3      H2             -1.4412866405      -52.6706122861      -12.0083896465  W2        7883            0.0000000000
     23650      7884  TIP3      OH2           -15.3115666405      -51.2706822861       -7.0130096465  W2        7884            0.0000000000
     23651      7884  TIP3      H1            -14.8664066405      -52.0624322861       -6.7110396465  W2        7884            0.0000000000
     23652      7884  TIP3      H2            -14.8452666405      -50.5541622861       -6.5824496465  W2        7884            0.0000000000
     23653      7885  TIP3      OH2           -17.0075366405      -48.2713822861       -5.9439896465  W2        7885            0.0000000000
     23654      7885  TIP3      H1            -16.5155566405      -48.4923322861       -6.7347896465  W2        7885            0.0000000000
     23655      7885  TIP3      H2            -16.6454466405      -47.4310422861       -5.6630396465  W2        7885            0.0000000000
     23656      7886  TIP3      OH2             0.9888433595      -51.9412322861        0.3214103535  W2        7886            0.0000000000
     23657      7886  TIP3      H1              0.0714133595      -51.6705222861        0.2857603535  W2        7886            0.0000000000
     23658      7886  TIP3      H2              1.1117833595      -52.4763922861       -0.4626196465  W2        7886            0.0000000000
     23659      7887  TIP3      OH2             1.0250433595      -52.0182422861      -15.0168196465  W2        7887            0.0000000000
     23660      7887  TIP3      H1              1.4373033595      -52.7396722861      -15.4920196465  W2        7887            0.0000000000
     23661      7887  TIP3      H2              1.7066933595      -51.3487822861      -14.9583896465  W2        7887            0.0000000000
     23662      7888  TIP3      OH2           -16.6938866405      -52.0134722861      -11.8897496465  W2        7888            0.0000000000
     23663      7888  TIP3      H1            -17.6190466405      -51.8048122861      -12.0191996465  W2        7888            0.0000000000
     23664      7888  TIP3      H2            -16.2398966405      -51.5293922861      -12.5795196465  W2        7888            0.0000000000
     23665      7889  TIP3      OH2            -1.9231666405      -37.0293022861       -9.9440096465  W2        7889            0.0000000000
     23666      7889  TIP3      H1             -1.2708766405      -37.3770922861      -10.5520996465  W2        7889            0.0000000000
     23667      7889  TIP3      H2             -1.4127866405      -36.5409822861       -9.2980396465  W2        7889            0.0000000000
     23668      7890  TIP3      OH2           -16.7303466405      -53.2755722861       -3.5454996465  W2        7890            0.0000000000
     23669      7890  TIP3      H1            -17.3952966405      -53.5215422861       -2.9024096465  W2        7890            0.0000000000
     23670      7890  TIP3      H2            -17.1732166405      -52.6535322861       -4.1226996465  W2        7890            0.0000000000
     23671      7891  TIP3      OH2           -14.5384166405      -40.1001622861        0.5990803535  W2        7891            0.0000000000
     23672      7891  TIP3      H1            -15.3591666405      -39.9255122861        0.1385503535  W2        7891            0.0000000000
     23673      7891  TIP3      H2            -14.7906366405      -40.1736922861        1.5195203535  W2        7891            0.0000000000
     23674      7892  TIP3      OH2           -11.5841266405      -39.1260422861       -3.1425196465  W2        7892            0.0000000000
     23675      7892  TIP3      H1            -12.0090166405      -38.3161922861       -3.4250596465  W2        7892            0.0000000000
     23676      7892  TIP3      H2            -10.6798466405      -39.0406322861       -3.4445396465  W2        7892            0.0000000000
     23677      7893  TIP3      OH2            -7.2729866405      -37.7270422861       -0.1831496465  W2        7893            0.0000000000
     23678      7893  TIP3      H1             -7.0882366405      -38.0604322861        0.6948803535  W2        7893            0.0000000000
     23679      7893  TIP3      H2             -6.4265366405      -37.4171822861       -0.5052296465  W2        7893            0.0000000000
     23680      7894  TIP3      OH2            -4.9279466405      -36.4411522861       -0.9390096465  W2        7894            0.0000000000
     23681      7894  TIP3      H1             -4.2510566405      -37.0739222861       -1.1790896465  W2        7894            0.0000000000
     23682      7894  TIP3      H2             -4.6060666405      -36.0401022861       -0.1316796465  W2        7894            0.0000000000
     23683      7895  TIP3      OH2            -0.0105666405      -53.8516022861       -1.8595096465  W2        7895            0.0000000000
     23684      7895  TIP3      H1             -0.8232166405      -53.5265722861       -2.2470396465  W2        7895            0.0000000000
     23685      7895  TIP3      H2              0.2222833595      -54.6117522861       -2.3925996465  W2        7895            0.0000000000
     23686      7896  TIP3      OH2           -14.1824566405      -35.8696522861       -3.0949896465  W2        7896            0.0000000000
     23687      7896  TIP3      H1            -14.9028166405      -35.4295522861       -3.5462196465  W2        7896            0.0000000000
     23688      7896  TIP3      H2            -14.5480566405      -36.1201822861       -2.2465896465  W2        7896            0.0000000000
     23689      7897  TIP3      OH2           -11.7151966405      -36.2692622861       -4.0652696465  W2        7897            0.0000000000
     23690      7897  TIP3      H1            -12.5799766405      -36.1974122861       -3.6612596465  W2        7897            0.0000000000
     23691      7897  TIP3      H2            -11.7702966405      -35.7225322861       -4.8490196465  W2        7897            0.0000000000
     23692      7898  TIP3      OH2            -7.0046366405      -36.3813722861       -4.8896696465  W2        7898            0.0000000000
     23693      7898  TIP3      H1             -7.4612366405      -35.8524022861       -5.5438296465  W2        7898            0.0000000000
     23694      7898  TIP3      H2             -6.8418366405      -35.7782322861       -4.1644396465  W2        7898            0.0000000000
     23695      7899  TIP3      OH2            -4.6770066405      -37.5034122861       -3.9446396465  W2        7899            0.0000000000
     23696      7899  TIP3      H1             -5.5816366405      -37.3383922861       -4.2104296465  W2        7899            0.0000000000
     23697      7899  TIP3      H2             -4.2481466405      -36.6501922861       -4.0102996465  W2        7899            0.0000000000
     23698      7900  TIP3      OH2            -2.0728166405      -35.9335022861       -3.6498596465  W2        7900            0.0000000000
     23699      7900  TIP3      H1             -2.2546166405      -35.0176122861       -3.8603696465  W2        7900            0.0000000000
     23700      7900  TIP3      H2             -1.8960366405      -36.3437922861       -4.4963996465  W2        7900            0.0000000000
     23701      7901  TIP3      OH2           -14.7676466405      -37.2464022861       -6.1848096465  W2        7901            0.0000000000
     23702      7901  TIP3      H1            -14.7860466405      -37.6718922861       -5.3275796465  W2        7901            0.0000000000
     23703      7901  TIP3      H2            -13.9628566405      -37.5649022861       -6.5935896465  W2        7901            0.0000000000
     23704      7902  TIP3      OH2           -12.6263366405      -38.5365322861       -7.5298196465  W2        7902            0.0000000000
     23705      7902  TIP3      H1            -12.8452666405      -39.4527922861       -7.3602196465  W2        7902            0.0000000000
     23706      7902  TIP3      H2            -11.8021166405      -38.3964922861       -7.0636796465  W2        7902            0.0000000000
     23707      7903  TIP3      OH2           -10.0890866405      -38.0666022861       -6.6810196465  W2        7903            0.0000000000
     23708      7903  TIP3      H1             -9.8765166405      -38.9547022861       -6.9679296465  W2        7903            0.0000000000
     23709      7903  TIP3      H2            -10.0245766405      -38.1008322861       -5.7266196465  W2        7903            0.0000000000
     23710      7904  TIP3      OH2            -6.5807166405      -52.4025422861       -7.5366896465  W2        7904            0.0000000000
     23711      7904  TIP3      H1             -7.2550366405      -53.0319822861       -7.2811096465  W2        7904            0.0000000000
     23712      7904  TIP3      H2             -6.0167966405      -52.8866522861       -8.1398996465  W2        7904            0.0000000000
     23713      7905  TIP3      OH2            -1.4379966405      -54.2951422861       -7.4239796465  W2        7905            0.0000000000
     23714      7905  TIP3      H1             -0.8342366405      -53.7476022861       -7.9258796465  W2        7905            0.0000000000
     23715      7905  TIP3      H2             -2.3077966405      -53.9761022861       -7.6645696465  W2        7905            0.0000000000
     23716      7906  TIP3      OH2             0.2890433595      -53.1562722861       -9.0908896465  W2        7906            0.0000000000
     23717      7906  TIP3      H1              0.9007933595      -53.6707022861       -9.6175296465  W2        7906            0.0000000000
     23718      7906  TIP3      H2              0.6713833595      -52.2790622861       -9.0674496465  W2        7906            0.0000000000
     23719      7907  TIP3      OH2           -14.2539666405      -53.7685122861       -9.7146996465  W2        7907            0.0000000000
     23720      7907  TIP3      H1            -15.0309866405      -54.0030222861      -10.2221096465  W2        7907            0.0000000000
     23721      7907  TIP3      H2            -13.7236066405      -54.5653022861       -9.7058996465  W2        7907            0.0000000000
     23722      7908  TIP3      OH2           -15.4176266405      -53.9707022861      -13.9110896465  W2        7908            0.0000000000
     23723      7908  TIP3      H1            -14.9785566405      -53.3596522861      -14.5027396465  W2        7908            0.0000000000
     23724      7908  TIP3      H2            -16.0513866405      -53.4322922861      -13.4370896465  W2        7908            0.0000000000
     23725      7909  TIP3      OH2            -9.6747066405      -53.8418022861       -9.9013896465  W2        7909            0.0000000000
     23726      7909  TIP3      H1             -8.8003666405      -53.4533722861       -9.9309596465  W2        7909            0.0000000000
     23727      7909  TIP3      H2             -9.8106266405      -54.0570222861       -8.9786696465  W2        7909            0.0000000000
     23728      7910  TIP3      OH2            -4.1178666405      -53.8118222861       -8.2522196465  W2        7910            0.0000000000
     23729      7910  TIP3      H1             -4.0417066405      -53.7166622861       -9.2016196465  W2        7910            0.0000000000
     23730      7910  TIP3      H2             -4.3929466405      -54.7195322861       -8.1233096465  W2        7910            0.0000000000
     23731      7911  TIP3      OH2            -2.7646066405      -53.7860422861      -12.5597196465  W2        7911            0.0000000000
     23732      7911  TIP3      H1             -3.4674966405      -53.1711222861      -12.7695796465  W2        7911            0.0000000000
     23733      7911  TIP3      H2             -3.2094666405      -54.6233722861      -12.4286296465  W2        7911            0.0000000000
     23734      7912  TIP3      OH2           -15.5166766405      -38.0224822861      -13.0135796465  W2        7912            0.0000000000
     23735      7912  TIP3      H1            -16.2016866405      -38.0605922861      -13.6810696465  W2        7912            0.0000000000
     23736      7912  TIP3      H2            -15.5129566405      -37.1097222861      -12.7253696465  W2        7912            0.0000000000
     23737      7913  TIP3      OH2           -13.5567166405      -52.0545522861      -15.4686796465  W2        7913            0.0000000000
     23738      7913  TIP3      H1            -13.0653766405      -52.6843122861      -15.9961296465  W2        7913            0.0000000000
     23739      7913  TIP3      H2            -12.9330866405      -51.7586122861      -14.8055596465  W2        7913            0.0000000000
     23740      7914  TIP3      OH2            -8.5307066405      -51.7614022861      -13.0116296465  W2        7914            0.0000000000
     23741      7914  TIP3      H1             -8.3525766405      -52.4080822861      -12.3287696465  W2        7914            0.0000000000
     23742      7914  TIP3      H2             -8.5840866405      -50.9276322861      -12.5445196465  W2        7914            0.0000000000
     23743      7915  TIP3      OH2            -6.6523266405      -36.8129922861      -14.6159596465  W2        7915            0.0000000000
     23744      7915  TIP3      H1             -5.7863066405      -36.4462522861      -14.7941396465  W2        7915            0.0000000000
     23745      7915  TIP3      H2             -6.8990466405      -37.2521922861      -15.4298796465  W2        7915            0.0000000000
     23746      7916  TIP3      OH2             0.0566333595      -37.2499622861      -11.9368496465  W2        7916            0.0000000000
     23747      7916  TIP3      H1             -0.1376566405      -37.9977522861      -12.5018896465  W2        7916            0.0000000000
     23748      7916  TIP3      H2              0.0176433595      -36.4919522861      -12.5200596465  W2        7916            0.0000000000
     23749      7917  TIP3      OH2           -14.2961666405      -53.2543222861       -0.1970796465  W2        7917            0.0000000000
     23750      7917  TIP3      H1            -14.6623466405      -54.0200622861        0.2453903535  W2        7917            0.0000000000
     23751      7917  TIP3      H2            -13.3833166405      -53.2253022861        0.0894303535  W2        7917            0.0000000000
     23752      7918  TIP3      OH2           -12.3230866405      -53.9038822861        1.3386303535  W2        7918            0.0000000000
     23753      7918  TIP3      H1            -11.4247266405      -54.1778622861        1.1539703535  W2        7918            0.0000000000
     23754      7918  TIP3      H2            -12.7097766405      -54.6462822861        1.8028903535  W2        7918            0.0000000000
     23755      7919  TIP3      OH2           -13.6985566405      -37.1024022861      -15.9883696465  W2        7919            0.0000000000
     23756      7919  TIP3      H1            -13.9660966405      -36.8161122861      -15.1150596465  W2        7919            0.0000000000
     23757      7919  TIP3      H2            -12.9272966405      -37.6484822861      -15.8361196465  W2        7919            0.0000000000
     23758      7920  TIP3      OH2            -3.9018566405      -54.5713522861        1.5209103535  W2        7920            0.0000000000
     23759      7920  TIP3      H1             -3.8251366405      -54.9972822861        2.3746803535  W2        7920            0.0000000000
     23760      7920  TIP3      H2             -3.0081966405      -54.5578822861        1.1782603535  W2        7920            0.0000000000
     23761      7921  TIP3      OH2            -0.7257466405      -38.4987222861        0.2133303535  W2        7921            0.0000000000
     23762      7921  TIP3      H1             -1.5075566405      -38.6849222861       -0.3066096465  W2        7921            0.0000000000
     23763      7921  TIP3      H2             -0.7977566405      -37.5692922861        0.4305803535  W2        7921            0.0000000000
     23764      7922  TIP3      OH2            13.6802933595      -44.6122822861       -9.7559496465  W2        7922            0.0000000000
     23765      7922  TIP3      H1             13.7694033595      -43.6684622861       -9.8882396465  W2        7922            0.0000000000
     23766      7922  TIP3      H2             13.0420533595      -44.8876422861      -10.4140096465  W2        7922            0.0000000000
     23767      7923  TIP3      OH2            12.6134233595      -45.3572122861       -6.3371296465  W2        7923            0.0000000000
     23768      7923  TIP3      H1             12.5751733595      -46.0035822861       -5.6321696465  W2        7923            0.0000000000
     23769      7923  TIP3      H2             12.2910733595      -45.8237722861       -7.1082596465  W2        7923            0.0000000000
     23770      7924  TIP3      OH2             4.9819233595      -45.7430022861       -4.7441396465  W2        7924            0.0000000000
     23771      7924  TIP3      H1              5.0231333595      -46.3686722861       -4.0208996465  W2        7924            0.0000000000
     23772      7924  TIP3      H2              5.6846933595      -45.1191422861       -4.5620996465  W2        7924            0.0000000000
     23773      7925  TIP3      OH2            16.3194433595      -42.4181722861       -8.0356196465  W2        7925            0.0000000000
     23774      7925  TIP3      H1             15.8787133595      -43.1385722861       -7.5850596465  W2        7925            0.0000000000
     23775      7925  TIP3      H2             16.3064133595      -41.6974522861       -7.4058496465  W2        7925            0.0000000000
     23776      7926  TIP3      OH2             5.9052333595      -41.2931122861       -6.2092296465  W2        7926            0.0000000000
     23777      7926  TIP3      H1              5.5357533595      -42.0950622861       -6.5787996465  W2        7926            0.0000000000
     23778      7926  TIP3      H2              6.8463433595      -41.4616222861       -6.1628896465  W2        7926            0.0000000000
     23779      7927  TIP3      OH2             2.5152833595      -47.6328522861      -10.8163496465  W2        7927            0.0000000000
     23780      7927  TIP3      H1              2.0676233595      -46.7869822861      -10.8346996465  W2        7927            0.0000000000
     23781      7927  TIP3      H2              1.9544033595      -48.2124322861      -11.3318396465  W2        7927            0.0000000000
     23782      7928  TIP3      OH2             3.2258933595      -45.4708922861       -8.6905496465  W2        7928            0.0000000000
     23783      7928  TIP3      H1              3.4392433595      -46.2407322861       -8.1632496465  W2        7928            0.0000000000
     23784      7928  TIP3      H2              3.9636533595      -45.3812222861       -9.2937896465  W2        7928            0.0000000000
     23785      7929  TIP3      OH2            13.4309933595      -37.3140022861       -7.8235796465  W2        7929            0.0000000000
     23786      7929  TIP3      H1             14.0506333595      -37.9905322861       -8.0966596465  W2        7929            0.0000000000
     23787      7929  TIP3      H2             13.2227333595      -37.5319222861       -6.9150896465  W2        7929            0.0000000000
     23788      7930  TIP3      OH2            11.0028633595      -42.9250722861       -5.9310296465  W2        7930            0.0000000000
     23789      7930  TIP3      H1             11.3066533595      -43.6109322861       -6.5256196465  W2        7930            0.0000000000
     23790      7930  TIP3      H2             11.7242633595      -42.8062022861       -5.3132296465  W2        7930            0.0000000000
     23791      7931  TIP3      OH2            19.6658433595      -51.3235422861       -5.0704096465  W2        7931            0.0000000000
     23792      7931  TIP3      H1             19.7150633595      -50.7134222861       -4.3344996465  W2        7931            0.0000000000
     23793      7931  TIP3      H2             20.0913533595      -50.8624522861       -5.7932996465  W2        7931            0.0000000000
     23794      7932  TIP3      OH2            14.1435633595      -48.5308322861       -5.6035496465  W2        7932            0.0000000000
     23795      7932  TIP3      H1             14.2861533595      -49.4771322861       -5.5833896465  W2        7932            0.0000000000
     23796      7932  TIP3      H2             14.0374633595      -48.3238522861       -6.5320596465  W2        7932            0.0000000000
     23797      7933  TIP3      OH2             7.2983933595      -50.4291922861       -8.3310696465  W2        7933            0.0000000000
     23798      7933  TIP3      H1              7.3415033595      -49.5693422861       -8.7494396465  W2        7933            0.0000000000
     23799      7933  TIP3      H2              6.8408033595      -50.9817222861       -8.9647496465  W2        7933            0.0000000000
     23800      7934  TIP3      OH2            15.0206633595      -50.2986322861       -9.9302396465  W2        7934            0.0000000000
     23801      7934  TIP3      H1             15.6670933595      -50.6273122861       -9.3054796465  W2        7934            0.0000000000
     23802      7934  TIP3      H2             15.5306033595      -49.7807322861      -10.5530996465  W2        7934            0.0000000000
     23803      7935  TIP3      OH2             3.9185433595      -48.0326122861       -7.5689296465  W2        7935            0.0000000000
     23804      7935  TIP3      H1              4.5722033595      -48.5824422861       -7.1369196465  W2        7935            0.0000000000
     23805      7935  TIP3      H2              3.9424733595      -48.3067122861       -8.4857296465  W2        7935            0.0000000000
     23806      7936  TIP3      OH2             9.0749933595      -46.4824822861       -8.3537796465  W2        7936            0.0000000000
     23807      7936  TIP3      H1              9.6910933595      -47.0089422861       -7.8443796465  W2        7936            0.0000000000
     23808      7936  TIP3      H2              8.4888733595      -47.1226122861       -8.7574196465  W2        7936            0.0000000000
     23809      7937  TIP3      OH2            20.0573033595      -49.8456222861       -2.8344296465  W2        7937            0.0000000000
     23810      7937  TIP3      H1             19.3687633595      -49.1875522861       -2.9297696465  W2        7937            0.0000000000
     23811      7937  TIP3      H2             20.0727633595      -50.0428322861       -1.8978896465  W2        7937            0.0000000000
     23812      7938  TIP3      OH2             6.1085833595      -51.5113522861       -4.2569896465  W2        7938            0.0000000000
     23813      7938  TIP3      H1              5.8897533595      -50.9812922861       -5.0233896465  W2        7938            0.0000000000
     23814      7938  TIP3      H2              5.4406733595      -51.2848022861       -3.6098496465  W2        7938            0.0000000000
     23815      7939  TIP3      OH2            13.4775633595      -42.0112422861      -10.7130796465  W2        7939            0.0000000000
     23816      7939  TIP3      H1             13.1820733595      -42.3340122861      -11.5643896465  W2        7939            0.0000000000
     23817      7939  TIP3      H2             13.1533433595      -41.1115722861      -10.6718196465  W2        7939            0.0000000000
     23818      7940  TIP3      OH2             8.6777233595      -43.8357822861       -3.9696196465  W2        7940            0.0000000000
     23819      7940  TIP3      H1              7.9376333595      -43.2376322861       -3.8660996465  W2        7940            0.0000000000
     23820      7940  TIP3      H2              9.3916733595      -43.2818222861       -4.2852596465  W2        7940            0.0000000000
     23821      7941  TIP3      OH2            16.7845033595      -51.0077022861       -7.9496496465  W2        7941            0.0000000000
     23822      7941  TIP3      H1             16.5693033595      -51.7733622861       -7.4170496465  W2        7941            0.0000000000
     23823      7941  TIP3      H2             17.4402433595      -50.5352422861       -7.4367996465  W2        7941            0.0000000000
     23824      7942  TIP3      OH2             5.7023133595      -49.6191722861       -6.3047696465  W2        7942            0.0000000000
     23825      7942  TIP3      H1              6.3159433595      -48.9864122861       -5.9315296465  W2        7942            0.0000000000
     23826      7942  TIP3      H2              6.2143833595      -50.0916722861       -6.9610796465  W2        7942            0.0000000000
     23827      7943  TIP3      OH2             7.0851533595      -41.8714822861       -3.1824696465  W2        7943            0.0000000000
     23828      7943  TIP3      H1              7.0799133595      -40.9921322861       -3.5605396465  W2        7943            0.0000000000
     23829      7943  TIP3      H2              6.2315633595      -41.9550722861       -2.7574796465  W2        7943            0.0000000000
     23830      7944  TIP3      OH2             3.2062433595      -42.2006922861      -12.4005396465  W2        7944            0.0000000000
     23831      7944  TIP3      H1              2.9343333595      -41.9715922861      -13.2892496465  W2        7944            0.0000000000
     23832      7944  TIP3      H2              3.2518133595      -41.3628122861      -11.9400096465  W2        7944            0.0000000000
     23833      7945  TIP3      OH2            16.8312133595      -40.5791022861       -5.6876896465  W2        7945            0.0000000000
     23834      7945  TIP3      H1             15.8895833595      -40.5207122861       -5.5259996465  W2        7945            0.0000000000
     23835      7945  TIP3      H2             17.1078233595      -39.6730522861       -5.8247196465  W2        7945            0.0000000000
     23836      7946  TIP3      OH2            17.1319133595      -52.2925722861       -4.2702996465  W2        7946            0.0000000000
     23837      7946  TIP3      H1             16.3958333595      -51.6818622861       -4.3081696465  W2        7946            0.0000000000
     23838      7946  TIP3      H2             17.8153133595      -51.8776722861       -4.7966596465  W2        7946            0.0000000000
     23839      7947  TIP3      OH2            10.1350533595      -54.2058422861       -6.8044996465  W2        7947            0.0000000000
     23840      7947  TIP3      H1             10.0174733595      -55.1542422861       -6.8586696465  W2        7947            0.0000000000
     23841      7947  TIP3      H2              9.2800633595      -53.8732322861       -6.5313896465  W2        7947            0.0000000000
     23842      7948  TIP3      OH2            15.0833333595      -38.7977522861       -9.0625296465  W2        7948            0.0000000000
     23843      7948  TIP3      H1             15.5085633595      -39.5049622861       -9.5475696465  W2        7948            0.0000000000
     23844      7948  TIP3      H2             15.4003333595      -37.9964822861       -9.4793096465  W2        7948            0.0000000000
     23845      7949  TIP3      OH2            16.2429833595      -40.8969022861      -10.5538696465  W2        7949            0.0000000000
     23846      7949  TIP3      H1             15.9854633595      -41.5868922861      -11.1652796465  W2        7949            0.0000000000
     23847      7949  TIP3      H2             16.3140633595      -41.3397822861       -9.7082796465  W2        7949            0.0000000000
     23848      7950  TIP3      OH2            17.9290033595      -42.3302322861       -2.0765196465  W2        7950            0.0000000000
     23849      7950  TIP3      H1             18.0686333595      -42.9219822861       -2.8158196465  W2        7950            0.0000000000
     23850      7950  TIP3      H2             18.0962833595      -41.4576422861       -2.4326396465  W2        7950            0.0000000000
     23851      7951  TIP3      OH2            12.4015433595      -45.3682822861      -12.3039196465  W2        7951            0.0000000000
     23852      7951  TIP3      H1             11.6900933595      -44.8333122861      -12.6558696465  W2        7951            0.0000000000
     23853      7951  TIP3      H2             13.0925033595      -45.3130722861      -12.9640296465  W2        7951            0.0000000000
     23854      7952  TIP3      OH2            12.4554633595      -46.9108522861      -15.2654196465  W2        7952            0.0000000000
     23855      7952  TIP3      H1             13.1564533595      -46.8881622861      -14.6140196465  W2        7952            0.0000000000
     23856      7952  TIP3      H2             12.7577533595      -47.5388822861      -15.9214896465  W2        7952            0.0000000000
     23857      7953  TIP3      OH2            19.7709333595      -45.9904322861       -4.0104796465  W2        7953            0.0000000000
     23858      7953  TIP3      H1             19.1183433595      -45.2958722861       -3.9213896465  W2        7953            0.0000000000
     23859      7953  TIP3      H2             20.2359633595      -45.7803422861       -4.8203196465  W2        7953            0.0000000000
     23860      7954  TIP3      OH2            15.8073133595      -45.1589522861      -11.3523296465  W2        7954            0.0000000000
     23861      7954  TIP3      H1             15.0754133595      -44.9305822861      -10.7792696465  W2        7954            0.0000000000
     23862      7954  TIP3      H2             16.2545333595      -45.8726822861      -10.8975796465  W2        7954            0.0000000000
     23863      7955  TIP3      OH2            15.7046633595      -46.9846922861       -2.2846296465  W2        7955            0.0000000000
     23864      7955  TIP3      H1             15.7845733595      -46.2212522861       -1.7127796465  W2        7955            0.0000000000
     23865      7955  TIP3      H2             15.1034333595      -46.7054522861       -2.9751196465  W2        7955            0.0000000000
     23866      7956  TIP3      OH2             7.4526833595      -44.5283322861       -9.4698296465  W2        7956            0.0000000000
     23867      7956  TIP3      H1              7.1222033595      -44.8989922861      -10.2881296465  W2        7956            0.0000000000
     23868      7956  TIP3      H2              8.0410933595      -45.1989322861       -9.1229996465  W2        7956            0.0000000000
     23869      7957  TIP3      OH2             8.8194333595      -41.1002722861       -6.7886096465  W2        7957            0.0000000000
     23870      7957  TIP3      H1              8.7245633595      -41.6789622861       -7.5451496465  W2        7957            0.0000000000
     23871      7957  TIP3      H2              9.5487933595      -41.4717022861       -6.2923296465  W2        7957            0.0000000000
     23872      7958  TIP3      OH2             7.8192333595      -45.7597722861       -5.8363296465  W2        7958            0.0000000000
     23873      7958  TIP3      H1              8.3844833595      -45.6383522861       -6.5992096465  W2        7958            0.0000000000
     23874      7958  TIP3      H2              8.1381233595      -45.1222722861       -5.1974796465  W2        7958            0.0000000000
     23875      7959  TIP3      OH2            14.1284533595      -40.2565822861       -5.1022796465  W2        7959            0.0000000000
     23876      7959  TIP3      H1             13.8881133595      -39.5942722861       -4.4543596465  W2        7959            0.0000000000
     23877      7959  TIP3      H2             13.9302733595      -41.0910622861       -4.6773196465  W2        7959            0.0000000000
     23878      7960  TIP3      OH2             8.6993033595      -41.3605022861       -1.1191396465  W2        7960            0.0000000000
     23879      7960  TIP3      H1              8.3880533595      -40.5781822861       -0.6638196465  W2        7960            0.0000000000
     23880      7960  TIP3      H2              8.0493233595      -41.5135922861       -1.8049396465  W2        7960            0.0000000000
     23881      7961  TIP3      OH2            14.6782633595      -45.9966622861      -13.6672096465  W2        7961            0.0000000000
     23882      7961  TIP3      H1             15.2578133595      -45.8466322861      -12.9203196465  W2        7961            0.0000000000
     23883      7961  TIP3      H2             15.0922633595      -45.5259222861      -14.3905696465  W2        7961            0.0000000000
     23884      7962  TIP3      OH2             5.6192933595      -45.1623922861       -1.8905696465  W2        7962            0.0000000000
     23885      7962  TIP3      H1              5.6896133595      -44.5117122861       -1.1920696465  W2        7962            0.0000000000
     23886      7962  TIP3      H2              4.7285133595      -45.0596422861       -2.2254796465  W2        7962            0.0000000000
     23887      7963  TIP3      OH2            12.4047533595      -39.2598122861      -10.2318996465  W2        7963            0.0000000000
     23888      7963  TIP3      H1             12.8785133595      -38.9641822861       -9.4544796465  W2        7963            0.0000000000
     23889      7963  TIP3      H2             11.8416833595      -38.5216522861      -10.4649396465  W2        7963            0.0000000000
     23890      7964  TIP3      OH2             6.9388933595      -39.2890022861       -0.3557596465  W2        7964            0.0000000000
     23891      7964  TIP3      H1              6.9464233595      -39.4250322861       -1.3032096465  W2        7964            0.0000000000
     23892      7964  TIP3      H2              6.0229333595      -39.4061922861       -0.1037596465  W2        7964            0.0000000000
     23893      7965  TIP3      OH2            18.3771033595      -54.2466222861      -13.8542396465  W2        7965            0.0000000000
     23894      7965  TIP3      H1             17.4771733595      -54.1077222861      -13.5591796465  W2        7965            0.0000000000
     23895      7965  TIP3      H2             18.6289433595      -53.4151622861      -14.2560696465  W2        7965            0.0000000000
     23896      7966  TIP3      OH2             6.4429533595      -45.4589022861      -11.8805496465  W2        7966            0.0000000000
     23897      7966  TIP3      H1              6.1510833595      -44.6907322861      -12.3714196465  W2        7966            0.0000000000
     23898      7966  TIP3      H2              5.7684733595      -46.1182822861      -12.0434096465  W2        7966            0.0000000000
     23899      7967  TIP3      OH2            19.5662433595      -39.8803822861      -15.4778496465  W2        7967            0.0000000000
     23900      7967  TIP3      H1             19.6395933595      -38.9413622861      -15.3073196465  W2        7967            0.0000000000
     23901      7967  TIP3      H2             20.4717533595      -40.1855222861      -15.5341196465  W2        7967            0.0000000000
     23902      7968  TIP3      OH2             2.5359633595      -43.0959822861       -3.0655696465  W2        7968            0.0000000000
     23903      7968  TIP3      H1              2.0348033595      -43.1240422861       -3.8805996465  W2        7968            0.0000000000
     23904      7968  TIP3      H2              2.5413333595      -44.0016622861       -2.7558396465  W2        7968            0.0000000000
     23905      7969  TIP3      OH2             2.2862333595      -40.3156022861       -6.1815496465  W2        7969            0.0000000000
     23906      7969  TIP3      H1              3.2322933595      -40.4599022861       -6.2005996465  W2        7969            0.0000000000
     23907      7969  TIP3      H2              2.1738633595      -39.5313222861       -5.6444296465  W2        7969            0.0000000000
     23908      7970  TIP3      OH2            20.4840833595      -39.6496322861       -0.4991796465  W2        7970            0.0000000000
     23909      7970  TIP3      H1             20.4347633595      -40.6048222861       -0.5364196465  W2        7970            0.0000000000
     23910      7970  TIP3      H2             19.6573133595      -39.3821022861       -0.0977996465  W2        7970            0.0000000000
     23911      7971  TIP3      OH2            11.4624833595      -40.0757122861       -1.6230396465  W2        7971            0.0000000000
     23912      7971  TIP3      H1             11.5499433595      -39.2492522861       -1.1481296465  W2        7971            0.0000000000
     23913      7971  TIP3      H2             10.5989933595      -40.4053322861       -1.3741096465  W2        7971            0.0000000000
     23914      7972  TIP3      OH2            11.8770633595      -36.3033422861      -11.8169796465  W2        7972            0.0000000000
     23915      7972  TIP3      H1             11.8016633595      -36.4246222861      -12.7634596465  W2        7972            0.0000000000
     23916      7972  TIP3      H2             11.9099333595      -35.3540722861      -11.6985196465  W2        7972            0.0000000000
     23917      7973  TIP3      OH2             5.5304433595      -37.5146422861      -10.0360796465  W2        7973            0.0000000000
     23918      7973  TIP3      H1              5.6824833595      -37.8626022861       -9.1574296465  W2        7973            0.0000000000
     23919      7973  TIP3      H2              4.6794833595      -37.8709122861      -10.2913596465  W2        7973            0.0000000000
     23920      7974  TIP3      OH2            14.9786633595      -37.1493222861      -14.8147396465  W2        7974            0.0000000000
     23921      7974  TIP3      H1             15.3535033595      -37.8937122861      -15.2854796465  W2        7974            0.0000000000
     23922      7974  TIP3      H2             14.9830333595      -37.4192622861      -13.8964096465  W2        7974            0.0000000000
     23923      7975  TIP3      OH2            14.6474733595      -37.2236122861      -12.0655196465  W2        7975            0.0000000000
     23924      7975  TIP3      H1             13.7124533595      -37.1234222861      -11.8868196465  W2        7975            0.0000000000
     23925      7975  TIP3      H2             14.9276633595      -37.9330122861      -11.4871996465  W2        7975            0.0000000000
     23926      7976  TIP3      OH2            17.6360633595      -48.1563822861       -0.0189596465  W2        7976            0.0000000000
     23927      7976  TIP3      H1             17.2287433595      -47.6758222861       -0.7396296465  W2        7976            0.0000000000
     23928      7976  TIP3      H2             17.6766333595      -49.0617822861       -0.3268796465  W2        7976            0.0000000000
     23929      7977  TIP3      OH2             4.7850133595      -41.7724422861       -2.0222896465  W2        7977            0.0000000000
     23930      7977  TIP3      H1              5.0011433595      -42.1338822861       -1.1627096465  W2        7977            0.0000000000
     23931      7977  TIP3      H2              3.9294833595      -42.1470622861       -2.2319396465  W2        7977            0.0000000000
     23932      7978  TIP3      OH2             7.4038133595      -53.3023922861       -6.0268696465  W2        7978            0.0000000000
     23933      7978  TIP3      H1              6.5421833595      -53.3895722861       -6.4345796465  W2        7978            0.0000000000
     23934      7978  TIP3      H2              7.3813833595      -52.4463822861       -5.5991096465  W2        7978            0.0000000000
     23935      7979  TIP3      OH2            12.0665933595      -53.5803522861       -2.6521696465  W2        7979            0.0000000000
     23936      7979  TIP3      H1             12.4869033595      -53.9956422861       -1.8991096465  W2        7979            0.0000000000
     23937      7979  TIP3      H2             11.1335533595      -53.7590222861       -2.5349696465  W2        7979            0.0000000000
     23938      7980  TIP3      OH2            15.3930833595      -49.8248322861       -1.7987196465  W2        7980            0.0000000000
     23939      7980  TIP3      H1             14.8790333595      -49.9506122861       -1.0011196465  W2        7980            0.0000000000
     23940      7980  TIP3      H2             15.2375533595      -48.9125222861       -2.0430996465  W2        7980            0.0000000000
     23941      7981  TIP3      OH2            16.1555733595      -44.9638322861      -16.0374196465  W2        7981            0.0000000000
     23942      7981  TIP3      H1             16.1976533595      -45.1864422861      -16.9674196465  W2        7981            0.0000000000
     23943      7981  TIP3      H2             17.0047833595      -44.5651222861      -15.8474296465  W2        7981            0.0000000000
     23944      7982  TIP3      OH2            11.7283233595      -51.0880122861      -15.3670896465  W2        7982            0.0000000000
     23945      7982  TIP3      H1             11.4748033595      -51.0688522861      -14.4442796465  W2        7982            0.0000000000
     23946      7982  TIP3      H2             11.4715333595      -51.9594722861      -15.6684696465  W2        7982            0.0000000000
     23947      7983  TIP3      OH2             7.4948233595      -48.3369422861       -4.9318496465  W2        7983            0.0000000000
     23948      7983  TIP3      H1              6.8530333595      -48.3772122861       -4.2228396465  W2        7983            0.0000000000
     23949      7983  TIP3      H2              7.5320233595      -47.4104722861       -5.1695496465  W2        7983            0.0000000000
     23950      7984  TIP3      OH2             7.4917333595      -48.1159322861      -10.0198496465  W2        7984            0.0000000000
     23951      7984  TIP3      H1              6.5990233595      -48.4563222861      -10.0784696465  W2        7984            0.0000000000
     23952      7984  TIP3      H2              7.9423933595      -48.4928422861      -10.7755296465  W2        7984            0.0000000000
     23953      7985  TIP3      OH2            13.0272833595      -47.6999022861      -11.2027696465  W2        7985            0.0000000000
     23954      7985  TIP3      H1             12.6183133595      -46.8850422861      -11.4942896465  W2        7985            0.0000000000
     23955      7985  TIP3      H2             13.7479033595      -47.8398922861      -11.8170596465  W2        7985            0.0000000000
     23956      7986  TIP3      OH2            12.1294433595      -47.5242622861        0.2853003535  W2        7986            0.0000000000
     23957      7986  TIP3      H1             11.5668233595      -48.2291022861        0.6060803535  W2        7986            0.0000000000
     23958      7986  TIP3      H2             12.9557833595      -47.6450722861        0.7530603535  W2        7986            0.0000000000
     23959      7987  TIP3      OH2            14.0320533595      -48.2538622861       -8.3887996465  W2        7987            0.0000000000
     23960      7987  TIP3      H1             13.8365033595      -47.6481822861       -9.1037396465  W2        7987            0.0000000000
     23961      7987  TIP3      H2             14.2133133595      -49.0873422861       -8.8231696465  W2        7987            0.0000000000
     23962      7988  TIP3      OH2             5.2448733595      -48.0165922861       -3.0646496465  W2        7988            0.0000000000
     23963      7988  TIP3      H1              5.2068133595      -47.6164322861       -2.1959396465  W2        7988            0.0000000000
     23964      7988  TIP3      H2              4.7539833595      -48.8333522861       -2.9743596465  W2        7988            0.0000000000
     23965      7989  TIP3      OH2             8.6106133595      -50.6423622861      -16.2660496465  W2        7989            0.0000000000
     23966      7989  TIP3      H1              8.1796833595      -51.0873522861      -15.5363096465  W2        7989            0.0000000000
     23967      7989  TIP3      H2              7.8924833595      -50.2707322861      -16.7782996465  W2        7989            0.0000000000
     23968      7990  TIP3      OH2             1.8529533595      -50.9004122861       -9.2141796465  W2        7990            0.0000000000
     23969      7990  TIP3      H1              2.4837233595      -50.9292022861       -8.4947896465  W2        7990            0.0000000000
     23970      7990  TIP3      H2              2.3023833595      -51.3255422861       -9.9445896465  W2        7990            0.0000000000
     23971      7991  TIP3      OH2             3.1271633595      -50.1542122861      -13.7901396465  W2        7991            0.0000000000
     23972      7991  TIP3      H1              3.6013333595      -49.5632222861      -14.3750496465  W2        7991            0.0000000000
     23973      7991  TIP3      H2              2.4098033595      -49.6239222861      -13.4431296465  W2        7991            0.0000000000
     23974      7992  TIP3      OH2            13.2959733595      -46.6157322861       -3.7175596465  W2        7992            0.0000000000
     23975      7992  TIP3      H1             13.6194533595      -47.2467622861       -4.3605096465  W2        7992            0.0000000000
     23976      7992  TIP3      H2             12.8559033595      -47.1505122861       -3.0568196465  W2        7992            0.0000000000
     23977      7993  TIP3      OH2            10.0732633595      -50.6881822861       -8.9334396465  W2        7993            0.0000000000
     23978      7993  TIP3      H1              9.1623733595      -50.6315022861       -8.6448396465  W2        7993            0.0000000000
     23979      7993  TIP3      H2             10.5785533595      -50.7486322861       -8.1227196465  W2        7993            0.0000000000
     23980      7994  TIP3      OH2             4.9016033595      -49.0595522861      -10.1066796465  W2        7994            0.0000000000
     23981      7994  TIP3      H1              4.0124033595      -48.9600022861      -10.4467196465  W2        7994            0.0000000000
     23982      7994  TIP3      H2              5.1980933595      -49.9012522861      -10.4528896465  W2        7994            0.0000000000
     23983      7995  TIP3      OH2             8.5547833595      -49.0592922861      -12.4502196465  W2        7995            0.0000000000
     23984      7995  TIP3      H1              9.4863333595      -48.9302922861      -12.2719096465  W2        7995            0.0000000000
     23985      7995  TIP3      H2              8.3398133595      -48.3898622861      -13.0997496465  W2        7995            0.0000000000
     23986      7996  TIP3      OH2            14.4784533595      -51.4535522861       -5.6692596465  W2        7996            0.0000000000
     23987      7996  TIP3      H1             13.8016133595      -51.3222422861       -5.0052896465  W2        7996            0.0000000000
     23988      7996  TIP3      H2             13.9929433595      -51.6086022861       -6.4794896465  W2        7996            0.0000000000
     23989      7997  TIP3      OH2             7.2288033595      -47.8650722861      -14.8836096465  W2        7997            0.0000000000
     23990      7997  TIP3      H1              6.6863133595      -48.2446922861      -15.5748496465  W2        7997            0.0000000000
     23991      7997  TIP3      H2              8.0622933595      -47.6706022861      -15.3121996465  W2        7997            0.0000000000
     23992      7998  TIP3      OH2            17.7659633595      -35.7820122861        0.6075003535  W2        7998            0.0000000000
     23993      7998  TIP3      H1             17.9658333595      -35.3578222861       -0.2269696465  W2        7998            0.0000000000
     23994      7998  TIP3      H2             18.4213333595      -35.4381922861        1.2145403535  W2        7998            0.0000000000
     23995      7999  TIP3      OH2             5.3639433595      -43.3078822861        0.2155503535  W2        7999            0.0000000000
     23996      7999  TIP3      H1              6.0961833595      -43.0532922861        0.7770003535  W2        7999            0.0000000000
     23997      7999  TIP3      H2              4.5838133595      -43.1033422861        0.7310903535  W2        7999            0.0000000000
     23998      8000  TIP3      OH2            11.3932333595      -47.9008822861       -7.0464796465  W2        8000            0.0000000000
     23999      8000  TIP3      H1             11.9575733595      -48.4472222861       -7.5935196465  W2        8000            0.0000000000
     24000      8000  TIP3      H2             11.2455733595      -48.4226922861       -6.2577196465  W2        8000            0.0000000000
     24001      8001  TIP3      OH2             6.3952033595      -51.7642722861      -10.6279996465  W2        8001            0.0000000000
     24002      8001  TIP3      H1              6.0781533595      -52.6667422861      -10.6634596465  W2        8001            0.0000000000
     24003      8001  TIP3      H2              7.1766133595      -51.7625322861      -11.1808396465  W2        8001            0.0000000000
     24004      8002  TIP3      OH2            10.0198233595      -49.5122722861       -4.6324396465  W2        8002            0.0000000000
     24005      8002  TIP3      H1              9.1843533595      -49.0583222861       -4.5221996465  W2        8002            0.0000000000
     24006      8002  TIP3      H2             10.5438833595      -49.2364222861       -3.8804496465  W2        8002            0.0000000000
     24007      8003  TIP3      OH2            10.5640833595      -43.2995022861      -12.9477996465  W2        8003            0.0000000000
     24008      8003  TIP3      H1              9.8191833595      -43.8069722861      -13.2700096465  W2        8003            0.0000000000
     24009      8003  TIP3      H2             10.4298033595      -43.2507022861      -12.0013196465  W2        8003            0.0000000000
     24010      8004  TIP3      OH2            17.7139733595      -44.1666822861       -4.1610396465  W2        8004            0.0000000000
     24011      8004  TIP3      H1             18.3558533595      -43.7100522861       -4.7048196465  W2        8004            0.0000000000
     24012      8004  TIP3      H2             16.8836633595      -44.0534422861       -4.6236296465  W2        8004            0.0000000000
     24013      8005  TIP3      OH2            14.4617633595      -50.4855122861      -14.7485396465  W2        8005            0.0000000000
     24014      8005  TIP3      H1             13.5231833595      -50.3739522861      -14.8996596465  W2        8005            0.0000000000
     24015      8005  TIP3      H2             14.7589733595      -49.6288222861      -14.4419696465  W2        8005            0.0000000000
     24016      8006  TIP3      OH2            12.0832933595      -43.1151722861       -1.7108896465  W2        8006            0.0000000000
     24017      8006  TIP3      H1             11.7379033595      -43.4969322861       -0.9039296465  W2        8006            0.0000000000
     24018      8006  TIP3      H2             11.8833033595      -42.1818122861       -1.6395996465  W2        8006            0.0000000000
     24019      8007  TIP3      OH2            15.1801133595      -48.6182422861      -13.0877996465  W2        8007            0.0000000000
     24020      8007  TIP3      H1             16.0720133595      -48.7557422861      -12.7686796465  W2        8007            0.0000000000
     24021      8007  TIP3      H2             15.2364733595      -47.8276322861      -13.6244496465  W2        8007            0.0000000000
     24022      8008  TIP3      OH2             5.6889133595      -44.0045022861       -7.1780096465  W2        8008            0.0000000000
     24023      8008  TIP3      H1              6.4336333595      -44.0069322861       -7.7793596465  W2        8008            0.0000000000
     24024      8008  TIP3      H2              5.7665733595      -44.8281222861       -6.6964996465  W2        8008            0.0000000000
     24025      8009  TIP3      OH2            12.6894933595      -41.8410722861      -13.9223396465  W2        8009            0.0000000000
     24026      8009  TIP3      H1             12.3943333595      -41.0142822861      -13.5408596465  W2        8009            0.0000000000
     24027      8009  TIP3      H2             11.9864933595      -42.4603822861      -13.7261996465  W2        8009            0.0000000000
     24028      8010  TIP3      OH2             2.6968833595      -45.5438122861       -1.8631596465  W2        8010            0.0000000000
     24029      8010  TIP3      H1              2.9197433595      -45.9618522861       -1.0314096465  W2        8010            0.0000000000
     24030      8010  TIP3      H2              2.0948933595      -46.1563122861       -2.2858796465  W2        8010            0.0000000000
     24031      8011  TIP3      OH2             9.7133733595      -46.0268222861        0.3498103535  W2        8011            0.0000000000
     24032      8011  TIP3      H1              9.4174533595      -46.1925222861       -0.5452796465  W2        8011            0.0000000000
     24033      8011  TIP3      H2             10.6448933595      -46.2467922861        0.3392003535  W2        8011            0.0000000000
     24034      8012  TIP3      OH2            14.3336533595      -40.6536222861       -1.7603896465  W2        8012            0.0000000000
     24035      8012  TIP3      H1             13.4330833595      -40.4703622861       -2.0279996465  W2        8012            0.0000000000
     24036      8012  TIP3      H2             14.3677633595      -40.3946922861       -0.8395096465  W2        8012            0.0000000000
     24037      8013  TIP3      OH2            20.0649833595      -48.4088322861      -13.3931296465  W2        8013            0.0000000000
     24038      8013  TIP3      H1             19.5106133595      -48.8050322861      -14.0653796465  W2        8013            0.0000000000
     24039      8013  TIP3      H2             20.1653433595      -47.4983122861      -13.6707996465  W2        8013            0.0000000000
     24040      8014  TIP3      OH2            20.0281833595      -42.6086622861       -0.5559796465  W2        8014            0.0000000000
     24041      8014  TIP3      H1             19.1770333595      -42.3702822861       -0.9233396465  W2        8014            0.0000000000
     24042      8014  TIP3      H2             20.6185233595      -42.6253422861       -1.3092696465  W2        8014            0.0000000000
     24043      8015  TIP3      OH2            18.3601533595      -39.6227922861      -12.9279196465  W2        8015            0.0000000000
     24044      8015  TIP3      H1             17.9872633595      -40.4484122861      -12.6188596465  W2        8015            0.0000000000
     24045      8015  TIP3      H2             18.6375033595      -39.8058522861      -13.8255796465  W2        8015            0.0000000000
     24046      8016  TIP3      OH2            15.5205433595      -44.8148422861       -5.9067296465  W2        8016            0.0000000000
     24047      8016  TIP3      H1             14.5922333595      -45.0466522861       -5.9337996465  W2        8016            0.0000000000
     24048      8016  TIP3      H2             15.9716533595      -45.5918622861       -6.2368496465  W2        8016            0.0000000000
     24049      8017  TIP3      OH2             8.0638533595      -40.4866822861       -9.7738596465  W2        8017            0.0000000000
     24050      8017  TIP3      H1              8.5910733595      -39.7132422861       -9.9739796465  W2        8017            0.0000000000
     24051      8017  TIP3      H2              7.1837033595      -40.2617622861      -10.0754596465  W2        8017            0.0000000000
     24052      8018  TIP3      OH2             3.8186233595      -45.6242722861      -15.1866196465  W2        8018            0.0000000000
     24053      8018  TIP3      H1              4.4346133595      -44.9975522861      -14.8071396465  W2        8018            0.0000000000
     24054      8018  TIP3      H2              2.9568833595      -45.3082922861      -14.9149696465  W2        8018            0.0000000000
     24055      8019  TIP3      OH2             9.4910833595      -42.8236922861      -10.1974296465  W2        8019            0.0000000000
     24056      8019  TIP3      H1              9.2500833595      -41.8982522861      -10.1558996465  W2        8019            0.0000000000
     24057      8019  TIP3      H2              8.7504433595      -43.2825622861       -9.8010396465  W2        8019            0.0000000000
     24058      8020  TIP3      OH2            10.0057433595      -38.6743322861       -3.8823196465  W2        8020            0.0000000000
     24059      8020  TIP3      H1             10.3682133595      -37.8197722861       -4.1158796465  W2        8020            0.0000000000
     24060      8020  TIP3      H2             10.5372633595      -38.9661722861       -3.1416896465  W2        8020            0.0000000000
     24061      8021  TIP3      OH2             8.1741633595      -37.8019322861      -10.6522096465  W2        8021            0.0000000000
     24062      8021  TIP3      H1              7.2242133595      -37.6961922861      -10.6008796465  W2        8021            0.0000000000
     24063      8021  TIP3      H2              8.5259733595      -36.9811922861      -10.3074596465  W2        8021            0.0000000000
     24064      8022  TIP3      OH2            13.5498233595      -42.5752622861       -4.1817596465  W2        8022            0.0000000000
     24065      8022  TIP3      H1             13.1239533595      -42.8030922861       -3.3553596465  W2        8022            0.0000000000
     24066      8022  TIP3      H2             14.1304033595      -43.3140822861       -4.3642296465  W2        8022            0.0000000000
     24067      8023  TIP3      OH2            15.7527133595      -41.6462122861      -15.1078596465  W2        8023            0.0000000000
     24068      8023  TIP3      H1             16.1060233595      -42.0262322861      -14.3035096465  W2        8023            0.0000000000
     24069      8023  TIP3      H2             14.8040633595      -41.7397322861      -15.0209296465  W2        8023            0.0000000000
     24070      8024  TIP3      OH2            16.2082433595      -38.0233122861       -1.7122796465  W2        8024            0.0000000000
     24071      8024  TIP3      H1             15.6065633595      -38.5790222861       -2.2076496465  W2        8024            0.0000000000
     24072      8024  TIP3      H2             16.4896133595      -37.3563322861       -2.3385396465  W2        8024            0.0000000000
     24073      8025  TIP3      OH2            20.2561533595      -37.1669622861      -14.9068396465  W2        8025            0.0000000000
     24074      8025  TIP3      H1             20.9999433595      -36.5809122861      -15.0466796465  W2        8025            0.0000000000
     24075      8025  TIP3      H2             19.5619633595      -36.5983822861      -14.5735996465  W2        8025            0.0000000000
     24076      8026  TIP3      OH2             4.3308333595      -50.7905422861       -2.3050196465  W2        8026            0.0000000000
     24077      8026  TIP3      H1              3.4380633595      -50.4520022861       -2.3726196465  W2        8026            0.0000000000
     24078      8026  TIP3      H2              4.2321133595      -51.6459322861       -1.8869396465  W2        8026            0.0000000000
     24079      8027  TIP3      OH2            16.6186433595      -42.9740122861      -12.8810696465  W2        8027            0.0000000000
     24080      8027  TIP3      H1             16.3414033595      -43.7020822861      -12.3249596465  W2        8027            0.0000000000
     24081      8027  TIP3      H2             17.5459433595      -42.8548122861      -12.6758096465  W2        8027            0.0000000000
     24082      8028  TIP3      OH2             3.9820333595      -38.9861022861       -3.8700796465  W2        8028            0.0000000000
     24083      8028  TIP3      H1              4.1990633595      -39.9178622861       -3.9011096465  W2        8028            0.0000000000
     24084      8028  TIP3      H2              4.2283833595      -38.7116022861       -2.9867996465  W2        8028            0.0000000000
     24085      8029  TIP3      OH2             9.8434933595      -40.5346022861      -16.6608596465  W2        8029            0.0000000000
     24086      8029  TIP3      H1             10.0824733595      -41.2827922861      -17.2079696465  W2        8029            0.0000000000
     24087      8029  TIP3      H2              9.5746233595      -40.9224322861      -15.8280796465  W2        8029            0.0000000000
     24088      8030  TIP3      OH2             8.7805533595      -40.9642222861      -14.2045996465  W2        8030            0.0000000000
     24089      8030  TIP3      H1              8.9273533595      -41.4842422861      -13.4145096465  W2        8030            0.0000000000
     24090      8030  TIP3      H2              8.7777233595      -40.0574622861      -13.8980096465  W2        8030            0.0000000000
     24091      8031  TIP3      OH2             5.2336633595      -43.7118922861      -13.6940596465  W2        8031            0.0000000000
     24092      8031  TIP3      H1              4.5475933595      -43.3596422861      -13.1270896465  W2        8031            0.0000000000
     24093      8031  TIP3      H2              5.7564533595      -42.9489322861      -13.9406296465  W2        8031            0.0000000000
     24094      8032  TIP3      OH2            13.0651733595      -51.0495122861       -3.4151596465  W2        8032            0.0000000000
     24095      8032  TIP3      H1             13.7639633595      -50.9756422861       -2.7651896465  W2        8032            0.0000000000
     24096      8032  TIP3      H2             12.6843133595      -51.9140122861       -3.2608696465  W2        8032            0.0000000000
     24097      8033  TIP3      OH2            13.8496633595      -51.3973422861      -12.3179296465  W2        8033            0.0000000000
     24098      8033  TIP3      H1             14.0694933595      -50.9258022861      -13.1213896465  W2        8033            0.0000000000
     24099      8033  TIP3      H2             14.4080633595      -51.0030822861      -11.6478696465  W2        8033            0.0000000000
     24100      8034  TIP3      OH2            11.5182733595      -39.2668622861      -13.4551796465  W2        8034            0.0000000000
     24101      8034  TIP3      H1             10.7018833595      -38.7698922861      -13.4027496465  W2        8034            0.0000000000
     24102      8034  TIP3      H2             12.0479033595      -38.7915122861      -14.0952996465  W2        8034            0.0000000000
     24103      8035  TIP3      OH2            11.0496533595      -49.6694622861      -11.4830896465  W2        8035            0.0000000000
     24104      8035  TIP3      H1             11.8619133595      -49.1651422861      -11.4369196465  W2        8035            0.0000000000
     24105      8035  TIP3      H2             10.8049533595      -49.8144922861      -10.5691296465  W2        8035            0.0000000000
     24106      8036  TIP3      OH2            11.5852933595      -48.6831922861       -2.2984296465  W2        8036            0.0000000000
     24107      8036  TIP3      H1             11.7043233595      -48.1096522861       -1.5413896465  W2        8036            0.0000000000
     24108      8036  TIP3      H2             12.2407533595      -49.3712522861       -2.1836496465  W2        8036            0.0000000000
     24109      8037  TIP3      OH2            11.9333233595      -52.5881622861      -10.5449796465  W2        8037            0.0000000000
     24110      8037  TIP3      H1             11.5866733595      -51.9711022861       -9.9005496465  W2        8037            0.0000000000
     24111      8037  TIP3      H2             12.5920133595      -52.0875922861      -11.0264296465  W2        8037            0.0000000000
     24112      8038  TIP3      OH2             8.8565833595      -38.2231422861      -13.4734896465  W2        8038            0.0000000000
     24113      8038  TIP3      H1              9.0174533595      -37.4233922861      -13.9742296465  W2        8038            0.0000000000
     24114      8038  TIP3      H2              8.6593633595      -37.9165422861      -12.5884296465  W2        8038            0.0000000000
     24115      8039  TIP3      OH2             7.5910233595      -51.5252222861      -13.8577296465  W2        8039            0.0000000000
     24116      8039  TIP3      H1              7.5075033595      -50.6369122861      -13.5110896465  W2        8039            0.0000000000
     24117      8039  TIP3      H2              8.4810533595      -51.7905522861      -13.6260496465  W2        8039            0.0000000000
     24118      8040  TIP3      OH2            17.7898733595      -50.7761622861       -1.4634596465  W2        8040            0.0000000000
     24119      8040  TIP3      H1             16.8734533595      -50.5139922861       -1.5510896465  W2        8040            0.0000000000
     24120      8040  TIP3      H2             18.1253733595      -50.7792622861       -2.3599296465  W2        8040            0.0000000000
     24121      8041  TIP3      OH2            16.3919733595      -47.0260622861       -7.3677296465  W2        8041            0.0000000000
     24122      8041  TIP3      H1             15.5944133595      -47.4410422861       -7.6962296465  W2        8041            0.0000000000
     24123      8041  TIP3      H2             16.8370833595      -47.7166922861       -6.8766796465  W2        8041            0.0000000000
     24124      8042  TIP3      OH2             5.8495533595      -41.0980022861      -14.7972796465  W2        8042            0.0000000000
     24125      8042  TIP3      H1              6.4417033595      -40.3985222861      -14.5210396465  W2        8042            0.0000000000
     24126      8042  TIP3      H2              6.3088533595      -41.5310522861      -15.5168196465  W2        8042            0.0000000000
     24127      8043  TIP3      OH2             4.1654733595      -48.4337022861      -15.6813396465  W2        8043            0.0000000000
     24128      8043  TIP3      H1              4.1207333595      -47.4943922861      -15.5026396465  W2        8043            0.0000000000
     24129      8043  TIP3      H2              3.2777933595      -48.6692122861      -15.9511296465  W2        8043            0.0000000000
     24130      8044  TIP3      OH2            17.4784333595      -37.7698122861       -5.7453796465  W2        8044            0.0000000000
     24131      8044  TIP3      H1             17.3228633595      -37.0913722861       -6.4024496465  W2        8044            0.0000000000
     24132      8044  TIP3      H2             18.4110733595      -37.6978822861       -5.5423196465  W2        8044            0.0000000000
     24133      8045  TIP3      OH2             4.9736733595      -53.6520422861       -7.0082396465  W2        8045            0.0000000000
     24134      8045  TIP3      H1              4.7446533595      -53.5927922861       -7.9357396465  W2        8045            0.0000000000
     24135      8045  TIP3      H2              4.5310133595      -54.4434922861       -6.7018296465  W2        8045            0.0000000000
     24136      8046  TIP3      OH2             3.9040033595      -39.7113322861      -10.8476596465  W2        8046            0.0000000000
     24137      8046  TIP3      H1              3.0718633595      -39.2390622861      -10.8205196465  W2        8046            0.0000000000
     24138      8046  TIP3      H2              4.4498333595      -39.2015722861      -11.4463496465  W2        8046            0.0000000000
     24139      8047  TIP3      OH2             3.1923733595      -37.0989622861        0.4821403535  W2        8047            0.0000000000
     24140      8047  TIP3      H1              3.7325933595      -37.3155622861        1.2420603535  W2        8047            0.0000000000
     24141      8047  TIP3      H2              2.7111733595      -37.9043622861        0.2923903535  W2        8047            0.0000000000
     24142      8048  TIP3      OH2             7.7897133595      -38.1795222861        2.1025603535  W2        8048            0.0000000000
     24143      8048  TIP3      H1              8.5574333595      -38.6384422861        2.4434803535  W2        8048            0.0000000000
     24144      8048  TIP3      H2              7.7683333595      -38.4055422861        1.1726803535  W2        8048            0.0000000000
     24145      8049  TIP3      OH2            11.8816733595      -38.6714622861      -16.5222596465  W2        8049            0.0000000000
     24146      8049  TIP3      H1             11.2377733595      -39.3026022861      -16.2008896465  W2        8049            0.0000000000
     24147      8049  TIP3      H2             12.6435033595      -39.2026622861      -16.7539096465  W2        8049            0.0000000000
     24148      8050  TIP3      OH2            14.3665833595      -39.7994122861        0.8317103535  W2        8050            0.0000000000
     24149      8050  TIP3      H1             14.0155333595      -40.6561122861        1.0747503535  W2        8050            0.0000000000
     24150      8050  TIP3      H2             15.0929033595      -39.6567422861        1.4386103535  W2        8050            0.0000000000
     24151      8051  TIP3      OH2            16.4859633595      -38.8544722861      -16.2884596465  W2        8051            0.0000000000
     24152      8051  TIP3      H1             16.7690033595      -39.6489522861      -15.8357696465  W2        8051            0.0000000000
     24153      8051  TIP3      H2             17.2257533595      -38.6213722861      -16.8493496465  W2        8051            0.0000000000
     24154      8052  TIP3      OH2             3.0993233595      -43.2885522861        1.4365703535  W2        8052            0.0000000000
     24155      8052  TIP3      H1              3.2433733595      -44.1904822861        1.1502403535  W2        8052            0.0000000000
     24156      8052  TIP3      H2              2.3270633595      -43.0023422861        0.9488003535  W2        8052            0.0000000000
     24157      8053  TIP3      OH2             7.4406933595      -42.9449822861      -16.4309696465  W2        8053            0.0000000000
     24158      8053  TIP3      H1              7.5051033595      -43.7390222861      -15.9003296465  W2        8053            0.0000000000
     24159      8053  TIP3      H2              8.0936133595      -43.0637022861      -17.1207696465  W2        8053            0.0000000000
     24160      8054  TIP3      OH2             9.7549333595      -43.3187422861        0.8692103535  W2        8054            0.0000000000
     24161      8054  TIP3      H1              9.4263133595      -43.0479322861        0.0119503535  W2        8054            0.0000000000
     24162      8054  TIP3      H2              9.9067533595      -44.2597622861        0.7817103535  W2        8054            0.0000000000
     24163      8055  TIP3      OH2            12.7930333595      -41.8978122861      -16.6951696465  W2        8055            0.0000000000
     24164      8055  TIP3      H1             12.5244433595      -41.7176022861      -15.7942796465  W2        8055            0.0000000000
     24165      8055  TIP3      H2             12.5865933595      -42.8231922861      -16.8265896465  W2        8055            0.0000000000
     24166      8056  TIP3      OH2            15.4894533595      -43.4030122861       -1.7475596465  W2        8056            0.0000000000
     24167      8056  TIP3      H1             16.2349333595      -42.8146422861       -1.8671596465  W2        8056            0.0000000000
     24168      8056  TIP3      H2             14.7321333595      -42.8210422861       -1.6842496465  W2        8056            0.0000000000
     24169      8057  TIP3      OH2             3.9319733595      -46.0882222861        0.8565003535  W2        8057            0.0000000000
     24170      8057  TIP3      H1              4.3400933595      -46.9455622861        0.7355603535  W2        8057            0.0000000000
     24171      8057  TIP3      H2              3.6717333595      -46.0740922861        1.7775303535  W2        8057            0.0000000000
     24172      8058  TIP3      OH2             8.5900733595      -44.9723622861      -14.1251696465  W2        8058            0.0000000000
     24173      8058  TIP3      H1              8.1302733595      -45.4565322861      -13.4393196465  W2        8058            0.0000000000
     24174      8058  TIP3      H2              8.8449433595      -45.6408222861      -14.7611196465  W2        8058            0.0000000000
     24175      8059  TIP3      OH2             7.8790033595      -47.0796522861       -1.7692096465  W2        8059            0.0000000000
     24176      8059  TIP3      H1              7.2606133595      -46.4049922861       -1.4887396465  W2        8059            0.0000000000
     24177      8059  TIP3      H2              8.2231233595      -46.7582622861       -2.6025896465  W2        8059            0.0000000000
     24178      8060  TIP3      OH2             9.6611133595      -46.7291822861      -15.8628496465  W2        8060            0.0000000000
     24179      8060  TIP3      H1              9.4806133595      -46.8840622861      -16.7900196465  W2        8060            0.0000000000
     24180      8060  TIP3      H2             10.6111633595      -46.6213122861      -15.8180596465  W2        8060            0.0000000000
     24181      8061  TIP3      OH2            12.8988233595      -44.6081222861        1.5082703535  W2        8061            0.0000000000
     24182      8061  TIP3      H1             13.8519433595      -44.5242122861        1.4808703535  W2        8061            0.0000000000
     24183      8061  TIP3      H2             12.7382833595      -45.3199422861        2.1277603535  W2        8061            0.0000000000
     24184      8062  TIP3      OH2            19.0509433595      -44.3747622861      -16.4170396465  W2        8062            0.0000000000
     24185      8062  TIP3      H1             18.7774233595      -44.7992122861      -17.2302096465  W2        8062            0.0000000000
     24186      8062  TIP3      H2             19.0903533595      -43.4433122861      -16.6339996465  W2        8062            0.0000000000
     24187      8063  TIP3      OH2             8.2183733595      -49.7245722861       -0.6868996465  W2        8063            0.0000000000
     24188      8063  TIP3      H1              8.3684633595      -50.4534422861       -1.2889296465  W2        8063            0.0000000000
     24189      8063  TIP3      H2              8.2206133595      -48.9474022861       -1.2456796465  W2        8063            0.0000000000
     24190      8064  TIP3      OH2             8.6309433595      -51.3549922861       -3.1941596465  W2        8064            0.0000000000
     24191      8064  TIP3      H1              9.1666933595      -50.9033222861       -3.8462296465  W2        8064            0.0000000000
     24192      8064  TIP3      H2              7.7789033595      -51.4630122861       -3.6167496465  W2        8064            0.0000000000
     24193      8065  TIP3      OH2            10.2127833595      -45.9153722861       -2.9546396465  W2        8065            0.0000000000
     24194      8065  TIP3      H1             10.9632633595      -46.0716222861       -3.5278596465  W2        8065            0.0000000000
     24195      8065  TIP3      H2              9.8736133595      -45.0637122861       -3.2300896465  W2        8065            0.0000000000
     24196      8066  TIP3      OH2            14.6284033595      -48.1001922861        2.0738903535  W2        8066            0.0000000000
     24197      8066  TIP3      H1             14.8205333595      -49.0312522861        1.9623403535  W2        8066            0.0000000000
     24198      8066  TIP3      H2             15.4860333595      -47.6752422861        2.0634303535  W2        8066            0.0000000000
     24199      8067  TIP3      OH2            15.9451233595      -45.3116722861        0.1511603535  W2        8067            0.0000000000
     24200      8067  TIP3      H1             15.6636233595      -44.6022122861       -0.4264596465  W2        8067            0.0000000000
     24201      8067  TIP3      H2             16.8875533595      -45.3843722861        0.0002803535  W2        8067            0.0000000000
     24202      8068  TIP3      OH2             6.6970033595      -48.5262222861        1.2246603535  W2        8068            0.0000000000
     24203      8068  TIP3      H1              5.9299033595      -49.0587422861        1.0144203535  W2        8068            0.0000000000
     24204      8068  TIP3      H2              7.3759033595      -48.8361822861        0.6252903535  W2        8068            0.0000000000
     24205      8069  TIP3      OH2             9.4364933595      -53.8984222861       -2.7627996465  W2        8069            0.0000000000
     24206      8069  TIP3      H1              9.3384533595      -52.9521022861       -2.8681796465  W2        8069            0.0000000000
     24207      8069  TIP3      H2              8.6941133595      -54.2710422861       -3.2384496465  W2        8069            0.0000000000
     24208      8070  TIP3      OH2            10.7005433595      -49.5768822861        0.8010403535  W2        8070            0.0000000000
     24209      8070  TIP3      H1             10.4650833595      -49.7962122861        1.7025303535  W2        8070            0.0000000000
     24210      8070  TIP3      H2              9.9172333595      -49.7837622861        0.2912903535  W2        8070            0.0000000000
     24211      8071  TIP3      OH2            13.4162033595      -50.4495322861       -0.1236096465  W2        8071            0.0000000000
     24212      8071  TIP3      H1             12.4687433595      -50.4175622861        0.0087203535  W2        8071            0.0000000000
     24213      8071  TIP3      H2             13.7288733595      -51.0748222861        0.5302103535  W2        8071            0.0000000000
     24214      8072  TIP3      OH2            15.0503533595      -51.8154222861        1.8815803535  W2        8072            0.0000000000
     24215      8072  TIP3      H1             14.9535333595      -52.7676922861        1.8757703535  W2        8072            0.0000000000
     24216      8072  TIP3      H2             14.7286633595      -51.5467422861        2.7421303535  W2        8072            0.0000000000
     24217      8073  TIP3      OH2             4.8772833595      -50.6058422861        0.9291303535  W2        8073            0.0000000000
     24218      8073  TIP3      H1              5.0890233595      -51.3122322861        0.3188803535  W2        8073            0.0000000000
     24219      8073  TIP3      H2              4.7660333595      -51.0432422861        1.7732503535  W2        8073            0.0000000000
     24220      8074  TIP3      OH2             9.6583033595      -54.6046822861       -0.0915196465  W2        8074            0.0000000000
     24221      8074  TIP3      H1             10.3701433595      -55.2444622861       -0.1056096465  W2        8074            0.0000000000
     24222      8074  TIP3      H2              9.5573433595      -54.3378522861       -1.0052096465  W2        8074            0.0000000000
     24223      8075  TIP3      OH2            10.0120533595      -52.9218422861        1.9621103535  W2        8075            0.0000000000
     24224      8075  TIP3      H1              9.8802733595      -53.3974622861        1.1419603535  W2        8075            0.0000000000
     24225      8075  TIP3      H2              9.4127933595      -52.1774822861        1.9068203535  W2        8075            0.0000000000
     24226      8076  TIP3      OH2             9.5582833595      -36.0388122861      -14.8614896465  W2        8076            0.0000000000
     24227      8076  TIP3      H1             10.4913533595      -35.8809422861      -14.7176496465  W2        8076            0.0000000000
     24228      8076  TIP3      H2              9.2941633595      -35.3635122861      -15.4863396465  W2        8076            0.0000000000
     24229      8077  TIP3      OH2             3.1267733595      -41.4024322861      -15.3786796465  W2        8077            0.0000000000
     24230      8077  TIP3      H1              4.0406933595      -41.3235422861      -15.1052896465  W2        8077            0.0000000000
     24231      8077  TIP3      H2              3.1340833595      -42.0894722861      -16.0451196465  W2        8077            0.0000000000
     24232      8078  TIP3      OH2             1.7758333595      -36.0095822861      -10.3012896465  W2        8078            0.0000000000
     24233      8078  TIP3      H1              1.1285433595      -36.4714122861      -10.8341696465  W2        8078            0.0000000000
     24234      8078  TIP3      H2              2.1302933595      -36.6812522861       -9.7186696465  W2        8078            0.0000000000
     24235      8079  TIP3      OH2             2.6457533595      -37.9288822861       -8.4966696465  W2        8079            0.0000000000
     24236      8079  TIP3      H1              2.3114333595      -38.8091522861       -8.3246496465  W2        8079            0.0000000000
     24237      8079  TIP3      H2              2.8679933595      -37.5833822861       -7.6321096465  W2        8079            0.0000000000
     24238      8080  TIP3      OH2            20.1942333595      -37.1192422861       -5.5161896465  W2        8080            0.0000000000
     24239      8080  TIP3      H1             20.1729033595      -36.9344022861       -4.5772496465  W2        8080            0.0000000000
     24240      8080  TIP3      H2             20.8848533595      -36.5508422861       -5.8570496465  W2        8080            0.0000000000
     24241      8081  TIP3      OH2            19.7575233595      -37.5521322861       -2.5942796465  W2        8081            0.0000000000
     24242      8081  TIP3      H1             19.2703933595      -38.2877222861       -2.9655396465  W2        8081            0.0000000000
     24243      8081  TIP3      H2             20.3067933595      -37.9457422861       -1.9163396465  W2        8081            0.0000000000
     24244      8082  TIP3      OH2            18.2082533595      -41.7623222861        2.0437503535  W2        8082            0.0000000000
     24245      8082  TIP3      H1             17.3423633595      -41.8673522861        2.4379803535  W2        8082            0.0000000000
     24246      8082  TIP3      H2             18.5848433595      -41.0039922861        2.4902203535  W2        8082            0.0000000000
     24247      8083  TIP3      OH2            19.5092233595      -43.5059522861      -12.4419996465  W2        8083            0.0000000000
     24248      8083  TIP3      H1             20.3593633595      -43.0848622861      -12.3148396465  W2        8083            0.0000000000
     24249      8083  TIP3      H2             19.5147333595      -44.2459422861      -11.8348596465  W2        8083            0.0000000000
     24250      8084  TIP3      OH2            19.9037833595      -45.4522122861      -10.6184296465  W2        8084            0.0000000000
     24251      8084  TIP3      H1             19.1772433595      -45.9319522861      -10.2206696465  W2        8084            0.0000000000
     24252      8084  TIP3      H2             20.4851133595      -45.2467422861       -9.8862696465  W2        8084            0.0000000000
     24253      8085  TIP3      OH2            19.6629033595      -42.6674622861       -5.6706696465  W2        8085            0.0000000000
     24254      8085  TIP3      H1             20.4963233595      -43.0454622861       -5.9513096465  W2        8085            0.0000000000
     24255      8085  TIP3      H2             19.7749333595      -41.7243422861       -5.7897596465  W2        8085            0.0000000000
     24256      8086  TIP3      OH2            18.1491333595      -39.7897122861       -3.3638296465  W2        8086            0.0000000000
     24257      8086  TIP3      H1             17.5016633595      -39.4645622861       -2.7383096465  W2        8086            0.0000000000
     24258      8086  TIP3      H2             17.6315333595      -40.2299422861       -4.0379996465  W2        8086            0.0000000000
     24259      8087  TIP3      OH2            20.1720933595      -45.5513622861      -14.2272996465  W2        8087            0.0000000000
     24260      8087  TIP3      H1             19.6502033595      -45.1949522861      -14.9462096465  W2        8087            0.0000000000
     24261      8087  TIP3      H2             20.1390133595      -44.8765822861      -13.5492096465  W2        8087            0.0000000000
     24262      8088  TIP3      OH2            18.5209933595      -48.3118022861      -15.6765896465  W2        8088            0.0000000000
     24263      8088  TIP3      H1             18.6174333595      -47.6451022861      -16.3566196465  W2        8088            0.0000000000
     24264      8088  TIP3      H2             18.3809533595      -49.1271722861      -16.1580396465  W2        8088            0.0000000000
     24265      8089  TIP3      OH2            17.6904633595      -46.9315622861      -10.0555596465  W2        8089            0.0000000000
     24266      8089  TIP3      H1             17.5403433595      -47.8767022861      -10.0757796465  W2        8089            0.0000000000
     24267      8089  TIP3      H2             17.3369133595      -46.6504222861       -9.2116496465  W2        8089            0.0000000000
     24268      8090  TIP3      OH2             2.7257033595      -44.8533422861       -6.0451796465  W2        8090            0.0000000000
     24269      8090  TIP3      H1              2.9099933595      -44.9351722861       -6.9808896465  W2        8090            0.0000000000
     24270      8090  TIP3      H2              3.5749933595      -44.9776422861       -5.6215396465  W2        8090            0.0000000000
     24271      8091  TIP3      OH2            18.5467533595      -44.9612322861       -0.4167296465  W2        8091            0.0000000000
     24272      8091  TIP3      H1             19.1294833595      -45.6960022861       -0.2250096465  W2        8091            0.0000000000
     24273      8091  TIP3      H2             19.1106833595      -44.1892022861       -0.3701496465  W2        8091            0.0000000000
     24274      8092  TIP3      OH2            20.0434633595      -47.0586522861        0.2678103535  W2        8092            0.0000000000
     24275      8092  TIP3      H1             19.1801333595      -47.4374422861        0.1022803535  W2        8092            0.0000000000
     24276      8092  TIP3      H2             20.6478333595      -47.7971722861        0.1933903535  W2        8092            0.0000000000
     24277      8093  TIP3      OH2            17.7683733595      -50.9038222861      -16.5590396465  W2        8093            0.0000000000
     24278      8093  TIP3      H1             18.3789533595      -51.2751422861      -15.9222196465  W2        8093            0.0000000000
     24279      8093  TIP3      H2             16.9315233595      -51.3251322861      -16.3630396465  W2        8093            0.0000000000
     24280      8094  TIP3      OH2            17.4009433595      -49.3489822861      -11.5930496465  W2        8094            0.0000000000
     24281      8094  TIP3      H1             17.6806533595      -50.2559422861      -11.4688796465  W2        8094            0.0000000000
     24282      8094  TIP3      H2             18.1601133595      -48.9148322861      -11.9821296465  W2        8094            0.0000000000
     24283      8095  TIP3      OH2            18.0127733595      -48.7672422861       -6.1571596465  W2        8095            0.0000000000
     24284      8095  TIP3      H1             18.9455733595      -48.5552522861       -6.1915596465  W2        8095            0.0000000000
     24285      8095  TIP3      H2             17.7775233595      -48.6660322861       -5.2348596465  W2        8095            0.0000000000
     24286      8096  TIP3      OH2            18.0419633595      -48.0307122861       -3.3812196465  W2        8096            0.0000000000
     24287      8096  TIP3      H1             17.1990933595      -47.7626722861       -3.0152396465  W2        8096            0.0000000000
     24288      8096  TIP3      H2             18.4843933595      -47.2085222861       -3.5921096465  W2        8096            0.0000000000
     24289      8097  TIP3      OH2             2.3231833595      -49.5828422861        0.0957003535  W2        8097            0.0000000000
     24290      8097  TIP3      H1              3.2426733595      -49.7050122861        0.3320103535  W2        8097            0.0000000000
     24291      8097  TIP3      H2              1.8736333595      -50.3328722861        0.4850503535  W2        8097            0.0000000000
     24292      8098  TIP3      OH2            20.3251233595      -54.0506922861        1.9722803535  W2        8098            0.0000000000
     24293      8098  TIP3      H1             20.6748233595      -54.7043422861        1.3667503535  W2        8098            0.0000000000
     24294      8098  TIP3      H2             20.4720733595      -53.2132822861        1.5325403535  W2        8098            0.0000000000
     24295      8099  TIP3      OH2            18.0144233595      -52.0860522861      -11.5448496465  W2        8099            0.0000000000
     24296      8099  TIP3      H1             18.1969233595      -52.5349022861      -10.7193496465  W2        8099            0.0000000000
     24297      8099  TIP3      H2             17.4147133595      -52.6706122861      -12.0083896465  W2        8099            0.0000000000
     24298      8100  TIP3      OH2             3.5444333595      -51.2706822861       -7.0130096465  W2        8100            0.0000000000
     24299      8100  TIP3      H1              3.9895933595      -52.0624322861       -6.7110396465  W2        8100            0.0000000000
     24300      8100  TIP3      H2              4.0107333595      -50.5541622861       -6.5824496465  W2        8100            0.0000000000
     24301      8101  TIP3      OH2             1.8484633595      -48.2713822861       -5.9439896465  W2        8101            0.0000000000
     24302      8101  TIP3      H1              2.3404433595      -48.4923322861       -6.7347896465  W2        8101            0.0000000000
     24303      8101  TIP3      H2              2.2105533595      -47.4310422861       -5.6630396465  W2        8101            0.0000000000
     24304      8102  TIP3      OH2            19.8448433595      -51.9412322861        0.3214103535  W2        8102            0.0000000000
     24305      8102  TIP3      H1             18.9274133595      -51.6705222861        0.2857603535  W2        8102            0.0000000000
     24306      8102  TIP3      H2             19.9677833595      -52.4763922861       -0.4626196465  W2        8102            0.0000000000
     24307      8103  TIP3      OH2            19.8810433595      -52.0182422861      -15.0168196465  W2        8103            0.0000000000
     24308      8103  TIP3      H1             20.2933033595      -52.7396722861      -15.4920196465  W2        8103            0.0000000000
     24309      8103  TIP3      H2             20.5626933595      -51.3487822861      -14.9583896465  W2        8103            0.0000000000
     24310      8104  TIP3      OH2             2.1621133595      -52.0134722861      -11.8897496465  W2        8104            0.0000000000
     24311      8104  TIP3      H1              1.2369533595      -51.8048122861      -12.0191996465  W2        8104            0.0000000000
     24312      8104  TIP3      H2              2.6161033595      -51.5293922861      -12.5795196465  W2        8104            0.0000000000
     24313      8105  TIP3      OH2            16.9328333595      -37.0293022861       -9.9440096465  W2        8105            0.0000000000
     24314      8105  TIP3      H1             17.5851233595      -37.3770922861      -10.5520996465  W2        8105            0.0000000000
     24315      8105  TIP3      H2             17.4432133595      -36.5409822861       -9.2980396465  W2        8105            0.0000000000
     24316      8106  TIP3      OH2             2.1256533595      -53.2755722861       -3.5454996465  W2        8106            0.0000000000
     24317      8106  TIP3      H1              1.4607033595      -53.5215422861       -2.9024096465  W2        8106            0.0000000000
     24318      8106  TIP3      H2              1.6827833595      -52.6535322861       -4.1226996465  W2        8106            0.0000000000
     24319      8107  TIP3      OH2             4.3175833595      -40.1001622861        0.5990803535  W2        8107            0.0000000000
     24320      8107  TIP3      H1              3.4968333595      -39.9255122861        0.1385503535  W2        8107            0.0000000000
     24321      8107  TIP3      H2              4.0653633595      -40.1736922861        1.5195203535  W2        8107            0.0000000000
     24322      8108  TIP3      OH2             7.2718733595      -39.1260422861       -3.1425196465  W2        8108            0.0000000000
     24323      8108  TIP3      H1              6.8469833595      -38.3161922861       -3.4250596465  W2        8108            0.0000000000
     24324      8108  TIP3      H2              8.1761533595      -39.0406322861       -3.4445396465  W2        8108            0.0000000000
     24325      8109  TIP3      OH2            11.5830133595      -37.7270422861       -0.1831496465  W2        8109            0.0000000000
     24326      8109  TIP3      H1             11.7677633595      -38.0604322861        0.6948803535  W2        8109            0.0000000000
     24327      8109  TIP3      H2             12.4294633595      -37.4171822861       -0.5052296465  W2        8109            0.0000000000
     24328      8110  TIP3      OH2            13.9280533595      -36.4411522861       -0.9390096465  W2        8110            0.0000000000
     24329      8110  TIP3      H1             14.6049433595      -37.0739222861       -1.1790896465  W2        8110            0.0000000000
     24330      8110  TIP3      H2             14.2499333595      -36.0401022861       -0.1316796465  W2        8110            0.0000000000
     24331      8111  TIP3      OH2            18.8454333595      -53.8516022861       -1.8595096465  W2        8111            0.0000000000
     24332      8111  TIP3      H1             18.0327833595      -53.5265722861       -2.2470396465  W2        8111            0.0000000000
     24333      8111  TIP3      H2             19.0782833595      -54.6117522861       -2.3925996465  W2        8111            0.0000000000
     24334      8112  TIP3      OH2             4.6735433595      -35.8696522861       -3.0949896465  W2        8112            0.0000000000
     24335      8112  TIP3      H1              3.9531833595      -35.4295522861       -3.5462196465  W2        8112            0.0000000000
     24336      8112  TIP3      H2              4.3079433595      -36.1201822861       -2.2465896465  W2        8112            0.0000000000
     24337      8113  TIP3      OH2             7.1408033595      -36.2692622861       -4.0652696465  W2        8113            0.0000000000
     24338      8113  TIP3      H1              6.2760233595      -36.1974122861       -3.6612596465  W2        8113            0.0000000000
     24339      8113  TIP3      H2              7.0857033595      -35.7225322861       -4.8490196465  W2        8113            0.0000000000
     24340      8114  TIP3      OH2            11.8513633595      -36.3813722861       -4.8896696465  W2        8114            0.0000000000
     24341      8114  TIP3      H1             11.3947633595      -35.8524022861       -5.5438296465  W2        8114            0.0000000000
     24342      8114  TIP3      H2             12.0141633595      -35.7782322861       -4.1644396465  W2        8114            0.0000000000
     24343      8115  TIP3      OH2            14.1789933595      -37.5034122861       -3.9446396465  W2        8115            0.0000000000
     24344      8115  TIP3      H1             13.2743633595      -37.3383922861       -4.2104296465  W2        8115            0.0000000000
     24345      8115  TIP3      H2             14.6078533595      -36.6501922861       -4.0102996465  W2        8115            0.0000000000
     24346      8116  TIP3      OH2            16.7831833595      -35.9335022861       -3.6498596465  W2        8116            0.0000000000
     24347      8116  TIP3      H1             16.6013833595      -35.0176122861       -3.8603696465  W2        8116            0.0000000000
     24348      8116  TIP3      H2             16.9599633595      -36.3437922861       -4.4963996465  W2        8116            0.0000000000
     24349      8117  TIP3      OH2             4.0883533595      -37.2464022861       -6.1848096465  W2        8117            0.0000000000
     24350      8117  TIP3      H1              4.0699533595      -37.6718922861       -5.3275796465  W2        8117            0.0000000000
     24351      8117  TIP3      H2              4.8931433595      -37.5649022861       -6.5935896465  W2        8117            0.0000000000
     24352      8118  TIP3      OH2             6.2296633595      -38.5365322861       -7.5298196465  W2        8118            0.0000000000
     24353      8118  TIP3      H1              6.0107333595      -39.4527922861       -7.3602196465  W2        8118            0.0000000000
     24354      8118  TIP3      H2              7.0538833595      -38.3964922861       -7.0636796465  W2        8118            0.0000000000
     24355      8119  TIP3      OH2             8.7669133595      -38.0666022861       -6.6810196465  W2        8119            0.0000000000
     24356      8119  TIP3      H1              8.9794833595      -38.9547022861       -6.9679296465  W2        8119            0.0000000000
     24357      8119  TIP3      H2              8.8314233595      -38.1008322861       -5.7266196465  W2        8119            0.0000000000
     24358      8120  TIP3      OH2            12.2752833595      -52.4025422861       -7.5366896465  W2        8120            0.0000000000
     24359      8120  TIP3      H1             11.6009633595      -53.0319822861       -7.2811096465  W2        8120            0.0000000000
     24360      8120  TIP3      H2             12.8392033595      -52.8866522861       -8.1398996465  W2        8120            0.0000000000
     24361      8121  TIP3      OH2            17.4180033595      -54.2951422861       -7.4239796465  W2        8121            0.0000000000
     24362      8121  TIP3      H1             18.0217633595      -53.7476022861       -7.9258796465  W2        8121            0.0000000000
     24363      8121  TIP3      H2             16.5482033595      -53.9761022861       -7.6645696465  W2        8121            0.0000000000
     24364      8122  TIP3      OH2            19.1450433595      -53.1562722861       -9.0908896465  W2        8122            0.0000000000
     24365      8122  TIP3      H1             19.7567933595      -53.6707022861       -9.6175296465  W2        8122            0.0000000000
     24366      8122  TIP3      H2             19.5273833595      -52.2790622861       -9.0674496465  W2        8122            0.0000000000
     24367      8123  TIP3      OH2             4.6020333595      -53.7685122861       -9.7146996465  W2        8123            0.0000000000
     24368      8123  TIP3      H1              3.8250133595      -54.0030222861      -10.2221096465  W2        8123            0.0000000000
     24369      8123  TIP3      H2              5.1323933595      -54.5653022861       -9.7058996465  W2        8123            0.0000000000
     24370      8124  TIP3      OH2             3.4383733595      -53.9707022861      -13.9110896465  W2        8124            0.0000000000
     24371      8124  TIP3      H1              3.8774433595      -53.3596522861      -14.5027396465  W2        8124            0.0000000000
     24372      8124  TIP3      H2              2.8046133595      -53.4322922861      -13.4370896465  W2        8124            0.0000000000
     24373      8125  TIP3      OH2             9.1812933595      -53.8418022861       -9.9013896465  W2        8125            0.0000000000
     24374      8125  TIP3      H1             10.0556333595      -53.4533722861       -9.9309596465  W2        8125            0.0000000000
     24375      8125  TIP3      H2              9.0453733595      -54.0570222861       -8.9786696465  W2        8125            0.0000000000
     24376      8126  TIP3      OH2            14.7381333595      -53.8118222861       -8.2522196465  W2        8126            0.0000000000
     24377      8126  TIP3      H1             14.8142933595      -53.7166622861       -9.2016196465  W2        8126            0.0000000000
     24378      8126  TIP3      H2             14.4630533595      -54.7195322861       -8.1233096465  W2        8126            0.0000000000
     24379      8127  TIP3      OH2            16.0913933595      -53.7860422861      -12.5597196465  W2        8127            0.0000000000
     24380      8127  TIP3      H1             15.3885033595      -53.1711222861      -12.7695796465  W2        8127            0.0000000000
     24381      8127  TIP3      H2             15.6465333595      -54.6233722861      -12.4286296465  W2        8127            0.0000000000
     24382      8128  TIP3      OH2             3.3393233595      -38.0224822861      -13.0135796465  W2        8128            0.0000000000
     24383      8128  TIP3      H1              2.6543133595      -38.0605922861      -13.6810696465  W2        8128            0.0000000000
     24384      8128  TIP3      H2              3.3430433595      -37.1097222861      -12.7253696465  W2        8128            0.0000000000
     24385      8129  TIP3      OH2             5.2992833595      -52.0545522861      -15.4686796465  W2        8129            0.0000000000
     24386      8129  TIP3      H1              5.7906233595      -52.6843122861      -15.9961296465  W2        8129            0.0000000000
     24387      8129  TIP3      H2              5.9229133595      -51.7586122861      -14.8055596465  W2        8129            0.0000000000
     24388      8130  TIP3      OH2            10.3252933595      -51.7614022861      -13.0116296465  W2        8130            0.0000000000
     24389      8130  TIP3      H1             10.5034233595      -52.4080822861      -12.3287696465  W2        8130            0.0000000000
     24390      8130  TIP3      H2             10.2719133595      -50.9276322861      -12.5445196465  W2        8130            0.0000000000
     24391      8131  TIP3      OH2            12.2036733595      -36.8129922861      -14.6159596465  W2        8131            0.0000000000
     24392      8131  TIP3      H1             13.0696933595      -36.4462522861      -14.7941396465  W2        8131            0.0000000000
     24393      8131  TIP3      H2             11.9569533595      -37.2521922861      -15.4298796465  W2        8131            0.0000000000
     24394      8132  TIP3      OH2            18.9126333595      -37.2499622861      -11.9368496465  W2        8132            0.0000000000
     24395      8132  TIP3      H1             18.7183433595      -37.9977522861      -12.5018896465  W2        8132            0.0000000000
     24396      8132  TIP3      H2             18.8736433595      -36.4919522861      -12.5200596465  W2        8132            0.0000000000
     24397      8133  TIP3      OH2             4.5598333595      -53.2543222861       -0.1970796465  W2        8133            0.0000000000
     24398      8133  TIP3      H1              4.1936533595      -54.0200622861        0.2453903535  W2        8133            0.0000000000
     24399      8133  TIP3      H2              5.4726833595      -53.2253022861        0.0894303535  W2        8133            0.0000000000
     24400      8134  TIP3      OH2             6.5329133595      -53.9038822861        1.3386303535  W2        8134            0.0000000000
     24401      8134  TIP3      H1              7.4312733595      -54.1778622861        1.1539703535  W2        8134            0.0000000000
     24402      8134  TIP3      H2              6.1462233595      -54.6462822861        1.8028903535  W2        8134            0.0000000000
     24403      8135  TIP3      OH2             5.1574433595      -37.1024022861      -15.9883696465  W2        8135            0.0000000000
     24404      8135  TIP3      H1              4.8899033595      -36.8161122861      -15.1150596465  W2        8135            0.0000000000
     24405      8135  TIP3      H2              5.9287033595      -37.6484822861      -15.8361196465  W2        8135            0.0000000000
     24406      8136  TIP3      OH2            14.9541433595      -54.5713522861        1.5209103535  W2        8136            0.0000000000
     24407      8136  TIP3      H1             15.0308633595      -54.9972822861        2.3746803535  W2        8136            0.0000000000
     24408      8136  TIP3      H2             15.8478033595      -54.5578822861        1.1782603535  W2        8136            0.0000000000
     24409      8137  TIP3      OH2            18.1302533595      -38.4987222861        0.2133303535  W2        8137            0.0000000000
     24410      8137  TIP3      H1             17.3484433595      -38.6849222861       -0.3066096465  W2        8137            0.0000000000
     24411      8137  TIP3      H2             18.0582433595      -37.5692922861        0.4305803535  W2        8137            0.0000000000
     24412      8138  TIP3      OH2            32.5362933595      -44.6122822861       -9.7559496465  W2        8138            0.0000000000
     24413      8138  TIP3      H1             32.6254033595      -43.6684622861       -9.8882396465  W2        8138            0.0000000000
     24414      8138  TIP3      H2             31.8980533595      -44.8876422861      -10.4140096465  W2        8138            0.0000000000
     24415      8139  TIP3      OH2            31.4694233595      -45.3572122861       -6.3371296465  W2        8139            0.0000000000
     24416      8139  TIP3      H1             31.4311733595      -46.0035822861       -5.6321696465  W2        8139            0.0000000000
     24417      8139  TIP3      H2             31.1470733595      -45.8237722861       -7.1082596465  W2        8139            0.0000000000
     24418      8140  TIP3      OH2            23.8379233595      -45.7430022861       -4.7441396465  W2        8140            0.0000000000
     24419      8140  TIP3      H1             23.8791333595      -46.3686722861       -4.0208996465  W2        8140            0.0000000000
     24420      8140  TIP3      H2             24.5406933595      -45.1191422861       -4.5620996465  W2        8140            0.0000000000
     24421      8141  TIP3      OH2            35.1754433595      -42.4181722861       -8.0356196465  W2        8141            0.0000000000
     24422      8141  TIP3      H1             34.7347133595      -43.1385722861       -7.5850596465  W2        8141            0.0000000000
     24423      8141  TIP3      H2             35.1624133595      -41.6974522861       -7.4058496465  W2        8141            0.0000000000
     24424      8142  TIP3      OH2            24.7612333595      -41.2931122861       -6.2092296465  W2        8142            0.0000000000
     24425      8142  TIP3      H1             24.3917533595      -42.0950622861       -6.5787996465  W2        8142            0.0000000000
     24426      8142  TIP3      H2             25.7023433595      -41.4616222861       -6.1628896465  W2        8142            0.0000000000
     24427      8143  TIP3      OH2            21.3712833595      -47.6328522861      -10.8163496465  W2        8143            0.0000000000
     24428      8143  TIP3      H1             20.9236233595      -46.7869822861      -10.8346996465  W2        8143            0.0000000000
     24429      8143  TIP3      H2             20.8104033595      -48.2124322861      -11.3318396465  W2        8143            0.0000000000
     24430      8144  TIP3      OH2            22.0818933595      -45.4708922861       -8.6905496465  W2        8144            0.0000000000
     24431      8144  TIP3      H1             22.2952433595      -46.2407322861       -8.1632496465  W2        8144            0.0000000000
     24432      8144  TIP3      H2             22.8196533595      -45.3812222861       -9.2937896465  W2        8144            0.0000000000
     24433      8145  TIP3      OH2            32.2869933595      -37.3140022861       -7.8235796465  W2        8145            0.0000000000
     24434      8145  TIP3      H1             32.9066333595      -37.9905322861       -8.0966596465  W2        8145            0.0000000000
     24435      8145  TIP3      H2             32.0787333595      -37.5319222861       -6.9150896465  W2        8145            0.0000000000
     24436      8146  TIP3      OH2            29.8588633595      -42.9250722861       -5.9310296465  W2        8146            0.0000000000
     24437      8146  TIP3      H1             30.1626533595      -43.6109322861       -6.5256196465  W2        8146            0.0000000000
     24438      8146  TIP3      H2             30.5802633595      -42.8062022861       -5.3132296465  W2        8146            0.0000000000
     24439      8147  TIP3      OH2            38.5218433595      -51.3235422861       -5.0704096465  W2        8147            0.0000000000
     24440      8147  TIP3      H1             38.5710633595      -50.7134222861       -4.3344996465  W2        8147            0.0000000000
     24441      8147  TIP3      H2             38.9473533595      -50.8624522861       -5.7932996465  W2        8147            0.0000000000
     24442      8148  TIP3      OH2            32.9995633595      -48.5308322861       -5.6035496465  W2        8148            0.0000000000
     24443      8148  TIP3      H1             33.1421533595      -49.4771322861       -5.5833896465  W2        8148            0.0000000000
     24444      8148  TIP3      H2             32.8934633595      -48.3238522861       -6.5320596465  W2        8148            0.0000000000
     24445      8149  TIP3      OH2            26.1543933595      -50.4291922861       -8.3310696465  W2        8149            0.0000000000
     24446      8149  TIP3      H1             26.1975033595      -49.5693422861       -8.7494396465  W2        8149            0.0000000000
     24447      8149  TIP3      H2             25.6968033595      -50.9817222861       -8.9647496465  W2        8149            0.0000000000
     24448      8150  TIP3      OH2            33.8766633595      -50.2986322861       -9.9302396465  W2        8150            0.0000000000
     24449      8150  TIP3      H1             34.5230933595      -50.6273122861       -9.3054796465  W2        8150            0.0000000000
     24450      8150  TIP3      H2             34.3866033595      -49.7807322861      -10.5530996465  W2        8150            0.0000000000
     24451      8151  TIP3      OH2            22.7745433595      -48.0326122861       -7.5689296465  W2        8151            0.0000000000
     24452      8151  TIP3      H1             23.4282033595      -48.5824422861       -7.1369196465  W2        8151            0.0000000000
     24453      8151  TIP3      H2             22.7984733595      -48.3067122861       -8.4857296465  W2        8151            0.0000000000
     24454      8152  TIP3      OH2            27.9309933595      -46.4824822861       -8.3537796465  W2        8152            0.0000000000
     24455      8152  TIP3      H1             28.5470933595      -47.0089422861       -7.8443796465  W2        8152            0.0000000000
     24456      8152  TIP3      H2             27.3448733595      -47.1226122861       -8.7574196465  W2        8152            0.0000000000
     24457      8153  TIP3      OH2            38.9133033595      -49.8456222861       -2.8344296465  W2        8153            0.0000000000
     24458      8153  TIP3      H1             38.2247633595      -49.1875522861       -2.9297696465  W2        8153            0.0000000000
     24459      8153  TIP3      H2             38.9287633595      -50.0428322861       -1.8978896465  W2        8153            0.0000000000
     24460      8154  TIP3      OH2            24.9645833595      -51.5113522861       -4.2569896465  W2        8154            0.0000000000
     24461      8154  TIP3      H1             24.7457533595      -50.9812922861       -5.0233896465  W2        8154            0.0000000000
     24462      8154  TIP3      H2             24.2966733595      -51.2848022861       -3.6098496465  W2        8154            0.0000000000
     24463      8155  TIP3      OH2            32.3335633595      -42.0112422861      -10.7130796465  W2        8155            0.0000000000
     24464      8155  TIP3      H1             32.0380733595      -42.3340122861      -11.5643896465  W2        8155            0.0000000000
     24465      8155  TIP3      H2             32.0093433595      -41.1115722861      -10.6718196465  W2        8155            0.0000000000
     24466      8156  TIP3      OH2            27.5337233595      -43.8357822861       -3.9696196465  W2        8156            0.0000000000
     24467      8156  TIP3      H1             26.7936333595      -43.2376322861       -3.8660996465  W2        8156            0.0000000000
     24468      8156  TIP3      H2             28.2476733595      -43.2818222861       -4.2852596465  W2        8156            0.0000000000
     24469      8157  TIP3      OH2            35.6405033595      -51.0077022861       -7.9496496465  W2        8157            0.0000000000
     24470      8157  TIP3      H1             35.4253033595      -51.7733622861       -7.4170496465  W2        8157            0.0000000000
     24471      8157  TIP3      H2             36.2962433595      -50.5352422861       -7.4367996465  W2        8157            0.0000000000
     24472      8158  TIP3      OH2            24.5583133595      -49.6191722861       -6.3047696465  W2        8158            0.0000000000
     24473      8158  TIP3      H1             25.1719433595      -48.9864122861       -5.9315296465  W2        8158            0.0000000000
     24474      8158  TIP3      H2             25.0703833595      -50.0916722861       -6.9610796465  W2        8158            0.0000000000
     24475      8159  TIP3      OH2            25.9411533595      -41.8714822861       -3.1824696465  W2        8159            0.0000000000
     24476      8159  TIP3      H1             25.9359133595      -40.9921322861       -3.5605396465  W2        8159            0.0000000000
     24477      8159  TIP3      H2             25.0875633595      -41.9550722861       -2.7574796465  W2        8159            0.0000000000
     24478      8160  TIP3      OH2            22.0622433595      -42.2006922861      -12.4005396465  W2        8160            0.0000000000
     24479      8160  TIP3      H1             21.7903333595      -41.9715922861      -13.2892496465  W2        8160            0.0000000000
     24480      8160  TIP3      H2             22.1078133595      -41.3628122861      -11.9400096465  W2        8160            0.0000000000
     24481      8161  TIP3      OH2            35.6872133595      -40.5791022861       -5.6876896465  W2        8161            0.0000000000
     24482      8161  TIP3      H1             34.7455833595      -40.5207122861       -5.5259996465  W2        8161            0.0000000000
     24483      8161  TIP3      H2             35.9638233595      -39.6730522861       -5.8247196465  W2        8161            0.0000000000
     24484      8162  TIP3      OH2            35.9879133595      -52.2925722861       -4.2702996465  W2        8162            0.0000000000
     24485      8162  TIP3      H1             35.2518333595      -51.6818622861       -4.3081696465  W2        8162            0.0000000000
     24486      8162  TIP3      H2             36.6713133595      -51.8776722861       -4.7966596465  W2        8162            0.0000000000
     24487      8163  TIP3      OH2            28.9910533595      -54.2058422861       -6.8044996465  W2        8163            0.0000000000
     24488      8163  TIP3      H1             28.8734733595      -55.1542422861       -6.8586696465  W2        8163            0.0000000000
     24489      8163  TIP3      H2             28.1360633595      -53.8732322861       -6.5313896465  W2        8163            0.0000000000
     24490      8164  TIP3      OH2            33.9393333595      -38.7977522861       -9.0625296465  W2        8164            0.0000000000
     24491      8164  TIP3      H1             34.3645633595      -39.5049622861       -9.5475696465  W2        8164            0.0000000000
     24492      8164  TIP3      H2             34.2563333595      -37.9964822861       -9.4793096465  W2        8164            0.0000000000
     24493      8165  TIP3      OH2            35.0989833595      -40.8969022861      -10.5538696465  W2        8165            0.0000000000
     24494      8165  TIP3      H1             34.8414633595      -41.5868922861      -11.1652796465  W2        8165            0.0000000000
     24495      8165  TIP3      H2             35.1700633595      -41.3397822861       -9.7082796465  W2        8165            0.0000000000
     24496      8166  TIP3      OH2            36.7850033595      -42.3302322861       -2.0765196465  W2        8166            0.0000000000
     24497      8166  TIP3      H1             36.9246333595      -42.9219822861       -2.8158196465  W2        8166            0.0000000000
     24498      8166  TIP3      H2             36.9522833595      -41.4576422861       -2.4326396465  W2        8166            0.0000000000
     24499      8167  TIP3      OH2            31.2575433595      -45.3682822861      -12.3039196465  W2        8167            0.0000000000
     24500      8167  TIP3      H1             30.5460933595      -44.8333122861      -12.6558696465  W2        8167            0.0000000000
     24501      8167  TIP3      H2             31.9485033595      -45.3130722861      -12.9640296465  W2        8167            0.0000000000
     24502      8168  TIP3      OH2            31.3114633595      -46.9108522861      -15.2654196465  W2        8168            0.0000000000
     24503      8168  TIP3      H1             32.0124533595      -46.8881622861      -14.6140196465  W2        8168            0.0000000000
     24504      8168  TIP3      H2             31.6137533595      -47.5388822861      -15.9214896465  W2        8168            0.0000000000
     24505      8169  TIP3      OH2            38.6269333595      -45.9904322861       -4.0104796465  W2        8169            0.0000000000
     24506      8169  TIP3      H1             37.9743433595      -45.2958722861       -3.9213896465  W2        8169            0.0000000000
     24507      8169  TIP3      H2             39.0919633595      -45.7803422861       -4.8203196465  W2        8169            0.0000000000
     24508      8170  TIP3      OH2            34.6633133595      -45.1589522861      -11.3523296465  W2        8170            0.0000000000
     24509      8170  TIP3      H1             33.9314133595      -44.9305822861      -10.7792696465  W2        8170            0.0000000000
     24510      8170  TIP3      H2             35.1105333595      -45.8726822861      -10.8975796465  W2        8170            0.0000000000
     24511      8171  TIP3      OH2            34.5606633595      -46.9846922861       -2.2846296465  W2        8171            0.0000000000
     24512      8171  TIP3      H1             34.6405733595      -46.2212522861       -1.7127796465  W2        8171            0.0000000000
     24513      8171  TIP3      H2             33.9594333595      -46.7054522861       -2.9751196465  W2        8171            0.0000000000
     24514      8172  TIP3      OH2            26.3086833595      -44.5283322861       -9.4698296465  W2        8172            0.0000000000
     24515      8172  TIP3      H1             25.9782033595      -44.8989922861      -10.2881296465  W2        8172            0.0000000000
     24516      8172  TIP3      H2             26.8970933595      -45.1989322861       -9.1229996465  W2        8172            0.0000000000
     24517      8173  TIP3      OH2            27.6754333595      -41.1002722861       -6.7886096465  W2        8173            0.0000000000
     24518      8173  TIP3      H1             27.5805633595      -41.6789622861       -7.5451496465  W2        8173            0.0000000000
     24519      8173  TIP3      H2             28.4047933595      -41.4717022861       -6.2923296465  W2        8173            0.0000000000
     24520      8174  TIP3      OH2            26.6752333595      -45.7597722861       -5.8363296465  W2        8174            0.0000000000
     24521      8174  TIP3      H1             27.2404833595      -45.6383522861       -6.5992096465  W2        8174            0.0000000000
     24522      8174  TIP3      H2             26.9941233595      -45.1222722861       -5.1974796465  W2        8174            0.0000000000
     24523      8175  TIP3      OH2            32.9844533595      -40.2565822861       -5.1022796465  W2        8175            0.0000000000
     24524      8175  TIP3      H1             32.7441133595      -39.5942722861       -4.4543596465  W2        8175            0.0000000000
     24525      8175  TIP3      H2             32.7862733595      -41.0910622861       -4.6773196465  W2        8175            0.0000000000
     24526      8176  TIP3      OH2            27.5553033595      -41.3605022861       -1.1191396465  W2        8176            0.0000000000
     24527      8176  TIP3      H1             27.2440533595      -40.5781822861       -0.6638196465  W2        8176            0.0000000000
     24528      8176  TIP3      H2             26.9053233595      -41.5135922861       -1.8049396465  W2        8176            0.0000000000
     24529      8177  TIP3      OH2            33.5342633595      -45.9966622861      -13.6672096465  W2        8177            0.0000000000
     24530      8177  TIP3      H1             34.1138133595      -45.8466322861      -12.9203196465  W2        8177            0.0000000000
     24531      8177  TIP3      H2             33.9482633595      -45.5259222861      -14.3905696465  W2        8177            0.0000000000
     24532      8178  TIP3      OH2            24.4752933595      -45.1623922861       -1.8905696465  W2        8178            0.0000000000
     24533      8178  TIP3      H1             24.5456133595      -44.5117122861       -1.1920696465  W2        8178            0.0000000000
     24534      8178  TIP3      H2             23.5845133595      -45.0596422861       -2.2254796465  W2        8178            0.0000000000
     24535      8179  TIP3      OH2            31.2607533595      -39.2598122861      -10.2318996465  W2        8179            0.0000000000
     24536      8179  TIP3      H1             31.7345133595      -38.9641822861       -9.4544796465  W2        8179            0.0000000000
     24537      8179  TIP3      H2             30.6976833595      -38.5216522861      -10.4649396465  W2        8179            0.0000000000
     24538      8180  TIP3      OH2            25.7948933595      -39.2890022861       -0.3557596465  W2        8180            0.0000000000
     24539      8180  TIP3      H1             25.8024233595      -39.4250322861       -1.3032096465  W2        8180            0.0000000000
     24540      8180  TIP3      H2             24.8789333595      -39.4061922861       -0.1037596465  W2        8180            0.0000000000
     24541      8181  TIP3      OH2            37.2331033595      -54.2466222861      -13.8542396465  W2        8181            0.0000000000
     24542      8181  TIP3      H1             36.3331733595      -54.1077222861      -13.5591796465  W2        8181            0.0000000000
     24543      8181  TIP3      H2             37.4849433595      -53.4151622861      -14.2560696465  W2        8181            0.0000000000
     24544      8182  TIP3      OH2            25.2989533595      -45.4589022861      -11.8805496465  W2        8182            0.0000000000
     24545      8182  TIP3      H1             25.0070833595      -44.6907322861      -12.3714196465  W2        8182            0.0000000000
     24546      8182  TIP3      H2             24.6244733595      -46.1182822861      -12.0434096465  W2        8182            0.0000000000
     24547      8183  TIP3      OH2            38.4222433595      -39.8803822861      -15.4778496465  W2        8183            0.0000000000
     24548      8183  TIP3      H1             38.4955933595      -38.9413622861      -15.3073196465  W2        8183            0.0000000000
     24549      8183  TIP3      H2             39.3277533595      -40.1855222861      -15.5341196465  W2        8183            0.0000000000
     24550      8184  TIP3      OH2            21.3919633595      -43.0959822861       -3.0655696465  W2        8184            0.0000000000
     24551      8184  TIP3      H1             20.8908033595      -43.1240422861       -3.8805996465  W2        8184            0.0000000000
     24552      8184  TIP3      H2             21.3973333595      -44.0016622861       -2.7558396465  W2        8184            0.0000000000
     24553      8185  TIP3      OH2            21.1422333595      -40.3156022861       -6.1815496465  W2        8185            0.0000000000
     24554      8185  TIP3      H1             22.0882933595      -40.4599022861       -6.2005996465  W2        8185            0.0000000000
     24555      8185  TIP3      H2             21.0298633595      -39.5313222861       -5.6444296465  W2        8185            0.0000000000
     24556      8186  TIP3      OH2            39.3400833595      -39.6496322861       -0.4991796465  W2        8186            0.0000000000
     24557      8186  TIP3      H1             39.2907633595      -40.6048222861       -0.5364196465  W2        8186            0.0000000000
     24558      8186  TIP3      H2             38.5133133595      -39.3821022861       -0.0977996465  W2        8186            0.0000000000
     24559      8187  TIP3      OH2            30.3184833595      -40.0757122861       -1.6230396465  W2        8187            0.0000000000
     24560      8187  TIP3      H1             30.4059433595      -39.2492522861       -1.1481296465  W2        8187            0.0000000000
     24561      8187  TIP3      H2             29.4549933595      -40.4053322861       -1.3741096465  W2        8187            0.0000000000
     24562      8188  TIP3      OH2            30.7330633595      -36.3033422861      -11.8169796465  W2        8188            0.0000000000
     24563      8188  TIP3      H1             30.6576633595      -36.4246222861      -12.7634596465  W2        8188            0.0000000000
     24564      8188  TIP3      H2             30.7659333595      -35.3540722861      -11.6985196465  W2        8188            0.0000000000
     24565      8189  TIP3      OH2            24.3864433595      -37.5146422861      -10.0360796465  W2        8189            0.0000000000
     24566      8189  TIP3      H1             24.5384833595      -37.8626022861       -9.1574296465  W2        8189            0.0000000000
     24567      8189  TIP3      H2             23.5354833595      -37.8709122861      -10.2913596465  W2        8189            0.0000000000
     24568      8190  TIP3      OH2            33.8346633595      -37.1493222861      -14.8147396465  W2        8190            0.0000000000
     24569      8190  TIP3      H1             34.2095033595      -37.8937122861      -15.2854796465  W2        8190            0.0000000000
     24570      8190  TIP3      H2             33.8390333595      -37.4192622861      -13.8964096465  W2        8190            0.0000000000
     24571      8191  TIP3      OH2            33.5034733595      -37.2236122861      -12.0655196465  W2        8191            0.0000000000
     24572      8191  TIP3      H1             32.5684533595      -37.1234222861      -11.8868196465  W2        8191            0.0000000000
     24573      8191  TIP3      H2             33.7836633595      -37.9330122861      -11.4871996465  W2        8191            0.0000000000
     24574      8192  TIP3      OH2            36.4920633595      -48.1563822861       -0.0189596465  W2        8192            0.0000000000
     24575      8192  TIP3      H1             36.0847433595      -47.6758222861       -0.7396296465  W2        8192            0.0000000000
     24576      8192  TIP3      H2             36.5326333595      -49.0617822861       -0.3268796465  W2        8192            0.0000000000
     24577      8193  TIP3      OH2            23.6410133595      -41.7724422861       -2.0222896465  W2        8193            0.0000000000
     24578      8193  TIP3      H1             23.8571433595      -42.1338822861       -1.1627096465  W2        8193            0.0000000000
     24579      8193  TIP3      H2             22.7854833595      -42.1470622861       -2.2319396465  W2        8193            0.0000000000
     24580      8194  TIP3      OH2            26.2598133595      -53.3023922861       -6.0268696465  W2        8194            0.0000000000
     24581      8194  TIP3      H1             25.3981833595      -53.3895722861       -6.4345796465  W2        8194            0.0000000000
     24582      8194  TIP3      H2             26.2373833595      -52.4463822861       -5.5991096465  W2        8194            0.0000000000
     24583      8195  TIP3      OH2            30.9225933595      -53.5803522861       -2.6521696465  W2        8195            0.0000000000
     24584      8195  TIP3      H1             31.3429033595      -53.9956422861       -1.8991096465  W2        8195            0.0000000000
     24585      8195  TIP3      H2             29.9895533595      -53.7590222861       -2.5349696465  W2        8195            0.0000000000
     24586      8196  TIP3      OH2            34.2490833595      -49.8248322861       -1.7987196465  W2        8196            0.0000000000
     24587      8196  TIP3      H1             33.7350333595      -49.9506122861       -1.0011196465  W2        8196            0.0000000000
     24588      8196  TIP3      H2             34.0935533595      -48.9125222861       -2.0430996465  W2        8196            0.0000000000
     24589      8197  TIP3      OH2            35.0115733595      -44.9638322861      -16.0374196465  W2        8197            0.0000000000
     24590      8197  TIP3      H1             35.0536533595      -45.1864422861      -16.9674196465  W2        8197            0.0000000000
     24591      8197  TIP3      H2             35.8607833595      -44.5651222861      -15.8474296465  W2        8197            0.0000000000
     24592      8198  TIP3      OH2            30.5843233595      -51.0880122861      -15.3670896465  W2        8198            0.0000000000
     24593      8198  TIP3      H1             30.3308033595      -51.0688522861      -14.4442796465  W2        8198            0.0000000000
     24594      8198  TIP3      H2             30.3275333595      -51.9594722861      -15.6684696465  W2        8198            0.0000000000
     24595      8199  TIP3      OH2            26.3508233595      -48.3369422861       -4.9318496465  W2        8199            0.0000000000
     24596      8199  TIP3      H1             25.7090333595      -48.3772122861       -4.2228396465  W2        8199            0.0000000000
     24597      8199  TIP3      H2             26.3880233595      -47.4104722861       -5.1695496465  W2        8199            0.0000000000
     24598      8200  TIP3      OH2            26.3477333595      -48.1159322861      -10.0198496465  W2        8200            0.0000000000
     24599      8200  TIP3      H1             25.4550233595      -48.4563222861      -10.0784696465  W2        8200            0.0000000000
     24600      8200  TIP3      H2             26.7983933595      -48.4928422861      -10.7755296465  W2        8200            0.0000000000
     24601      8201  TIP3      OH2            31.8832833595      -47.6999022861      -11.2027696465  W2        8201            0.0000000000
     24602      8201  TIP3      H1             31.4743133595      -46.8850422861      -11.4942896465  W2        8201            0.0000000000
     24603      8201  TIP3      H2             32.6039033595      -47.8398922861      -11.8170596465  W2        8201            0.0000000000
     24604      8202  TIP3      OH2            30.9854433595      -47.5242622861        0.2853003535  W2        8202            0.0000000000
     24605      8202  TIP3      H1             30.4228233595      -48.2291022861        0.6060803535  W2        8202            0.0000000000
     24606      8202  TIP3      H2             31.8117833595      -47.6450722861        0.7530603535  W2        8202            0.0000000000
     24607      8203  TIP3      OH2            32.8880533595      -48.2538622861       -8.3887996465  W2        8203            0.0000000000
     24608      8203  TIP3      H1             32.6925033595      -47.6481822861       -9.1037396465  W2        8203            0.0000000000
     24609      8203  TIP3      H2             33.0693133595      -49.0873422861       -8.8231696465  W2        8203            0.0000000000
     24610      8204  TIP3      OH2            24.1008733595      -48.0165922861       -3.0646496465  W2        8204            0.0000000000
     24611      8204  TIP3      H1             24.0628133595      -47.6164322861       -2.1959396465  W2        8204            0.0000000000
     24612      8204  TIP3      H2             23.6099833595      -48.8333522861       -2.9743596465  W2        8204            0.0000000000
     24613      8205  TIP3      OH2            27.4666133595      -50.6423622861      -16.2660496465  W2        8205            0.0000000000
     24614      8205  TIP3      H1             27.0356833595      -51.0873522861      -15.5363096465  W2        8205            0.0000000000
     24615      8205  TIP3      H2             26.7484833595      -50.2707322861      -16.7782996465  W2        8205            0.0000000000
     24616      8206  TIP3      OH2            20.7089533595      -50.9004122861       -9.2141796465  W2        8206            0.0000000000
     24617      8206  TIP3      H1             21.3397233595      -50.9292022861       -8.4947896465  W2        8206            0.0000000000
     24618      8206  TIP3      H2             21.1583833595      -51.3255422861       -9.9445896465  W2        8206            0.0000000000
     24619      8207  TIP3      OH2            21.9831633595      -50.1542122861      -13.7901396465  W2        8207            0.0000000000
     24620      8207  TIP3      H1             22.4573333595      -49.5632222861      -14.3750496465  W2        8207            0.0000000000
     24621      8207  TIP3      H2             21.2658033595      -49.6239222861      -13.4431296465  W2        8207            0.0000000000
     24622      8208  TIP3      OH2            32.1519733595      -46.6157322861       -3.7175596465  W2        8208            0.0000000000
     24623      8208  TIP3      H1             32.4754533595      -47.2467622861       -4.3605096465  W2        8208            0.0000000000
     24624      8208  TIP3      H2             31.7119033595      -47.1505122861       -3.0568196465  W2        8208            0.0000000000
     24625      8209  TIP3      OH2            28.9292633595      -50.6881822861       -8.9334396465  W2        8209            0.0000000000
     24626      8209  TIP3      H1             28.0183733595      -50.6315022861       -8.6448396465  W2        8209            0.0000000000
     24627      8209  TIP3      H2             29.4345533595      -50.7486322861       -8.1227196465  W2        8209            0.0000000000
     24628      8210  TIP3      OH2            23.7576033595      -49.0595522861      -10.1066796465  W2        8210            0.0000000000
     24629      8210  TIP3      H1             22.8684033595      -48.9600022861      -10.4467196465  W2        8210            0.0000000000
     24630      8210  TIP3      H2             24.0540933595      -49.9012522861      -10.4528896465  W2        8210            0.0000000000
     24631      8211  TIP3      OH2            27.4107833595      -49.0592922861      -12.4502196465  W2        8211            0.0000000000
     24632      8211  TIP3      H1             28.3423333595      -48.9302922861      -12.2719096465  W2        8211            0.0000000000
     24633      8211  TIP3      H2             27.1958133595      -48.3898622861      -13.0997496465  W2        8211            0.0000000000
     24634      8212  TIP3      OH2            33.3344533595      -51.4535522861       -5.6692596465  W2        8212            0.0000000000
     24635      8212  TIP3      H1             32.6576133595      -51.3222422861       -5.0052896465  W2        8212            0.0000000000
     24636      8212  TIP3      H2             32.8489433595      -51.6086022861       -6.4794896465  W2        8212            0.0000000000
     24637      8213  TIP3      OH2            26.0848033595      -47.8650722861      -14.8836096465  W2        8213            0.0000000000
     24638      8213  TIP3      H1             25.5423133595      -48.2446922861      -15.5748496465  W2        8213            0.0000000000
     24639      8213  TIP3      H2             26.9182933595      -47.6706022861      -15.3121996465  W2        8213            0.0000000000
     24640      8214  TIP3      OH2            36.6219633595      -35.7820122861        0.6075003535  W2        8214            0.0000000000
     24641      8214  TIP3      H1             36.8218333595      -35.3578222861       -0.2269696465  W2        8214            0.0000000000
     24642      8214  TIP3      H2             37.2773333595      -35.4381922861        1.2145403535  W2        8214            0.0000000000
     24643      8215  TIP3      OH2            24.2199433595      -43.3078822861        0.2155503535  W2        8215            0.0000000000
     24644      8215  TIP3      H1             24.9521833595      -43.0532922861        0.7770003535  W2        8215            0.0000000000
     24645      8215  TIP3      H2             23.4398133595      -43.1033422861        0.7310903535  W2        8215            0.0000000000
     24646      8216  TIP3      OH2            30.2492333595      -47.9008822861       -7.0464796465  W2        8216            0.0000000000
     24647      8216  TIP3      H1             30.8135733595      -48.4472222861       -7.5935196465  W2        8216            0.0000000000
     24648      8216  TIP3      H2             30.1015733595      -48.4226922861       -6.2577196465  W2        8216            0.0000000000
     24649      8217  TIP3      OH2            25.2512033595      -51.7642722861      -10.6279996465  W2        8217            0.0000000000
     24650      8217  TIP3      H1             24.9341533595      -52.6667422861      -10.6634596465  W2        8217            0.0000000000
     24651      8217  TIP3      H2             26.0326133595      -51.7625322861      -11.1808396465  W2        8217            0.0000000000
     24652      8218  TIP3      OH2            28.8758233595      -49.5122722861       -4.6324396465  W2        8218            0.0000000000
     24653      8218  TIP3      H1             28.0403533595      -49.0583222861       -4.5221996465  W2        8218            0.0000000000
     24654      8218  TIP3      H2             29.3998833595      -49.2364222861       -3.8804496465  W2        8218            0.0000000000
     24655      8219  TIP3      OH2            29.4200833595      -43.2995022861      -12.9477996465  W2        8219            0.0000000000
     24656      8219  TIP3      H1             28.6751833595      -43.8069722861      -13.2700096465  W2        8219            0.0000000000
     24657      8219  TIP3      H2             29.2858033595      -43.2507022861      -12.0013196465  W2        8219            0.0000000000
     24658      8220  TIP3      OH2            36.5699733595      -44.1666822861       -4.1610396465  W2        8220            0.0000000000
     24659      8220  TIP3      H1             37.2118533595      -43.7100522861       -4.7048196465  W2        8220            0.0000000000
     24660      8220  TIP3      H2             35.7396633595      -44.0534422861       -4.6236296465  W2        8220            0.0000000000
     24661      8221  TIP3      OH2            33.3177633595      -50.4855122861      -14.7485396465  W2        8221            0.0000000000
     24662      8221  TIP3      H1             32.3791833595      -50.3739522861      -14.8996596465  W2        8221            0.0000000000
     24663      8221  TIP3      H2             33.6149733595      -49.6288222861      -14.4419696465  W2        8221            0.0000000000
     24664      8222  TIP3      OH2            30.9392933595      -43.1151722861       -1.7108896465  W2        8222            0.0000000000
     24665      8222  TIP3      H1             30.5939033595      -43.4969322861       -0.9039296465  W2        8222            0.0000000000
     24666      8222  TIP3      H2             30.7393033595      -42.1818122861       -1.6395996465  W2        8222            0.0000000000
     24667      8223  TIP3      OH2            34.0361133595      -48.6182422861      -13.0877996465  W2        8223            0.0000000000
     24668      8223  TIP3      H1             34.9280133595      -48.7557422861      -12.7686796465  W2        8223            0.0000000000
     24669      8223  TIP3      H2             34.0924733595      -47.8276322861      -13.6244496465  W2        8223            0.0000000000
     24670      8224  TIP3      OH2            24.5449133595      -44.0045022861       -7.1780096465  W2        8224            0.0000000000
     24671      8224  TIP3      H1             25.2896333595      -44.0069322861       -7.7793596465  W2        8224            0.0000000000
     24672      8224  TIP3      H2             24.6225733595      -44.8281222861       -6.6964996465  W2        8224            0.0000000000
     24673      8225  TIP3      OH2            31.5454933595      -41.8410722861      -13.9223396465  W2        8225            0.0000000000
     24674      8225  TIP3      H1             31.2503333595      -41.0142822861      -13.5408596465  W2        8225            0.0000000000
     24675      8225  TIP3      H2             30.8424933595      -42.4603822861      -13.7261996465  W2        8225            0.0000000000
     24676      8226  TIP3      OH2            21.5528833595      -45.5438122861       -1.8631596465  W2        8226            0.0000000000
     24677      8226  TIP3      H1             21.7757433595      -45.9618522861       -1.0314096465  W2        8226            0.0000000000
     24678      8226  TIP3      H2             20.9508933595      -46.1563122861       -2.2858796465  W2        8226            0.0000000000
     24679      8227  TIP3      OH2            28.5693733595      -46.0268222861        0.3498103535  W2        8227            0.0000000000
     24680      8227  TIP3      H1             28.2734533595      -46.1925222861       -0.5452796465  W2        8227            0.0000000000
     24681      8227  TIP3      H2             29.5008933595      -46.2467922861        0.3392003535  W2        8227            0.0000000000
     24682      8228  TIP3      OH2            33.1896533595      -40.6536222861       -1.7603896465  W2        8228            0.0000000000
     24683      8228  TIP3      H1             32.2890833595      -40.4703622861       -2.0279996465  W2        8228            0.0000000000
     24684      8228  TIP3      H2             33.2237633595      -40.3946922861       -0.8395096465  W2        8228            0.0000000000
     24685      8229  TIP3      OH2            38.9209833595      -48.4088322861      -13.3931296465  W2        8229            0.0000000000
     24686      8229  TIP3      H1             38.3666133595      -48.8050322861      -14.0653796465  W2        8229            0.0000000000
     24687      8229  TIP3      H2             39.0213433595      -47.4983122861      -13.6707996465  W2        8229            0.0000000000
     24688      8230  TIP3      OH2            38.8841833595      -42.6086622861       -0.5559796465  W2        8230            0.0000000000
     24689      8230  TIP3      H1             38.0330333595      -42.3702822861       -0.9233396465  W2        8230            0.0000000000
     24690      8230  TIP3      H2             39.4745233595      -42.6253422861       -1.3092696465  W2        8230            0.0000000000
     24691      8231  TIP3      OH2            37.2161533595      -39.6227922861      -12.9279196465  W2        8231            0.0000000000
     24692      8231  TIP3      H1             36.8432633595      -40.4484122861      -12.6188596465  W2        8231            0.0000000000
     24693      8231  TIP3      H2             37.4935033595      -39.8058522861      -13.8255796465  W2        8231            0.0000000000
     24694      8232  TIP3      OH2            34.3765433595      -44.8148422861       -5.9067296465  W2        8232            0.0000000000
     24695      8232  TIP3      H1             33.4482333595      -45.0466522861       -5.9337996465  W2        8232            0.0000000000
     24696      8232  TIP3      H2             34.8276533595      -45.5918622861       -6.2368496465  W2        8232            0.0000000000
     24697      8233  TIP3      OH2            26.9198533595      -40.4866822861       -9.7738596465  W2        8233            0.0000000000
     24698      8233  TIP3      H1             27.4470733595      -39.7132422861       -9.9739796465  W2        8233            0.0000000000
     24699      8233  TIP3      H2             26.0397033595      -40.2617622861      -10.0754596465  W2        8233            0.0000000000
     24700      8234  TIP3      OH2            22.6746233595      -45.6242722861      -15.1866196465  W2        8234            0.0000000000
     24701      8234  TIP3      H1             23.2906133595      -44.9975522861      -14.8071396465  W2        8234            0.0000000000
     24702      8234  TIP3      H2             21.8128833595      -45.3082922861      -14.9149696465  W2        8234            0.0000000000
     24703      8235  TIP3      OH2            28.3470833595      -42.8236922861      -10.1974296465  W2        8235            0.0000000000
     24704      8235  TIP3      H1             28.1060833595      -41.8982522861      -10.1558996465  W2        8235            0.0000000000
     24705      8235  TIP3      H2             27.6064433595      -43.2825622861       -9.8010396465  W2        8235            0.0000000000
     24706      8236  TIP3      OH2            28.8617433595      -38.6743322861       -3.8823196465  W2        8236            0.0000000000
     24707      8236  TIP3      H1             29.2242133595      -37.8197722861       -4.1158796465  W2        8236            0.0000000000
     24708      8236  TIP3      H2             29.3932633595      -38.9661722861       -3.1416896465  W2        8236            0.0000000000
     24709      8237  TIP3      OH2            27.0301633595      -37.8019322861      -10.6522096465  W2        8237            0.0000000000
     24710      8237  TIP3      H1             26.0802133595      -37.6961922861      -10.6008796465  W2        8237            0.0000000000
     24711      8237  TIP3      H2             27.3819733595      -36.9811922861      -10.3074596465  W2        8237            0.0000000000
     24712      8238  TIP3      OH2            32.4058233595      -42.5752622861       -4.1817596465  W2        8238            0.0000000000
     24713      8238  TIP3      H1             31.9799533595      -42.8030922861       -3.3553596465  W2        8238            0.0000000000
     24714      8238  TIP3      H2             32.9864033595      -43.3140822861       -4.3642296465  W2        8238            0.0000000000
     24715      8239  TIP3      OH2            34.6087133595      -41.6462122861      -15.1078596465  W2        8239            0.0000000000
     24716      8239  TIP3      H1             34.9620233595      -42.0262322861      -14.3035096465  W2        8239            0.0000000000
     24717      8239  TIP3      H2             33.6600633595      -41.7397322861      -15.0209296465  W2        8239            0.0000000000
     24718      8240  TIP3      OH2            35.0642433595      -38.0233122861       -1.7122796465  W2        8240            0.0000000000
     24719      8240  TIP3      H1             34.4625633595      -38.5790222861       -2.2076496465  W2        8240            0.0000000000
     24720      8240  TIP3      H2             35.3456133595      -37.3563322861       -2.3385396465  W2        8240            0.0000000000
     24721      8241  TIP3      OH2            39.1121533595      -37.1669622861      -14.9068396465  W2        8241            0.0000000000
     24722      8241  TIP3      H1             39.8559433595      -36.5809122861      -15.0466796465  W2        8241            0.0000000000
     24723      8241  TIP3      H2             38.4179633595      -36.5983822861      -14.5735996465  W2        8241            0.0000000000
     24724      8242  TIP3      OH2            23.1868333595      -50.7905422861       -2.3050196465  W2        8242            0.0000000000
     24725      8242  TIP3      H1             22.2940633595      -50.4520022861       -2.3726196465  W2        8242            0.0000000000
     24726      8242  TIP3      H2             23.0881133595      -51.6459322861       -1.8869396465  W2        8242            0.0000000000
     24727      8243  TIP3      OH2            35.4746433595      -42.9740122861      -12.8810696465  W2        8243            0.0000000000
     24728      8243  TIP3      H1             35.1974033595      -43.7020822861      -12.3249596465  W2        8243            0.0000000000
     24729      8243  TIP3      H2             36.4019433595      -42.8548122861      -12.6758096465  W2        8243            0.0000000000
     24730      8244  TIP3      OH2            22.8380333595      -38.9861022861       -3.8700796465  W2        8244            0.0000000000
     24731      8244  TIP3      H1             23.0550633595      -39.9178622861       -3.9011096465  W2        8244            0.0000000000
     24732      8244  TIP3      H2             23.0843833595      -38.7116022861       -2.9867996465  W2        8244            0.0000000000
     24733      8245  TIP3      OH2            28.6994933595      -40.5346022861      -16.6608596465  W2        8245            0.0000000000
     24734      8245  TIP3      H1             28.9384733595      -41.2827922861      -17.2079696465  W2        8245            0.0000000000
     24735      8245  TIP3      H2             28.4306233595      -40.9224322861      -15.8280796465  W2        8245            0.0000000000
     24736      8246  TIP3      OH2            27.6365533595      -40.9642222861      -14.2045996465  W2        8246            0.0000000000
     24737      8246  TIP3      H1             27.7833533595      -41.4842422861      -13.4145096465  W2        8246            0.0000000000
     24738      8246  TIP3      H2             27.6337233595      -40.0574622861      -13.8980096465  W2        8246            0.0000000000
     24739      8247  TIP3      OH2            24.0896633595      -43.7118922861      -13.6940596465  W2        8247            0.0000000000
     24740      8247  TIP3      H1             23.4035933595      -43.3596422861      -13.1270896465  W2        8247            0.0000000000
     24741      8247  TIP3      H2             24.6124533595      -42.9489322861      -13.9406296465  W2        8247            0.0000000000
     24742      8248  TIP3      OH2            31.9211733595      -51.0495122861       -3.4151596465  W2        8248            0.0000000000
     24743      8248  TIP3      H1             32.6199633595      -50.9756422861       -2.7651896465  W2        8248            0.0000000000
     24744      8248  TIP3      H2             31.5403133595      -51.9140122861       -3.2608696465  W2        8248            0.0000000000
     24745      8249  TIP3      OH2            32.7056633595      -51.3973422861      -12.3179296465  W2        8249            0.0000000000
     24746      8249  TIP3      H1             32.9254933595      -50.9258022861      -13.1213896465  W2        8249            0.0000000000
     24747      8249  TIP3      H2             33.2640633595      -51.0030822861      -11.6478696465  W2        8249            0.0000000000
     24748      8250  TIP3      OH2            30.3742733595      -39.2668622861      -13.4551796465  W2        8250            0.0000000000
     24749      8250  TIP3      H1             29.5578833595      -38.7698922861      -13.4027496465  W2        8250            0.0000000000
     24750      8250  TIP3      H2             30.9039033595      -38.7915122861      -14.0952996465  W2        8250            0.0000000000
     24751      8251  TIP3      OH2            29.9056533595      -49.6694622861      -11.4830896465  W2        8251            0.0000000000
     24752      8251  TIP3      H1             30.7179133595      -49.1651422861      -11.4369196465  W2        8251            0.0000000000
     24753      8251  TIP3      H2             29.6609533595      -49.8144922861      -10.5691296465  W2        8251            0.0000000000
     24754      8252  TIP3      OH2            30.4412933595      -48.6831922861       -2.2984296465  W2        8252            0.0000000000
     24755      8252  TIP3      H1             30.5603233595      -48.1096522861       -1.5413896465  W2        8252            0.0000000000
     24756      8252  TIP3      H2             31.0967533595      -49.3712522861       -2.1836496465  W2        8252            0.0000000000
     24757      8253  TIP3      OH2            30.7893233595      -52.5881622861      -10.5449796465  W2        8253            0.0000000000
     24758      8253  TIP3      H1             30.4426733595      -51.9711022861       -9.9005496465  W2        8253            0.0000000000
     24759      8253  TIP3      H2             31.4480133595      -52.0875922861      -11.0264296465  W2        8253            0.0000000000
     24760      8254  TIP3      OH2            27.7125833595      -38.2231422861      -13.4734896465  W2        8254            0.0000000000
     24761      8254  TIP3      H1             27.8734533595      -37.4233922861      -13.9742296465  W2        8254            0.0000000000
     24762      8254  TIP3      H2             27.5153633595      -37.9165422861      -12.5884296465  W2        8254            0.0000000000
     24763      8255  TIP3      OH2            26.4470233595      -51.5252222861      -13.8577296465  W2        8255            0.0000000000
     24764      8255  TIP3      H1             26.3635033595      -50.6369122861      -13.5110896465  W2        8255            0.0000000000
     24765      8255  TIP3      H2             27.3370533595      -51.7905522861      -13.6260496465  W2        8255            0.0000000000
     24766      8256  TIP3      OH2            36.6458733595      -50.7761622861       -1.4634596465  W2        8256            0.0000000000
     24767      8256  TIP3      H1             35.7294533595      -50.5139922861       -1.5510896465  W2        8256            0.0000000000
     24768      8256  TIP3      H2             36.9813733595      -50.7792622861       -2.3599296465  W2        8256            0.0000000000
     24769      8257  TIP3      OH2            35.2479733595      -47.0260622861       -7.3677296465  W2        8257            0.0000000000
     24770      8257  TIP3      H1             34.4504133595      -47.4410422861       -7.6962296465  W2        8257            0.0000000000
     24771      8257  TIP3      H2             35.6930833595      -47.7166922861       -6.8766796465  W2        8257            0.0000000000
     24772      8258  TIP3      OH2            24.7055533595      -41.0980022861      -14.7972796465  W2        8258            0.0000000000
     24773      8258  TIP3      H1             25.2977033595      -40.3985222861      -14.5210396465  W2        8258            0.0000000000
     24774      8258  TIP3      H2             25.1648533595      -41.5310522861      -15.5168196465  W2        8258            0.0000000000
     24775      8259  TIP3      OH2            23.0214733595      -48.4337022861      -15.6813396465  W2        8259            0.0000000000
     24776      8259  TIP3      H1             22.9767333595      -47.4943922861      -15.5026396465  W2        8259            0.0000000000
     24777      8259  TIP3      H2             22.1337933595      -48.6692122861      -15.9511296465  W2        8259            0.0000000000
     24778      8260  TIP3      OH2            36.3344333595      -37.7698122861       -5.7453796465  W2        8260            0.0000000000
     24779      8260  TIP3      H1             36.1788633595      -37.0913722861       -6.4024496465  W2        8260            0.0000000000
     24780      8260  TIP3      H2             37.2670733595      -37.6978822861       -5.5423196465  W2        8260            0.0000000000
     24781      8261  TIP3      OH2            23.8296733595      -53.6520422861       -7.0082396465  W2        8261            0.0000000000
     24782      8261  TIP3      H1             23.6006533595      -53.5927922861       -7.9357396465  W2        8261            0.0000000000
     24783      8261  TIP3      H2             23.3870133595      -54.4434922861       -6.7018296465  W2        8261            0.0000000000
     24784      8262  TIP3      OH2            22.7600033595      -39.7113322861      -10.8476596465  W2        8262            0.0000000000
     24785      8262  TIP3      H1             21.9278633595      -39.2390622861      -10.8205196465  W2        8262            0.0000000000
     24786      8262  TIP3      H2             23.3058333595      -39.2015722861      -11.4463496465  W2        8262            0.0000000000
     24787      8263  TIP3      OH2            22.0483733595      -37.0989622861        0.4821403535  W2        8263            0.0000000000
     24788      8263  TIP3      H1             22.5885933595      -37.3155622861        1.2420603535  W2        8263            0.0000000000
     24789      8263  TIP3      H2             21.5671733595      -37.9043622861        0.2923903535  W2        8263            0.0000000000
     24790      8264  TIP3      OH2            26.6457133595      -38.1795222861        2.1025603535  W2        8264            0.0000000000
     24791      8264  TIP3      H1             27.4134333595      -38.6384422861        2.4434803535  W2        8264            0.0000000000
     24792      8264  TIP3      H2             26.6243333595      -38.4055422861        1.1726803535  W2        8264            0.0000000000
     24793      8265  TIP3      OH2            30.7376733595      -38.6714622861      -16.5222596465  W2        8265            0.0000000000
     24794      8265  TIP3      H1             30.0937733595      -39.3026022861      -16.2008896465  W2        8265            0.0000000000
     24795      8265  TIP3      H2             31.4995033595      -39.2026622861      -16.7539096465  W2        8265            0.0000000000
     24796      8266  TIP3      OH2            33.2225833595      -39.7994122861        0.8317103535  W2        8266            0.0000000000
     24797      8266  TIP3      H1             32.8715333595      -40.6561122861        1.0747503535  W2        8266            0.0000000000
     24798      8266  TIP3      H2             33.9489033595      -39.6567422861        1.4386103535  W2        8266            0.0000000000
     24799      8267  TIP3      OH2            35.3419633595      -38.8544722861      -16.2884596465  W2        8267            0.0000000000
     24800      8267  TIP3      H1             35.6250033595      -39.6489522861      -15.8357696465  W2        8267            0.0000000000
     24801      8267  TIP3      H2             36.0817533595      -38.6213722861      -16.8493496465  W2        8267            0.0000000000
     24802      8268  TIP3      OH2            21.9553233595      -43.2885522861        1.4365703535  W2        8268            0.0000000000
     24803      8268  TIP3      H1             22.0993733595      -44.1904822861        1.1502403535  W2        8268            0.0000000000
     24804      8268  TIP3      H2             21.1830633595      -43.0023422861        0.9488003535  W2        8268            0.0000000000
     24805      8269  TIP3      OH2            26.2966933595      -42.9449822861      -16.4309696465  W2        8269            0.0000000000
     24806      8269  TIP3      H1             26.3611033595      -43.7390222861      -15.9003296465  W2        8269            0.0000000000
     24807      8269  TIP3      H2             26.9496133595      -43.0637022861      -17.1207696465  W2        8269            0.0000000000
     24808      8270  TIP3      OH2            28.6109333595      -43.3187422861        0.8692103535  W2        8270            0.0000000000
     24809      8270  TIP3      H1             28.2823133595      -43.0479322861        0.0119503535  W2        8270            0.0000000000
     24810      8270  TIP3      H2             28.7627533595      -44.2597622861        0.7817103535  W2        8270            0.0000000000
     24811      8271  TIP3      OH2            31.6490333595      -41.8978122861      -16.6951696465  W2        8271            0.0000000000
     24812      8271  TIP3      H1             31.3804433595      -41.7176022861      -15.7942796465  W2        8271            0.0000000000
     24813      8271  TIP3      H2             31.4425933595      -42.8231922861      -16.8265896465  W2        8271            0.0000000000
     24814      8272  TIP3      OH2            34.3454533595      -43.4030122861       -1.7475596465  W2        8272            0.0000000000
     24815      8272  TIP3      H1             35.0909333595      -42.8146422861       -1.8671596465  W2        8272            0.0000000000
     24816      8272  TIP3      H2             33.5881333595      -42.8210422861       -1.6842496465  W2        8272            0.0000000000
     24817      8273  TIP3      OH2            22.7879733595      -46.0882222861        0.8565003535  W2        8273            0.0000000000
     24818      8273  TIP3      H1             23.1960933595      -46.9455622861        0.7355603535  W2        8273            0.0000000000
     24819      8273  TIP3      H2             22.5277333595      -46.0740922861        1.7775303535  W2        8273            0.0000000000
     24820      8274  TIP3      OH2            27.4460733595      -44.9723622861      -14.1251696465  W2        8274            0.0000000000
     24821      8274  TIP3      H1             26.9862733595      -45.4565322861      -13.4393196465  W2        8274            0.0000000000
     24822      8274  TIP3      H2             27.7009433595      -45.6408222861      -14.7611196465  W2        8274            0.0000000000
     24823      8275  TIP3      OH2            26.7350033595      -47.0796522861       -1.7692096465  W2        8275            0.0000000000
     24824      8275  TIP3      H1             26.1166133595      -46.4049922861       -1.4887396465  W2        8275            0.0000000000
     24825      8275  TIP3      H2             27.0791233595      -46.7582622861       -2.6025896465  W2        8275            0.0000000000
     24826      8276  TIP3      OH2            28.5171133595      -46.7291822861      -15.8628496465  W2        8276            0.0000000000
     24827      8276  TIP3      H1             28.3366133595      -46.8840622861      -16.7900196465  W2        8276            0.0000000000
     24828      8276  TIP3      H2             29.4671633595      -46.6213122861      -15.8180596465  W2        8276            0.0000000000
     24829      8277  TIP3      OH2            31.7548233595      -44.6081222861        1.5082703535  W2        8277            0.0000000000
     24830      8277  TIP3      H1             32.7079433595      -44.5242122861        1.4808703535  W2        8277            0.0000000000
     24831      8277  TIP3      H2             31.5942833595      -45.3199422861        2.1277603535  W2        8277            0.0000000000
     24832      8278  TIP3      OH2            37.9069433595      -44.3747622861      -16.4170396465  W2        8278            0.0000000000
     24833      8278  TIP3      H1             37.6334233595      -44.7992122861      -17.2302096465  W2        8278            0.0000000000
     24834      8278  TIP3      H2             37.9463533595      -43.4433122861      -16.6339996465  W2        8278            0.0000000000
     24835      8279  TIP3      OH2            27.0743733595      -49.7245722861       -0.6868996465  W2        8279            0.0000000000
     24836      8279  TIP3      H1             27.2244633595      -50.4534422861       -1.2889296465  W2        8279            0.0000000000
     24837      8279  TIP3      H2             27.0766133595      -48.9474022861       -1.2456796465  W2        8279            0.0000000000
     24838      8280  TIP3      OH2            27.4869433595      -51.3549922861       -3.1941596465  W2        8280            0.0000000000
     24839      8280  TIP3      H1             28.0226933595      -50.9033222861       -3.8462296465  W2        8280            0.0000000000
     24840      8280  TIP3      H2             26.6349033595      -51.4630122861       -3.6167496465  W2        8280            0.0000000000
     24841      8281  TIP3      OH2            29.0687833595      -45.9153722861       -2.9546396465  W2        8281            0.0000000000
     24842      8281  TIP3      H1             29.8192633595      -46.0716222861       -3.5278596465  W2        8281            0.0000000000
     24843      8281  TIP3      H2             28.7296133595      -45.0637122861       -3.2300896465  W2        8281            0.0000000000
     24844      8282  TIP3      OH2            33.4844033595      -48.1001922861        2.0738903535  W2        8282            0.0000000000
     24845      8282  TIP3      H1             33.6765333595      -49.0312522861        1.9623403535  W2        8282            0.0000000000
     24846      8282  TIP3      H2             34.3420333595      -47.6752422861        2.0634303535  W2        8282            0.0000000000
     24847      8283  TIP3      OH2            34.8011233595      -45.3116722861        0.1511603535  W2        8283            0.0000000000
     24848      8283  TIP3      H1             34.5196233595      -44.6022122861       -0.4264596465  W2        8283            0.0000000000
     24849      8283  TIP3      H2             35.7435533595      -45.3843722861        0.0002803535  W2        8283            0.0000000000
     24850      8284  TIP3      OH2            25.5530033595      -48.5262222861        1.2246603535  W2        8284            0.0000000000
     24851      8284  TIP3      H1             24.7859033595      -49.0587422861        1.0144203535  W2        8284            0.0000000000
     24852      8284  TIP3      H2             26.2319033595      -48.8361822861        0.6252903535  W2        8284            0.0000000000
     24853      8285  TIP3      OH2            28.2924933595      -53.8984222861       -2.7627996465  W2        8285            0.0000000000
     24854      8285  TIP3      H1             28.1944533595      -52.9521022861       -2.8681796465  W2        8285            0.0000000000
     24855      8285  TIP3      H2             27.5501133595      -54.2710422861       -3.2384496465  W2        8285            0.0000000000
     24856      8286  TIP3      OH2            29.5565433595      -49.5768822861        0.8010403535  W2        8286            0.0000000000
     24857      8286  TIP3      H1             29.3210833595      -49.7962122861        1.7025303535  W2        8286            0.0000000000
     24858      8286  TIP3      H2             28.7732333595      -49.7837622861        0.2912903535  W2        8286            0.0000000000
     24859      8287  TIP3      OH2            32.2722033595      -50.4495322861       -0.1236096465  W2        8287            0.0000000000
     24860      8287  TIP3      H1             31.3247433595      -50.4175622861        0.0087203535  W2        8287            0.0000000000
     24861      8287  TIP3      H2             32.5848733595      -51.0748222861        0.5302103535  W2        8287            0.0000000000
     24862      8288  TIP3      OH2            33.9063533595      -51.8154222861        1.8815803535  W2        8288            0.0000000000
     24863      8288  TIP3      H1             33.8095333595      -52.7676922861        1.8757703535  W2        8288            0.0000000000
     24864      8288  TIP3      H2             33.5846633595      -51.5467422861        2.7421303535  W2        8288            0.0000000000
     24865      8289  TIP3      OH2            23.7332833595      -50.6058422861        0.9291303535  W2        8289            0.0000000000
     24866      8289  TIP3      H1             23.9450233595      -51.3122322861        0.3188803535  W2        8289            0.0000000000
     24867      8289  TIP3      H2             23.6220333595      -51.0432422861        1.7732503535  W2        8289            0.0000000000
     24868      8290  TIP3      OH2            28.5143033595      -54.6046822861       -0.0915196465  W2        8290            0.0000000000
     24869      8290  TIP3      H1             29.2261433595      -55.2444622861       -0.1056096465  W2        8290            0.0000000000
     24870      8290  TIP3      H2             28.4133433595      -54.3378522861       -1.0052096465  W2        8290            0.0000000000
     24871      8291  TIP3      OH2            28.8680533595      -52.9218422861        1.9621103535  W2        8291            0.0000000000
     24872      8291  TIP3      H1             28.7362733595      -53.3974622861        1.1419603535  W2        8291            0.0000000000
     24873      8291  TIP3      H2             28.2687933595      -52.1774822861        1.9068203535  W2        8291            0.0000000000
     24874      8292  TIP3      OH2            28.4142833595      -36.0388122861      -14.8614896465  W2        8292            0.0000000000
     24875      8292  TIP3      H1             29.3473533595      -35.8809422861      -14.7176496465  W2        8292            0.0000000000
     24876      8292  TIP3      H2             28.1501633595      -35.3635122861      -15.4863396465  W2        8292            0.0000000000
     24877      8293  TIP3      OH2            21.9827733595      -41.4024322861      -15.3786796465  W2        8293            0.0000000000
     24878      8293  TIP3      H1             22.8966933595      -41.3235422861      -15.1052896465  W2        8293            0.0000000000
     24879      8293  TIP3      H2             21.9900833595      -42.0894722861      -16.0451196465  W2        8293            0.0000000000
     24880      8294  TIP3      OH2            20.6318333595      -36.0095822861      -10.3012896465  W2        8294            0.0000000000
     24881      8294  TIP3      H1             19.9845433595      -36.4714122861      -10.8341696465  W2        8294            0.0000000000
     24882      8294  TIP3      H2             20.9862933595      -36.6812522861       -9.7186696465  W2        8294            0.0000000000
     24883      8295  TIP3      OH2            21.5017533595      -37.9288822861       -8.4966696465  W2        8295            0.0000000000
     24884      8295  TIP3      H1             21.1674333595      -38.8091522861       -8.3246496465  W2        8295            0.0000000000
     24885      8295  TIP3      H2             21.7239933595      -37.5833822861       -7.6321096465  W2        8295            0.0000000000
     24886      8296  TIP3      OH2            39.0502333595      -37.1192422861       -5.5161896465  W2        8296            0.0000000000
     24887      8296  TIP3      H1             39.0289033595      -36.9344022861       -4.5772496465  W2        8296            0.0000000000
     24888      8296  TIP3      H2             39.7408533595      -36.5508422861       -5.8570496465  W2        8296            0.0000000000
     24889      8297  TIP3      OH2            38.6135233595      -37.5521322861       -2.5942796465  W2        8297            0.0000000000
     24890      8297  TIP3      H1             38.1263933595      -38.2877222861       -2.9655396465  W2        8297            0.0000000000
     24891      8297  TIP3      H2             39.1627933595      -37.9457422861       -1.9163396465  W2        8297            0.0000000000
     24892      8298  TIP3      OH2            37.0642533595      -41.7623222861        2.0437503535  W2        8298            0.0000000000
     24893      8298  TIP3      H1             36.1983633595      -41.8673522861        2.4379803535  W2        8298            0.0000000000
     24894      8298  TIP3      H2             37.4408433595      -41.0039922861        2.4902203535  W2        8298            0.0000000000
     24895      8299  TIP3      OH2            38.3652233595      -43.5059522861      -12.4419996465  W2        8299            0.0000000000
     24896      8299  TIP3      H1             39.2153633595      -43.0848622861      -12.3148396465  W2        8299            0.0000000000
     24897      8299  TIP3      H2             38.3707333595      -44.2459422861      -11.8348596465  W2        8299            0.0000000000
     24898      8300  TIP3      OH2            38.7597833595      -45.4522122861      -10.6184296465  W2        8300            0.0000000000
     24899      8300  TIP3      H1             38.0332433595      -45.9319522861      -10.2206696465  W2        8300            0.0000000000
     24900      8300  TIP3      H2             39.3411133595      -45.2467422861       -9.8862696465  W2        8300            0.0000000000
     24901      8301  TIP3      OH2            38.5189033595      -42.6674622861       -5.6706696465  W2        8301            0.0000000000
     24902      8301  TIP3      H1             39.3523233595      -43.0454622861       -5.9513096465  W2        8301            0.0000000000
     24903      8301  TIP3      H2             38.6309333595      -41.7243422861       -5.7897596465  W2        8301            0.0000000000
     24904      8302  TIP3      OH2            37.0051333595      -39.7897122861       -3.3638296465  W2        8302            0.0000000000
     24905      8302  TIP3      H1             36.3576633595      -39.4645622861       -2.7383096465  W2        8302            0.0000000000
     24906      8302  TIP3      H2             36.4875333595      -40.2299422861       -4.0379996465  W2        8302            0.0000000000
     24907      8303  TIP3      OH2            39.0280933595      -45.5513622861      -14.2272996465  W2        8303            0.0000000000
     24908      8303  TIP3      H1             38.5062033595      -45.1949522861      -14.9462096465  W2        8303            0.0000000000
     24909      8303  TIP3      H2             38.9950133595      -44.8765822861      -13.5492096465  W2        8303            0.0000000000
     24910      8304  TIP3      OH2            37.3769933595      -48.3118022861      -15.6765896465  W2        8304            0.0000000000
     24911      8304  TIP3      H1             37.4734333595      -47.6451022861      -16.3566196465  W2        8304            0.0000000000
     24912      8304  TIP3      H2             37.2369533595      -49.1271722861      -16.1580396465  W2        8304            0.0000000000
     24913      8305  TIP3      OH2            36.5464633595      -46.9315622861      -10.0555596465  W2        8305            0.0000000000
     24914      8305  TIP3      H1             36.3963433595      -47.8767022861      -10.0757796465  W2        8305            0.0000000000
     24915      8305  TIP3      H2             36.1929133595      -46.6504222861       -9.2116496465  W2        8305            0.0000000000
     24916      8306  TIP3      OH2            21.5817033595      -44.8533422861       -6.0451796465  W2        8306            0.0000000000
     24917      8306  TIP3      H1             21.7659933595      -44.9351722861       -6.9808896465  W2        8306            0.0000000000
     24918      8306  TIP3      H2             22.4309933595      -44.9776422861       -5.6215396465  W2        8306            0.0000000000
     24919      8307  TIP3      OH2            37.4027533595      -44.9612322861       -0.4167296465  W2        8307            0.0000000000
     24920      8307  TIP3      H1             37.9854833595      -45.6960022861       -0.2250096465  W2        8307            0.0000000000
     24921      8307  TIP3      H2             37.9666833595      -44.1892022861       -0.3701496465  W2        8307            0.0000000000
     24922      8308  TIP3      OH2            38.8994633595      -47.0586522861        0.2678103535  W2        8308            0.0000000000
     24923      8308  TIP3      H1             38.0361333595      -47.4374422861        0.1022803535  W2        8308            0.0000000000
     24924      8308  TIP3      H2             39.5038333595      -47.7971722861        0.1933903535  W2        8308            0.0000000000
     24925      8309  TIP3      OH2            36.6243733595      -50.9038222861      -16.5590396465  W2        8309            0.0000000000
     24926      8309  TIP3      H1             37.2349533595      -51.2751422861      -15.9222196465  W2        8309            0.0000000000
     24927      8309  TIP3      H2             35.7875233595      -51.3251322861      -16.3630396465  W2        8309            0.0000000000
     24928      8310  TIP3      OH2            36.2569433595      -49.3489822861      -11.5930496465  W2        8310            0.0000000000
     24929      8310  TIP3      H1             36.5366533595      -50.2559422861      -11.4688796465  W2        8310            0.0000000000
     24930      8310  TIP3      H2             37.0161133595      -48.9148322861      -11.9821296465  W2        8310            0.0000000000
     24931      8311  TIP3      OH2            36.8687733595      -48.7672422861       -6.1571596465  W2        8311            0.0000000000
     24932      8311  TIP3      H1             37.8015733595      -48.5552522861       -6.1915596465  W2        8311            0.0000000000
     24933      8311  TIP3      H2             36.6335233595      -48.6660322861       -5.2348596465  W2        8311            0.0000000000
     24934      8312  TIP3      OH2            36.8979633595      -48.0307122861       -3.3812196465  W2        8312            0.0000000000
     24935      8312  TIP3      H1             36.0550933595      -47.7626722861       -3.0152396465  W2        8312            0.0000000000
     24936      8312  TIP3      H2             37.3403933595      -47.2085222861       -3.5921096465  W2        8312            0.0000000000
     24937      8313  TIP3      OH2            21.1791833595      -49.5828422861        0.0957003535  W2        8313            0.0000000000
     24938      8313  TIP3      H1             22.0986733595      -49.7050122861        0.3320103535  W2        8313            0.0000000000
     24939      8313  TIP3      H2             20.7296333595      -50.3328722861        0.4850503535  W2        8313            0.0000000000
     24940      8314  TIP3      OH2            39.1811233595      -54.0506922861        1.9722803535  W2        8314            0.0000000000
     24941      8314  TIP3      H1             39.5308233595      -54.7043422861        1.3667503535  W2        8314            0.0000000000
     24942      8314  TIP3      H2             39.3280733595      -53.2132822861        1.5325403535  W2        8314            0.0000000000
     24943      8315  TIP3      OH2            36.8704233595      -52.0860522861      -11.5448496465  W2        8315            0.0000000000
     24944      8315  TIP3      H1             37.0529233595      -52.5349022861      -10.7193496465  W2        8315            0.0000000000
     24945      8315  TIP3      H2             36.2707133595      -52.6706122861      -12.0083896465  W2        8315            0.0000000000
     24946      8316  TIP3      OH2            22.4004333595      -51.2706822861       -7.0130096465  W2        8316            0.0000000000
     24947      8316  TIP3      H1             22.8455933595      -52.0624322861       -6.7110396465  W2        8316            0.0000000000
     24948      8316  TIP3      H2             22.8667333595      -50.5541622861       -6.5824496465  W2        8316            0.0000000000
     24949      8317  TIP3      OH2            20.7044633595      -48.2713822861       -5.9439896465  W2        8317            0.0000000000
     24950      8317  TIP3      H1             21.1964433595      -48.4923322861       -6.7347896465  W2        8317            0.0000000000
     24951      8317  TIP3      H2             21.0665533595      -47.4310422861       -5.6630396465  W2        8317            0.0000000000
     24952      8318  TIP3      OH2            38.7008433595      -51.9412322861        0.3214103535  W2        8318            0.0000000000
     24953      8318  TIP3      H1             37.7834133595      -51.6705222861        0.2857603535  W2        8318            0.0000000000
     24954      8318  TIP3      H2             38.8237833595      -52.4763922861       -0.4626196465  W2        8318            0.0000000000
     24955      8319  TIP3      OH2            38.7370433595      -52.0182422861      -15.0168196465  W2        8319            0.0000000000
     24956      8319  TIP3      H1             39.1493033595      -52.7396722861      -15.4920196465  W2        8319            0.0000000000
     24957      8319  TIP3      H2             39.4186933595      -51.3487822861      -14.9583896465  W2        8319            0.0000000000
     24958      8320  TIP3      OH2            21.0181133595      -52.0134722861      -11.8897496465  W2        8320            0.0000000000
     24959      8320  TIP3      H1             20.0929533595      -51.8048122861      -12.0191996465  W2        8320            0.0000000000
     24960      8320  TIP3      H2             21.4721033595      -51.5293922861      -12.5795196465  W2        8320            0.0000000000
     24961      8321  TIP3      OH2            35.7888333595      -37.0293022861       -9.9440096465  W2        8321            0.0000000000
     24962      8321  TIP3      H1             36.4411233595      -37.3770922861      -10.5520996465  W2        8321            0.0000000000
     24963      8321  TIP3      H2             36.2992133595      -36.5409822861       -9.2980396465  W2        8321            0.0000000000
     24964      8322  TIP3      OH2            20.9816533595      -53.2755722861       -3.5454996465  W2        8322            0.0000000000
     24965      8322  TIP3      H1             20.3167033595      -53.5215422861       -2.9024096465  W2        8322            0.0000000000
     24966      8322  TIP3      H2             20.5387833595      -52.6535322861       -4.1226996465  W2        8322            0.0000000000
     24967      8323  TIP3      OH2            23.1735833595      -40.1001622861        0.5990803535  W2        8323            0.0000000000
     24968      8323  TIP3      H1             22.3528333595      -39.9255122861        0.1385503535  W2        8323            0.0000000000
     24969      8323  TIP3      H2             22.9213633595      -40.1736922861        1.5195203535  W2        8323            0.0000000000
     24970      8324  TIP3      OH2            26.1278733595      -39.1260422861       -3.1425196465  W2        8324            0.0000000000
     24971      8324  TIP3      H1             25.7029833595      -38.3161922861       -3.4250596465  W2        8324            0.0000000000
     24972      8324  TIP3      H2             27.0321533595      -39.0406322861       -3.4445396465  W2        8324            0.0000000000
     24973      8325  TIP3      OH2            30.4390133595      -37.7270422861       -0.1831496465  W2        8325            0.0000000000
     24974      8325  TIP3      H1             30.6237633595      -38.0604322861        0.6948803535  W2        8325            0.0000000000
     24975      8325  TIP3      H2             31.2854633595      -37.4171822861       -0.5052296465  W2        8325            0.0000000000
     24976      8326  TIP3      OH2            32.7840533595      -36.4411522861       -0.9390096465  W2        8326            0.0000000000
     24977      8326  TIP3      H1             33.4609433595      -37.0739222861       -1.1790896465  W2        8326            0.0000000000
     24978      8326  TIP3      H2             33.1059333595      -36.0401022861       -0.1316796465  W2        8326            0.0000000000
     24979      8327  TIP3      OH2            37.7014333595      -53.8516022861       -1.8595096465  W2        8327            0.0000000000
     24980      8327  TIP3      H1             36.8887833595      -53.5265722861       -2.2470396465  W2        8327            0.0000000000
     24981      8327  TIP3      H2             37.9342833595      -54.6117522861       -2.3925996465  W2        8327            0.0000000000
     24982      8328  TIP3      OH2            23.5295433595      -35.8696522861       -3.0949896465  W2        8328            0.0000000000
     24983      8328  TIP3      H1             22.8091833595      -35.4295522861       -3.5462196465  W2        8328            0.0000000000
     24984      8328  TIP3      H2             23.1639433595      -36.1201822861       -2.2465896465  W2        8328            0.0000000000
     24985      8329  TIP3      OH2            25.9968033595      -36.2692622861       -4.0652696465  W2        8329            0.0000000000
     24986      8329  TIP3      H1             25.1320233595      -36.1974122861       -3.6612596465  W2        8329            0.0000000000
     24987      8329  TIP3      H2             25.9417033595      -35.7225322861       -4.8490196465  W2        8329            0.0000000000
     24988      8330  TIP3      OH2            30.7073633595      -36.3813722861       -4.8896696465  W2        8330            0.0000000000
     24989      8330  TIP3      H1             30.2507633595      -35.8524022861       -5.5438296465  W2        8330            0.0000000000
     24990      8330  TIP3      H2             30.8701633595      -35.7782322861       -4.1644396465  W2        8330            0.0000000000
     24991      8331  TIP3      OH2            33.0349933595      -37.5034122861       -3.9446396465  W2        8331            0.0000000000
     24992      8331  TIP3      H1             32.1303633595      -37.3383922861       -4.2104296465  W2        8331            0.0000000000
     24993      8331  TIP3      H2             33.4638533595      -36.6501922861       -4.0102996465  W2        8331            0.0000000000
     24994      8332  TIP3      OH2            35.6391833595      -35.9335022861       -3.6498596465  W2        8332            0.0000000000
     24995      8332  TIP3      H1             35.4573833595      -35.0176122861       -3.8603696465  W2        8332            0.0000000000
     24996      8332  TIP3      H2             35.8159633595      -36.3437922861       -4.4963996465  W2        8332            0.0000000000
     24997      8333  TIP3      OH2            22.9443533595      -37.2464022861       -6.1848096465  W2        8333            0.0000000000
     24998      8333  TIP3      H1             22.9259533595      -37.6718922861       -5.3275796465  W2        8333            0.0000000000
     24999      8333  TIP3      H2             23.7491433595      -37.5649022861       -6.5935896465  W2        8333            0.0000000000
     25000      8334  TIP3      OH2            25.0856633595      -38.5365322861       -7.5298196465  W2        8334            0.0000000000
     25001      8334  TIP3      H1             24.8667333595      -39.4527922861       -7.3602196465  W2        8334            0.0000000000
     25002      8334  TIP3      H2             25.9098833595      -38.3964922861       -7.0636796465  W2        8334            0.0000000000
     25003      8335  TIP3      OH2            27.6229133595      -38.0666022861       -6.6810196465  W2        8335            0.0000000000
     25004      8335  TIP3      H1             27.8354833595      -38.9547022861       -6.9679296465  W2        8335            0.0000000000
     25005      8335  TIP3      H2             27.6874233595      -38.1008322861       -5.7266196465  W2        8335            0.0000000000
     25006      8336  TIP3      OH2            31.1312833595      -52.4025422861       -7.5366896465  W2        8336            0.0000000000
     25007      8336  TIP3      H1             30.4569633595      -53.0319822861       -7.2811096465  W2        8336            0.0000000000
     25008      8336  TIP3      H2             31.6952033595      -52.8866522861       -8.1398996465  W2        8336            0.0000000000
     25009      8337  TIP3      OH2            36.2740033595      -54.2951422861       -7.4239796465  W2        8337            0.0000000000
     25010      8337  TIP3      H1             36.8777633595      -53.7476022861       -7.9258796465  W2        8337            0.0000000000
     25011      8337  TIP3      H2             35.4042033595      -53.9761022861       -7.6645696465  W2        8337            0.0000000000
     25012      8338  TIP3      OH2            38.0010433595      -53.1562722861       -9.0908896465  W2        8338            0.0000000000
     25013      8338  TIP3      H1             38.6127933595      -53.6707022861       -9.6175296465  W2        8338            0.0000000000
     25014      8338  TIP3      H2             38.3833833595      -52.2790622861       -9.0674496465  W2        8338            0.0000000000
     25015      8339  TIP3      OH2            23.4580333595      -53.7685122861       -9.7146996465  W2        8339            0.0000000000
     25016      8339  TIP3      H1             22.6810133595      -54.0030222861      -10.2221096465  W2        8339            0.0000000000
     25017      8339  TIP3      H2             23.9883933595      -54.5653022861       -9.7058996465  W2        8339            0.0000000000
     25018      8340  TIP3      OH2            22.2943733595      -53.9707022861      -13.9110896465  W2        8340            0.0000000000
     25019      8340  TIP3      H1             22.7334433595      -53.3596522861      -14.5027396465  W2        8340            0.0000000000
     25020      8340  TIP3      H2             21.6606133595      -53.4322922861      -13.4370896465  W2        8340            0.0000000000
     25021      8341  TIP3      OH2            28.0372933595      -53.8418022861       -9.9013896465  W2        8341            0.0000000000
     25022      8341  TIP3      H1             28.9116333595      -53.4533722861       -9.9309596465  W2        8341            0.0000000000
     25023      8341  TIP3      H2             27.9013733595      -54.0570222861       -8.9786696465  W2        8341            0.0000000000
     25024      8342  TIP3      OH2            33.5941333595      -53.8118222861       -8.2522196465  W2        8342            0.0000000000
     25025      8342  TIP3      H1             33.6702933595      -53.7166622861       -9.2016196465  W2        8342            0.0000000000
     25026      8342  TIP3      H2             33.3190533595      -54.7195322861       -8.1233096465  W2        8342            0.0000000000
     25027      8343  TIP3      OH2            34.9473933595      -53.7860422861      -12.5597196465  W2        8343            0.0000000000
     25028      8343  TIP3      H1             34.2445033595      -53.1711222861      -12.7695796465  W2        8343            0.0000000000
     25029      8343  TIP3      H2             34.5025333595      -54.6233722861      -12.4286296465  W2        8343            0.0000000000
     25030      8344  TIP3      OH2            22.1953233595      -38.0224822861      -13.0135796465  W2        8344            0.0000000000
     25031      8344  TIP3      H1             21.5103133595      -38.0605922861      -13.6810696465  W2        8344            0.0000000000
     25032      8344  TIP3      H2             22.1990433595      -37.1097222861      -12.7253696465  W2        8344            0.0000000000
     25033      8345  TIP3      OH2            24.1552833595      -52.0545522861      -15.4686796465  W2        8345            0.0000000000
     25034      8345  TIP3      H1             24.6466233595      -52.6843122861      -15.9961296465  W2        8345            0.0000000000
     25035      8345  TIP3      H2             24.7789133595      -51.7586122861      -14.8055596465  W2        8345            0.0000000000
     25036      8346  TIP3      OH2            29.1812933595      -51.7614022861      -13.0116296465  W2        8346            0.0000000000
     25037      8346  TIP3      H1             29.3594233595      -52.4080822861      -12.3287696465  W2        8346            0.0000000000
     25038      8346  TIP3      H2             29.1279133595      -50.9276322861      -12.5445196465  W2        8346            0.0000000000
     25039      8347  TIP3      OH2            31.0596733595      -36.8129922861      -14.6159596465  W2        8347            0.0000000000
     25040      8347  TIP3      H1             31.9256933595      -36.4462522861      -14.7941396465  W2        8347            0.0000000000
     25041      8347  TIP3      H2             30.8129533595      -37.2521922861      -15.4298796465  W2        8347            0.0000000000
     25042      8348  TIP3      OH2            37.7686333595      -37.2499622861      -11.9368496465  W2        8348            0.0000000000
     25043      8348  TIP3      H1             37.5743433595      -37.9977522861      -12.5018896465  W2        8348            0.0000000000
     25044      8348  TIP3      H2             37.7296433595      -36.4919522861      -12.5200596465  W2        8348            0.0000000000
     25045      8349  TIP3      OH2            23.4158333595      -53.2543222861       -0.1970796465  W2        8349            0.0000000000
     25046      8349  TIP3      H1             23.0496533595      -54.0200622861        0.2453903535  W2        8349            0.0000000000
     25047      8349  TIP3      H2             24.3286833595      -53.2253022861        0.0894303535  W2        8349            0.0000000000
     25048      8350  TIP3      OH2            25.3889133595      -53.9038822861        1.3386303535  W2        8350            0.0000000000
     25049      8350  TIP3      H1             26.2872733595      -54.1778622861        1.1539703535  W2        8350            0.0000000000
     25050      8350  TIP3      H2             25.0022233595      -54.6462822861        1.8028903535  W2        8350            0.0000000000
     25051      8351  TIP3      OH2            24.0134433595      -37.1024022861      -15.9883696465  W2        8351            0.0000000000
     25052      8351  TIP3      H1             23.7459033595      -36.8161122861      -15.1150596465  W2        8351            0.0000000000
     25053      8351  TIP3      H2             24.7847033595      -37.6484822861      -15.8361196465  W2        8351            0.0000000000
     25054      8352  TIP3      OH2            33.8101433595      -54.5713522861        1.5209103535  W2        8352            0.0000000000
     25055      8352  TIP3      H1             33.8868633595      -54.9972822861        2.3746803535  W2        8352            0.0000000000
     25056      8352  TIP3      H2             34.7038033595      -54.5578822861        1.1782603535  W2        8352            0.0000000000
     25057      8353  TIP3      OH2            36.9862533595      -38.4987222861        0.2133303535  W2        8353            0.0000000000
     25058      8353  TIP3      H1             36.2044433595      -38.6849222861       -0.3066096465  W2        8353            0.0000000000
     25059      8353  TIP3      H2             36.9142433595      -37.5692922861        0.4305803535  W2        8353            0.0000000000
     25060      8354  TIP3      OH2            51.3922933595      -44.6122822861       -9.7559496465  W2        8354            0.0000000000
     25061      8354  TIP3      H1             51.4814033595      -43.6684622861       -9.8882396465  W2        8354            0.0000000000
     25062      8354  TIP3      H2             50.7540533595      -44.8876422861      -10.4140096465  W2        8354            0.0000000000
     25063      8355  TIP3      OH2            50.3254233595      -45.3572122861       -6.3371296465  W2        8355            0.0000000000
     25064      8355  TIP3      H1             50.2871733595      -46.0035822861       -5.6321696465  W2        8355            0.0000000000
     25065      8355  TIP3      H2             50.0030733595      -45.8237722861       -7.1082596465  W2        8355            0.0000000000
     25066      8356  TIP3      OH2            42.6939233595      -45.7430022861       -4.7441396465  W2        8356            0.0000000000
     25067      8356  TIP3      H1             42.7351333595      -46.3686722861       -4.0208996465  W2        8356            0.0000000000
     25068      8356  TIP3      H2             43.3966933595      -45.1191422861       -4.5620996465  W2        8356            0.0000000000
     25069      8357  TIP3      OH2            54.0314433595      -42.4181722861       -8.0356196465  W2        8357            0.0000000000
     25070      8357  TIP3      H1             53.5907133595      -43.1385722861       -7.5850596465  W2        8357            0.0000000000
     25071      8357  TIP3      H2             54.0184133595      -41.6974522861       -7.4058496465  W2        8357            0.0000000000
     25072      8358  TIP3      OH2            43.6172333595      -41.2931122861       -6.2092296465  W2        8358            0.0000000000
     25073      8358  TIP3      H1             43.2477533595      -42.0950622861       -6.5787996465  W2        8358            0.0000000000
     25074      8358  TIP3      H2             44.5583433595      -41.4616222861       -6.1628896465  W2        8358            0.0000000000
     25075      8359  TIP3      OH2            40.2272833595      -47.6328522861      -10.8163496465  W2        8359            0.0000000000
     25076      8359  TIP3      H1             39.7796233595      -46.7869822861      -10.8346996465  W2        8359            0.0000000000
     25077      8359  TIP3      H2             39.6664033595      -48.2124322861      -11.3318396465  W2        8359            0.0000000000
     25078      8360  TIP3      OH2            40.9378933595      -45.4708922861       -8.6905496465  W2        8360            0.0000000000
     25079      8360  TIP3      H1             41.1512433595      -46.2407322861       -8.1632496465  W2        8360            0.0000000000
     25080      8360  TIP3      H2             41.6756533595      -45.3812222861       -9.2937896465  W2        8360            0.0000000000
     25081      8361  TIP3      OH2            51.1429933595      -37.3140022861       -7.8235796465  W2        8361            0.0000000000
     25082      8361  TIP3      H1             51.7626333595      -37.9905322861       -8.0966596465  W2        8361            0.0000000000
     25083      8361  TIP3      H2             50.9347333595      -37.5319222861       -6.9150896465  W2        8361            0.0000000000
     25084      8362  TIP3      OH2            48.7148633595      -42.9250722861       -5.9310296465  W2        8362            0.0000000000
     25085      8362  TIP3      H1             49.0186533595      -43.6109322861       -6.5256196465  W2        8362            0.0000000000
     25086      8362  TIP3      H2             49.4362633595      -42.8062022861       -5.3132296465  W2        8362            0.0000000000
     25087      8363  TIP3      OH2            51.8555633595      -48.5308322861       -5.6035496465  W2        8363            0.0000000000
     25088      8363  TIP3      H1             51.9981533595      -49.4771322861       -5.5833896465  W2        8363            0.0000000000
     25089      8363  TIP3      H2             51.7494633595      -48.3238522861       -6.5320596465  W2        8363            0.0000000000
     25090      8364  TIP3      OH2            45.0103933595      -50.4291922861       -8.3310696465  W2        8364            0.0000000000
     25091      8364  TIP3      H1             45.0535033595      -49.5693422861       -8.7494396465  W2        8364            0.0000000000
     25092      8364  TIP3      H2             44.5528033595      -50.9817222861       -8.9647496465  W2        8364            0.0000000000
     25093      8365  TIP3      OH2            52.7326633595      -50.2986322861       -9.9302396465  W2        8365            0.0000000000
     25094      8365  TIP3      H1             53.3790933595      -50.6273122861       -9.3054796465  W2        8365            0.0000000000
     25095      8365  TIP3      H2             53.2426033595      -49.7807322861      -10.5530996465  W2        8365            0.0000000000
     25096      8366  TIP3      OH2            41.6305433595      -48.0326122861       -7.5689296465  W2        8366            0.0000000000
     25097      8366  TIP3      H1             42.2842033595      -48.5824422861       -7.1369196465  W2        8366            0.0000000000
     25098      8366  TIP3      H2             41.6544733595      -48.3067122861       -8.4857296465  W2        8366            0.0000000000
     25099      8367  TIP3      OH2            46.7869933595      -46.4824822861       -8.3537796465  W2        8367            0.0000000000
     25100      8367  TIP3      H1             47.4030933595      -47.0089422861       -7.8443796465  W2        8367            0.0000000000
     25101      8367  TIP3      H2             46.2008733595      -47.1226122861       -8.7574196465  W2        8367            0.0000000000
     25102      8368  TIP3      OH2            43.8205833595      -51.5113522861       -4.2569896465  W2        8368            0.0000000000
     25103      8368  TIP3      H1             43.6017533595      -50.9812922861       -5.0233896465  W2        8368            0.0000000000
     25104      8368  TIP3      H2             43.1526733595      -51.2848022861       -3.6098496465  W2        8368            0.0000000000
     25105      8369  TIP3      OH2            51.1895633595      -42.0112422861      -10.7130796465  W2        8369            0.0000000000
     25106      8369  TIP3      H1             50.8940733595      -42.3340122861      -11.5643896465  W2        8369            0.0000000000
     25107      8369  TIP3      H2             50.8653433595      -41.1115722861      -10.6718196465  W2        8369            0.0000000000
     25108      8370  TIP3      OH2            46.3897233595      -43.8357822861       -3.9696196465  W2        8370            0.0000000000
     25109      8370  TIP3      H1             45.6496333595      -43.2376322861       -3.8660996465  W2        8370            0.0000000000
     25110      8370  TIP3      H2             47.1036733595      -43.2818222861       -4.2852596465  W2        8370            0.0000000000
     25111      8371  TIP3      OH2            54.4965033595      -51.0077022861       -7.9496496465  W2        8371            0.0000000000
     25112      8371  TIP3      H1             54.2813033595      -51.7733622861       -7.4170496465  W2        8371            0.0000000000
     25113      8371  TIP3      H2             55.1522433595      -50.5352422861       -7.4367996465  W2        8371            0.0000000000
     25114      8372  TIP3      OH2            43.4143133595      -49.6191722861       -6.3047696465  W2        8372            0.0000000000
     25115      8372  TIP3      H1             44.0279433595      -48.9864122861       -5.9315296465  W2        8372            0.0000000000
     25116      8372  TIP3      H2             43.9263833595      -50.0916722861       -6.9610796465  W2        8372            0.0000000000
     25117      8373  TIP3      OH2            44.7971533595      -41.8714822861       -3.1824696465  W2        8373            0.0000000000
     25118      8373  TIP3      H1             44.7919133595      -40.9921322861       -3.5605396465  W2        8373            0.0000000000
     25119      8373  TIP3      H2             43.9435633595      -41.9550722861       -2.7574796465  W2        8373            0.0000000000
     25120      8374  TIP3      OH2            40.9182433595      -42.2006922861      -12.4005396465  W2        8374            0.0000000000
     25121      8374  TIP3      H1             40.6463333595      -41.9715922861      -13.2892496465  W2        8374            0.0000000000
     25122      8374  TIP3      H2             40.9638133595      -41.3628122861      -11.9400096465  W2        8374            0.0000000000
     25123      8375  TIP3      OH2            54.5432133595      -40.5791022861       -5.6876896465  W2        8375            0.0000000000
     25124      8375  TIP3      H1             53.6015833595      -40.5207122861       -5.5259996465  W2        8375            0.0000000000
     25125      8375  TIP3      H2             54.8198233595      -39.6730522861       -5.8247196465  W2        8375            0.0000000000
     25126      8376  TIP3      OH2            47.8470533595      -54.2058422861       -6.8044996465  W2        8376            0.0000000000
     25127      8376  TIP3      H1             47.7294733595      -55.1542422861       -6.8586696465  W2        8376            0.0000000000
     25128      8376  TIP3      H2             46.9920633595      -53.8732322861       -6.5313896465  W2        8376            0.0000000000
     25129      8377  TIP3      OH2            52.7953333595      -38.7977522861       -9.0625296465  W2        8377            0.0000000000
     25130      8377  TIP3      H1             53.2205633595      -39.5049622861       -9.5475696465  W2        8377            0.0000000000
     25131      8377  TIP3      H2             53.1123333595      -37.9964822861       -9.4793096465  W2        8377            0.0000000000
     25132      8378  TIP3      OH2            53.9549833595      -40.8969022861      -10.5538696465  W2        8378            0.0000000000
     25133      8378  TIP3      H1             53.6974633595      -41.5868922861      -11.1652796465  W2        8378            0.0000000000
     25134      8378  TIP3      H2             54.0260633595      -41.3397822861       -9.7082796465  W2        8378            0.0000000000
     25135      8379  TIP3      OH2            50.1135433595      -45.3682822861      -12.3039196465  W2        8379            0.0000000000
     25136      8379  TIP3      H1             49.4020933595      -44.8333122861      -12.6558696465  W2        8379            0.0000000000
     25137      8379  TIP3      H2             50.8045033595      -45.3130722861      -12.9640296465  W2        8379            0.0000000000
     25138      8380  TIP3      OH2            50.1674633595      -46.9108522861      -15.2654196465  W2        8380            0.0000000000
     25139      8380  TIP3      H1             50.8684533595      -46.8881622861      -14.6140196465  W2        8380            0.0000000000
     25140      8380  TIP3      H2             50.4697533595      -47.5388822861      -15.9214896465  W2        8380            0.0000000000
     25141      8381  TIP3      OH2            53.5193133595      -45.1589522861      -11.3523296465  W2        8381            0.0000000000
     25142      8381  TIP3      H1             52.7874133595      -44.9305822861      -10.7792696465  W2        8381            0.0000000000
     25143      8381  TIP3      H2             53.9665333595      -45.8726822861      -10.8975796465  W2        8381            0.0000000000
     25144      8382  TIP3      OH2            53.4166633595      -46.9846922861       -2.2846296465  W2        8382            0.0000000000
     25145      8382  TIP3      H1             53.4965733595      -46.2212522861       -1.7127796465  W2        8382            0.0000000000
     25146      8382  TIP3      H2             52.8154333595      -46.7054522861       -2.9751196465  W2        8382            0.0000000000
     25147      8383  TIP3      OH2            45.1646833595      -44.5283322861       -9.4698296465  W2        8383            0.0000000000
     25148      8383  TIP3      H1             44.8342033595      -44.8989922861      -10.2881296465  W2        8383            0.0000000000
     25149      8383  TIP3      H2             45.7530933595      -45.1989322861       -9.1229996465  W2        8383            0.0000000000
     25150      8384  TIP3      OH2            46.5314333595      -41.1002722861       -6.7886096465  W2        8384            0.0000000000
     25151      8384  TIP3      H1             46.4365633595      -41.6789622861       -7.5451496465  W2        8384            0.0000000000
     25152      8384  TIP3      H2             47.2607933595      -41.4717022861       -6.2923296465  W2        8384            0.0000000000
     25153      8385  TIP3      OH2            45.5312333595      -45.7597722861       -5.8363296465  W2        8385            0.0000000000
     25154      8385  TIP3      H1             46.0964833595      -45.6383522861       -6.5992096465  W2        8385            0.0000000000
     25155      8385  TIP3      H2             45.8501233595      -45.1222722861       -5.1974796465  W2        8385            0.0000000000
     25156      8386  TIP3      OH2            51.8404533595      -40.2565822861       -5.1022796465  W2        8386            0.0000000000
     25157      8386  TIP3      H1             51.6001133595      -39.5942722861       -4.4543596465  W2        8386            0.0000000000
     25158      8386  TIP3      H2             51.6422733595      -41.0910622861       -4.6773196465  W2        8386            0.0000000000
     25159      8387  TIP3      OH2            46.4113033595      -41.3605022861       -1.1191396465  W2        8387            0.0000000000
     25160      8387  TIP3      H1             46.1000533595      -40.5781822861       -0.6638196465  W2        8387            0.0000000000
     25161      8387  TIP3      H2             45.7613233595      -41.5135922861       -1.8049396465  W2        8387            0.0000000000
     25162      8388  TIP3      OH2            52.3902633595      -45.9966622861      -13.6672096465  W2        8388            0.0000000000
     25163      8388  TIP3      H1             52.9698133595      -45.8466322861      -12.9203196465  W2        8388            0.0000000000
     25164      8388  TIP3      H2             52.8042633595      -45.5259222861      -14.3905696465  W2        8388            0.0000000000
     25165      8389  TIP3      OH2            43.3312933595      -45.1623922861       -1.8905696465  W2        8389            0.0000000000
     25166      8389  TIP3      H1             43.4016133595      -44.5117122861       -1.1920696465  W2        8389            0.0000000000
     25167      8389  TIP3      H2             42.4405133595      -45.0596422861       -2.2254796465  W2        8389            0.0000000000
     25168      8390  TIP3      OH2            50.1167533595      -39.2598122861      -10.2318996465  W2        8390            0.0000000000
     25169      8390  TIP3      H1             50.5905133595      -38.9641822861       -9.4544796465  W2        8390            0.0000000000
     25170      8390  TIP3      H2             49.5536833595      -38.5216522861      -10.4649396465  W2        8390            0.0000000000
     25171      8391  TIP3      OH2            44.6508933595      -39.2890022861       -0.3557596465  W2        8391            0.0000000000
     25172      8391  TIP3      H1             44.6584233595      -39.4250322861       -1.3032096465  W2        8391            0.0000000000
     25173      8391  TIP3      H2             43.7349333595      -39.4061922861       -0.1037596465  W2        8391            0.0000000000
     25174      8392  TIP3      OH2            44.1549533595      -45.4589022861      -11.8805496465  W2        8392            0.0000000000
     25175      8392  TIP3      H1             43.8630833595      -44.6907322861      -12.3714196465  W2        8392            0.0000000000
     25176      8392  TIP3      H2             43.4804733595      -46.1182822861      -12.0434096465  W2        8392            0.0000000000
     25177      8393  TIP3      OH2            40.2479633595      -43.0959822861       -3.0655696465  W2        8393            0.0000000000
     25178      8393  TIP3      H1             39.7468033595      -43.1240422861       -3.8805996465  W2        8393            0.0000000000
     25179      8393  TIP3      H2             40.2533333595      -44.0016622861       -2.7558396465  W2        8393            0.0000000000
     25180      8394  TIP3      OH2            39.9982333595      -40.3156022861       -6.1815496465  W2        8394            0.0000000000
     25181      8394  TIP3      H1             40.9442933595      -40.4599022861       -6.2005996465  W2        8394            0.0000000000
     25182      8394  TIP3      H2             39.8858633595      -39.5313222861       -5.6444296465  W2        8394            0.0000000000
     25183      8395  TIP3      OH2            49.1744833595      -40.0757122861       -1.6230396465  W2        8395            0.0000000000
     25184      8395  TIP3      H1             49.2619433595      -39.2492522861       -1.1481296465  W2        8395            0.0000000000
     25185      8395  TIP3      H2             48.3109933595      -40.4053322861       -1.3741096465  W2        8395            0.0000000000
     25186      8396  TIP3      OH2            49.5890633595      -36.3033422861      -11.8169796465  W2        8396            0.0000000000
     25187      8396  TIP3      H1             49.5136633595      -36.4246222861      -12.7634596465  W2        8396            0.0000000000
     25188      8396  TIP3      H2             49.6219333595      -35.3540722861      -11.6985196465  W2        8396            0.0000000000
     25189      8397  TIP3      OH2            43.2424433595      -37.5146422861      -10.0360796465  W2        8397            0.0000000000
     25190      8397  TIP3      H1             43.3944833595      -37.8626022861       -9.1574296465  W2        8397            0.0000000000
     25191      8397  TIP3      H2             42.3914833595      -37.8709122861      -10.2913596465  W2        8397            0.0000000000
     25192      8398  TIP3      OH2            52.6906633595      -37.1493222861      -14.8147396465  W2        8398            0.0000000000
     25193      8398  TIP3      H1             53.0655033595      -37.8937122861      -15.2854796465  W2        8398            0.0000000000
     25194      8398  TIP3      H2             52.6950333595      -37.4192622861      -13.8964096465  W2        8398            0.0000000000
     25195      8399  TIP3      OH2            52.3594733595      -37.2236122861      -12.0655196465  W2        8399            0.0000000000
     25196      8399  TIP3      H1             51.4244533595      -37.1234222861      -11.8868196465  W2        8399            0.0000000000
     25197      8399  TIP3      H2             52.6396633595      -37.9330122861      -11.4871996465  W2        8399            0.0000000000
     25198      8400  TIP3      OH2            42.4970133595      -41.7724422861       -2.0222896465  W2        8400            0.0000000000
     25199      8400  TIP3      H1             42.7131433595      -42.1338822861       -1.1627096465  W2        8400            0.0000000000
     25200      8400  TIP3      H2             41.6414833595      -42.1470622861       -2.2319396465  W2        8400            0.0000000000
     25201      8401  TIP3      OH2            45.1158133595      -53.3023922861       -6.0268696465  W2        8401            0.0000000000
     25202      8401  TIP3      H1             44.2541833595      -53.3895722861       -6.4345796465  W2        8401            0.0000000000
     25203      8401  TIP3      H2             45.0933833595      -52.4463822861       -5.5991096465  W2        8401            0.0000000000
     25204      8402  TIP3      OH2            49.7785933595      -53.5803522861       -2.6521696465  W2        8402            0.0000000000
     25205      8402  TIP3      H1             50.1989033595      -53.9956422861       -1.8991096465  W2        8402            0.0000000000
     25206      8402  TIP3      H2             48.8455533595      -53.7590222861       -2.5349696465  W2        8402            0.0000000000
     25207      8403  TIP3      OH2            53.1050833595      -49.8248322861       -1.7987196465  W2        8403            0.0000000000
     25208      8403  TIP3      H1             52.5910333595      -49.9506122861       -1.0011196465  W2        8403            0.0000000000
     25209      8403  TIP3      H2             52.9495533595      -48.9125222861       -2.0430996465  W2        8403            0.0000000000
     25210      8404  TIP3      OH2            53.8675733595      -44.9638322861      -16.0374196465  W2        8404            0.0000000000
     25211      8404  TIP3      H1             53.9096533595      -45.1864422861      -16.9674196465  W2        8404            0.0000000000
     25212      8404  TIP3      H2             54.7167833595      -44.5651222861      -15.8474296465  W2        8404            0.0000000000
     25213      8405  TIP3      OH2            49.4403233595      -51.0880122861      -15.3670896465  W2        8405            0.0000000000
     25214      8405  TIP3      H1             49.1868033595      -51.0688522861      -14.4442796465  W2        8405            0.0000000000
     25215      8405  TIP3      H2             49.1835333595      -51.9594722861      -15.6684696465  W2        8405            0.0000000000
     25216      8406  TIP3      OH2            45.2068233595      -48.3369422861       -4.9318496465  W2        8406            0.0000000000
     25217      8406  TIP3      H1             44.5650333595      -48.3772122861       -4.2228396465  W2        8406            0.0000000000
     25218      8406  TIP3      H2             45.2440233595      -47.4104722861       -5.1695496465  W2        8406            0.0000000000
     25219      8407  TIP3      OH2            45.2037333595      -48.1159322861      -10.0198496465  W2        8407            0.0000000000
     25220      8407  TIP3      H1             44.3110233595      -48.4563222861      -10.0784696465  W2        8407            0.0000000000
     25221      8407  TIP3      H2             45.6543933595      -48.4928422861      -10.7755296465  W2        8407            0.0000000000
     25222      8408  TIP3      OH2            50.7392833595      -47.6999022861      -11.2027696465  W2        8408            0.0000000000
     25223      8408  TIP3      H1             50.3303133595      -46.8850422861      -11.4942896465  W2        8408            0.0000000000
     25224      8408  TIP3      H2             51.4599033595      -47.8398922861      -11.8170596465  W2        8408            0.0000000000
     25225      8409  TIP3      OH2            49.8414433595      -47.5242622861        0.2853003535  W2        8409            0.0000000000
     25226      8409  TIP3      H1             49.2788233595      -48.2291022861        0.6060803535  W2        8409            0.0000000000
     25227      8409  TIP3      H2             50.6677833595      -47.6450722861        0.7530603535  W2        8409            0.0000000000
     25228      8410  TIP3      OH2            51.7440533595      -48.2538622861       -8.3887996465  W2        8410            0.0000000000
     25229      8410  TIP3      H1             51.5485033595      -47.6481822861       -9.1037396465  W2        8410            0.0000000000
     25230      8410  TIP3      H2             51.9253133595      -49.0873422861       -8.8231696465  W2        8410            0.0000000000
     25231      8411  TIP3      OH2            42.9568733595      -48.0165922861       -3.0646496465  W2        8411            0.0000000000
     25232      8411  TIP3      H1             42.9188133595      -47.6164322861       -2.1959396465  W2        8411            0.0000000000
     25233      8411  TIP3      H2             42.4659833595      -48.8333522861       -2.9743596465  W2        8411            0.0000000000
     25234      8412  TIP3      OH2            46.3226133595      -50.6423622861      -16.2660496465  W2        8412            0.0000000000
     25235      8412  TIP3      H1             45.8916833595      -51.0873522861      -15.5363096465  W2        8412            0.0000000000
     25236      8412  TIP3      H2             45.6044833595      -50.2707322861      -16.7782996465  W2        8412            0.0000000000
     25237      8413  TIP3      OH2            39.5649533595      -50.9004122861       -9.2141796465  W2        8413            0.0000000000
     25238      8413  TIP3      H1             40.1957233595      -50.9292022861       -8.4947896465  W2        8413            0.0000000000
     25239      8413  TIP3      H2             40.0143833595      -51.3255422861       -9.9445896465  W2        8413            0.0000000000
     25240      8414  TIP3      OH2            40.8391633595      -50.1542122861      -13.7901396465  W2        8414            0.0000000000
     25241      8414  TIP3      H1             41.3133333595      -49.5632222861      -14.3750496465  W2        8414            0.0000000000
     25242      8414  TIP3      H2             40.1218033595      -49.6239222861      -13.4431296465  W2        8414            0.0000000000
     25243      8415  TIP3      OH2            51.0079733595      -46.6157322861       -3.7175596465  W2        8415            0.0000000000
     25244      8415  TIP3      H1             51.3314533595      -47.2467622861       -4.3605096465  W2        8415            0.0000000000
     25245      8415  TIP3      H2             50.5679033595      -47.1505122861       -3.0568196465  W2        8415            0.0000000000
     25246      8416  TIP3      OH2            47.7852633595      -50.6881822861       -8.9334396465  W2        8416            0.0000000000
     25247      8416  TIP3      H1             46.8743733595      -50.6315022861       -8.6448396465  W2        8416            0.0000000000
     25248      8416  TIP3      H2             48.2905533595      -50.7486322861       -8.1227196465  W2        8416            0.0000000000
     25249      8417  TIP3      OH2            42.6136033595      -49.0595522861      -10.1066796465  W2        8417            0.0000000000
     25250      8417  TIP3      H1             41.7244033595      -48.9600022861      -10.4467196465  W2        8417            0.0000000000
     25251      8417  TIP3      H2             42.9100933595      -49.9012522861      -10.4528896465  W2        8417            0.0000000000
     25252      8418  TIP3      OH2            46.2667833595      -49.0592922861      -12.4502196465  W2        8418            0.0000000000
     25253      8418  TIP3      H1             47.1983333595      -48.9302922861      -12.2719096465  W2        8418            0.0000000000
     25254      8418  TIP3      H2             46.0518133595      -48.3898622861      -13.0997496465  W2        8418            0.0000000000
     25255      8419  TIP3      OH2            52.1904533595      -51.4535522861       -5.6692596465  W2        8419            0.0000000000
     25256      8419  TIP3      H1             51.5136133595      -51.3222422861       -5.0052896465  W2        8419            0.0000000000
     25257      8419  TIP3      H2             51.7049433595      -51.6086022861       -6.4794896465  W2        8419            0.0000000000
     25258      8420  TIP3      OH2            44.9408033595      -47.8650722861      -14.8836096465  W2        8420            0.0000000000
     25259      8420  TIP3      H1             44.3983133595      -48.2446922861      -15.5748496465  W2        8420            0.0000000000
     25260      8420  TIP3      H2             45.7742933595      -47.6706022861      -15.3121996465  W2        8420            0.0000000000
     25261      8421  TIP3      OH2            43.0759433595      -43.3078822861        0.2155503535  W2        8421            0.0000000000
     25262      8421  TIP3      H1             43.8081833595      -43.0532922861        0.7770003535  W2        8421            0.0000000000
     25263      8421  TIP3      H2             42.2958133595      -43.1033422861        0.7310903535  W2        8421            0.0000000000
     25264      8422  TIP3      OH2            49.1052333595      -47.9008822861       -7.0464796465  W2        8422            0.0000000000
     25265      8422  TIP3      H1             49.6695733595      -48.4472222861       -7.5935196465  W2        8422            0.0000000000
     25266      8422  TIP3      H2             48.9575733595      -48.4226922861       -6.2577196465  W2        8422            0.0000000000
     25267      8423  TIP3      OH2            44.1072033595      -51.7642722861      -10.6279996465  W2        8423            0.0000000000
     25268      8423  TIP3      H1             43.7901533595      -52.6667422861      -10.6634596465  W2        8423            0.0000000000
     25269      8423  TIP3      H2             44.8886133595      -51.7625322861      -11.1808396465  W2        8423            0.0000000000
     25270      8424  TIP3      OH2            47.7318233595      -49.5122722861       -4.6324396465  W2        8424            0.0000000000
     25271      8424  TIP3      H1             46.8963533595      -49.0583222861       -4.5221996465  W2        8424            0.0000000000
     25272      8424  TIP3      H2             48.2558833595      -49.2364222861       -3.8804496465  W2        8424            0.0000000000
     25273      8425  TIP3      OH2            48.2760833595      -43.2995022861      -12.9477996465  W2        8425            0.0000000000
     25274      8425  TIP3      H1             47.5311833595      -43.8069722861      -13.2700096465  W2        8425            0.0000000000
     25275      8425  TIP3      H2             48.1418033595      -43.2507022861      -12.0013196465  W2        8425            0.0000000000
     25276      8426  TIP3      OH2            52.1737633595      -50.4855122861      -14.7485396465  W2        8426            0.0000000000
     25277      8426  TIP3      H1             51.2351833595      -50.3739522861      -14.8996596465  W2        8426            0.0000000000
     25278      8426  TIP3      H2             52.4709733595      -49.6288222861      -14.4419696465  W2        8426            0.0000000000
     25279      8427  TIP3      OH2            49.7952933595      -43.1151722861       -1.7108896465  W2        8427            0.0000000000
     25280      8427  TIP3      H1             49.4499033595      -43.4969322861       -0.9039296465  W2        8427            0.0000000000
     25281      8427  TIP3      H2             49.5953033595      -42.1818122861       -1.6395996465  W2        8427            0.0000000000
     25282      8428  TIP3      OH2            52.8921133595      -48.6182422861      -13.0877996465  W2        8428            0.0000000000
     25283      8428  TIP3      H1             53.7840133595      -48.7557422861      -12.7686796465  W2        8428            0.0000000000
     25284      8428  TIP3      H2             52.9484733595      -47.8276322861      -13.6244496465  W2        8428            0.0000000000
     25285      8429  TIP3      OH2            43.4009133595      -44.0045022861       -7.1780096465  W2        8429            0.0000000000
     25286      8429  TIP3      H1             44.1456333595      -44.0069322861       -7.7793596465  W2        8429            0.0000000000
     25287      8429  TIP3      H2             43.4785733595      -44.8281222861       -6.6964996465  W2        8429            0.0000000000
     25288      8430  TIP3      OH2            50.4014933595      -41.8410722861      -13.9223396465  W2        8430            0.0000000000
     25289      8430  TIP3      H1             50.1063333595      -41.0142822861      -13.5408596465  W2        8430            0.0000000000
     25290      8430  TIP3      H2             49.6984933595      -42.4603822861      -13.7261996465  W2        8430            0.0000000000
     25291      8431  TIP3      OH2            40.4088833595      -45.5438122861       -1.8631596465  W2        8431            0.0000000000
     25292      8431  TIP3      H1             40.6317433595      -45.9618522861       -1.0314096465  W2        8431            0.0000000000
     25293      8431  TIP3      H2             39.8068933595      -46.1563122861       -2.2858796465  W2        8431            0.0000000000
     25294      8432  TIP3      OH2            47.4253733595      -46.0268222861        0.3498103535  W2        8432            0.0000000000
     25295      8432  TIP3      H1             47.1294533595      -46.1925222861       -0.5452796465  W2        8432            0.0000000000
     25296      8432  TIP3      H2             48.3568933595      -46.2467922861        0.3392003535  W2        8432            0.0000000000
     25297      8433  TIP3      OH2            52.0456533595      -40.6536222861       -1.7603896465  W2        8433            0.0000000000
     25298      8433  TIP3      H1             51.1450833595      -40.4703622861       -2.0279996465  W2        8433            0.0000000000
     25299      8433  TIP3      H2             52.0797633595      -40.3946922861       -0.8395096465  W2        8433            0.0000000000
     25300      8434  TIP3      OH2            53.2325433595      -44.8148422861       -5.9067296465  W2        8434            0.0000000000
     25301      8434  TIP3      H1             52.3042333595      -45.0466522861       -5.9337996465  W2        8434            0.0000000000
     25302      8434  TIP3      H2             53.6836533595      -45.5918622861       -6.2368496465  W2        8434            0.0000000000
     25303      8435  TIP3      OH2            45.7758533595      -40.4866822861       -9.7738596465  W2        8435            0.0000000000
     25304      8435  TIP3      H1             46.3030733595      -39.7132422861       -9.9739796465  W2        8435            0.0000000000
     25305      8435  TIP3      H2             44.8957033595      -40.2617622861      -10.0754596465  W2        8435            0.0000000000
     25306      8436  TIP3      OH2            41.5306233595      -45.6242722861      -15.1866196465  W2        8436            0.0000000000
     25307      8436  TIP3      H1             42.1466133595      -44.9975522861      -14.8071396465  W2        8436            0.0000000000
     25308      8436  TIP3      H2             40.6688833595      -45.3082922861      -14.9149696465  W2        8436            0.0000000000
     25309      8437  TIP3      OH2            47.2030833595      -42.8236922861      -10.1974296465  W2        8437            0.0000000000
     25310      8437  TIP3      H1             46.9620833595      -41.8982522861      -10.1558996465  W2        8437            0.0000000000
     25311      8437  TIP3      H2             46.4624433595      -43.2825622861       -9.8010396465  W2        8437            0.0000000000
     25312      8438  TIP3      OH2            47.7177433595      -38.6743322861       -3.8823196465  W2        8438            0.0000000000
     25313      8438  TIP3      H1             48.0802133595      -37.8197722861       -4.1158796465  W2        8438            0.0000000000
     25314      8438  TIP3      H2             48.2492633595      -38.9661722861       -3.1416896465  W2        8438            0.0000000000
     25315      8439  TIP3      OH2            45.8861633595      -37.8019322861      -10.6522096465  W2        8439            0.0000000000
     25316      8439  TIP3      H1             44.9362133595      -37.6961922861      -10.6008796465  W2        8439            0.0000000000
     25317      8439  TIP3      H2             46.2379733595      -36.9811922861      -10.3074596465  W2        8439            0.0000000000
     25318      8440  TIP3      OH2            51.2618233595      -42.5752622861       -4.1817596465  W2        8440            0.0000000000
     25319      8440  TIP3      H1             50.8359533595      -42.8030922861       -3.3553596465  W2        8440            0.0000000000
     25320      8440  TIP3      H2             51.8424033595      -43.3140822861       -4.3642296465  W2        8440            0.0000000000
     25321      8441  TIP3      OH2            53.4647133595      -41.6462122861      -15.1078596465  W2        8441            0.0000000000
     25322      8441  TIP3      H1             53.8180233595      -42.0262322861      -14.3035096465  W2        8441            0.0000000000
     25323      8441  TIP3      H2             52.5160633595      -41.7397322861      -15.0209296465  W2        8441            0.0000000000
     25324      8442  TIP3      OH2            53.9202433595      -38.0233122861       -1.7122796465  W2        8442            0.0000000000
     25325      8442  TIP3      H1             53.3185633595      -38.5790222861       -2.2076496465  W2        8442            0.0000000000
     25326      8442  TIP3      H2             54.2016133595      -37.3563322861       -2.3385396465  W2        8442            0.0000000000
     25327      8443  TIP3      OH2            42.0428333595      -50.7905422861       -2.3050196465  W2        8443            0.0000000000
     25328      8443  TIP3      H1             41.1500633595      -50.4520022861       -2.3726196465  W2        8443            0.0000000000
     25329      8443  TIP3      H2             41.9441133595      -51.6459322861       -1.8869396465  W2        8443            0.0000000000
     25330      8444  TIP3      OH2            54.3306433595      -42.9740122861      -12.8810696465  W2        8444            0.0000000000
     25331      8444  TIP3      H1             54.0534033595      -43.7020822861      -12.3249596465  W2        8444            0.0000000000
     25332      8444  TIP3      H2             55.2579433595      -42.8548122861      -12.6758096465  W2        8444            0.0000000000
     25333      8445  TIP3      OH2            41.6940333595      -38.9861022861       -3.8700796465  W2        8445            0.0000000000
     25334      8445  TIP3      H1             41.9110633595      -39.9178622861       -3.9011096465  W2        8445            0.0000000000
     25335      8445  TIP3      H2             41.9403833595      -38.7116022861       -2.9867996465  W2        8445            0.0000000000
     25336      8446  TIP3      OH2            47.5554933595      -40.5346022861      -16.6608596465  W2        8446            0.0000000000
     25337      8446  TIP3      H1             47.7944733595      -41.2827922861      -17.2079696465  W2        8446            0.0000000000
     25338      8446  TIP3      H2             47.2866233595      -40.9224322861      -15.8280796465  W2        8446            0.0000000000
     25339      8447  TIP3      OH2            46.4925533595      -40.9642222861      -14.2045996465  W2        8447            0.0000000000
     25340      8447  TIP3      H1             46.6393533595      -41.4842422861      -13.4145096465  W2        8447            0.0000000000
     25341      8447  TIP3      H2             46.4897233595      -40.0574622861      -13.8980096465  W2        8447            0.0000000000
     25342      8448  TIP3      OH2            42.9456633595      -43.7118922861      -13.6940596465  W2        8448            0.0000000000
     25343      8448  TIP3      H1             42.2595933595      -43.3596422861      -13.1270896465  W2        8448            0.0000000000
     25344      8448  TIP3      H2             43.4684533595      -42.9489322861      -13.9406296465  W2        8448            0.0000000000
     25345      8449  TIP3      OH2            50.7771733595      -51.0495122861       -3.4151596465  W2        8449            0.0000000000
     25346      8449  TIP3      H1             51.4759633595      -50.9756422861       -2.7651896465  W2        8449            0.0000000000
     25347      8449  TIP3      H2             50.3963133595      -51.9140122861       -3.2608696465  W2        8449            0.0000000000
     25348      8450  TIP3      OH2            51.5616633595      -51.3973422861      -12.3179296465  W2        8450            0.0000000000
     25349      8450  TIP3      H1             51.7814933595      -50.9258022861      -13.1213896465  W2        8450            0.0000000000
     25350      8450  TIP3      H2             52.1200633595      -51.0030822861      -11.6478696465  W2        8450            0.0000000000
     25351      8451  TIP3      OH2            49.2302733595      -39.2668622861      -13.4551796465  W2        8451            0.0000000000
     25352      8451  TIP3      H1             48.4138833595      -38.7698922861      -13.4027496465  W2        8451            0.0000000000
     25353      8451  TIP3      H2             49.7599033595      -38.7915122861      -14.0952996465  W2        8451            0.0000000000
     25354      8452  TIP3      OH2            48.7616533595      -49.6694622861      -11.4830896465  W2        8452            0.0000000000
     25355      8452  TIP3      H1             49.5739133595      -49.1651422861      -11.4369196465  W2        8452            0.0000000000
     25356      8452  TIP3      H2             48.5169533595      -49.8144922861      -10.5691296465  W2        8452            0.0000000000
     25357      8453  TIP3      OH2            49.2972933595      -48.6831922861       -2.2984296465  W2        8453            0.0000000000
     25358      8453  TIP3      H1             49.4163233595      -48.1096522861       -1.5413896465  W2        8453            0.0000000000
     25359      8453  TIP3      H2             49.9527533595      -49.3712522861       -2.1836496465  W2        8453            0.0000000000
     25360      8454  TIP3      OH2            49.6453233595      -52.5881622861      -10.5449796465  W2        8454            0.0000000000
     25361      8454  TIP3      H1             49.2986733595      -51.9711022861       -9.9005496465  W2        8454            0.0000000000
     25362      8454  TIP3      H2             50.3040133595      -52.0875922861      -11.0264296465  W2        8454            0.0000000000
     25363      8455  TIP3      OH2            46.5685833595      -38.2231422861      -13.4734896465  W2        8455            0.0000000000
     25364      8455  TIP3      H1             46.7294533595      -37.4233922861      -13.9742296465  W2        8455            0.0000000000
     25365      8455  TIP3      H2             46.3713633595      -37.9165422861      -12.5884296465  W2        8455            0.0000000000
     25366      8456  TIP3      OH2            45.3030233595      -51.5252222861      -13.8577296465  W2        8456            0.0000000000
     25367      8456  TIP3      H1             45.2195033595      -50.6369122861      -13.5110896465  W2        8456            0.0000000000
     25368      8456  TIP3      H2             46.1930533595      -51.7905522861      -13.6260496465  W2        8456            0.0000000000
     25369      8457  TIP3      OH2            54.1039733595      -47.0260622861       -7.3677296465  W2        8457            0.0000000000
     25370      8457  TIP3      H1             53.3064133595      -47.4410422861       -7.6962296465  W2        8457            0.0000000000
     25371      8457  TIP3      H2             54.5490833595      -47.7166922861       -6.8766796465  W2        8457            0.0000000000
     25372      8458  TIP3      OH2            43.5615533595      -41.0980022861      -14.7972796465  W2        8458            0.0000000000
     25373      8458  TIP3      H1             44.1537033595      -40.3985222861      -14.5210396465  W2        8458            0.0000000000
     25374      8458  TIP3      H2             44.0208533595      -41.5310522861      -15.5168196465  W2        8458            0.0000000000
     25375      8459  TIP3      OH2            41.8774733595      -48.4337022861      -15.6813396465  W2        8459            0.0000000000
     25376      8459  TIP3      H1             41.8327333595      -47.4943922861      -15.5026396465  W2        8459            0.0000000000
     25377      8459  TIP3      H2             40.9897933595      -48.6692122861      -15.9511296465  W2        8459            0.0000000000
     25378      8460  TIP3      OH2            42.6856733595      -53.6520422861       -7.0082396465  W2        8460            0.0000000000
     25379      8460  TIP3      H1             42.4566533595      -53.5927922861       -7.9357396465  W2        8460            0.0000000000
     25380      8460  TIP3      H2             42.2430133595      -54.4434922861       -6.7018296465  W2        8460            0.0000000000
     25381      8461  TIP3      OH2            41.6160033595      -39.7113322861      -10.8476596465  W2        8461            0.0000000000
     25382      8461  TIP3      H1             40.7838633595      -39.2390622861      -10.8205196465  W2        8461            0.0000000000
     25383      8461  TIP3      H2             42.1618333595      -39.2015722861      -11.4463496465  W2        8461            0.0000000000
     25384      8462  TIP3      OH2            40.9043733595      -37.0989622861        0.4821403535  W2        8462            0.0000000000
     25385      8462  TIP3      H1             41.4445933595      -37.3155622861        1.2420603535  W2        8462            0.0000000000
     25386      8462  TIP3      H2             40.4231733595      -37.9043622861        0.2923903535  W2        8462            0.0000000000
     25387      8463  TIP3      OH2            45.5017133595      -38.1795222861        2.1025603535  W2        8463            0.0000000000
     25388      8463  TIP3      H1             46.2694333595      -38.6384422861        2.4434803535  W2        8463            0.0000000000
     25389      8463  TIP3      H2             45.4803333595      -38.4055422861        1.1726803535  W2        8463            0.0000000000
     25390      8464  TIP3      OH2            49.5936733595      -38.6714622861      -16.5222596465  W2        8464            0.0000000000
     25391      8464  TIP3      H1             48.9497733595      -39.3026022861      -16.2008896465  W2        8464            0.0000000000
     25392      8464  TIP3      H2             50.3555033595      -39.2026622861      -16.7539096465  W2        8464            0.0000000000
     25393      8465  TIP3      OH2            52.0785833595      -39.7994122861        0.8317103535  W2        8465            0.0000000000
     25394      8465  TIP3      H1             51.7275333595      -40.6561122861        1.0747503535  W2        8465            0.0000000000
     25395      8465  TIP3      H2             52.8049033595      -39.6567422861        1.4386103535  W2        8465            0.0000000000
     25396      8466  TIP3      OH2            54.1979633595      -38.8544722861      -16.2884596465  W2        8466            0.0000000000
     25397      8466  TIP3      H1             54.4810033595      -39.6489522861      -15.8357696465  W2        8466            0.0000000000
     25398      8466  TIP3      H2             54.9377533595      -38.6213722861      -16.8493496465  W2        8466            0.0000000000
     25399      8467  TIP3      OH2            40.8113233595      -43.2885522861        1.4365703535  W2        8467            0.0000000000
     25400      8467  TIP3      H1             40.9553733595      -44.1904822861        1.1502403535  W2        8467            0.0000000000
     25401      8467  TIP3      H2             40.0390633595      -43.0023422861        0.9488003535  W2        8467            0.0000000000
     25402      8468  TIP3      OH2            45.1526933595      -42.9449822861      -16.4309696465  W2        8468            0.0000000000
     25403      8468  TIP3      H1             45.2171033595      -43.7390222861      -15.9003296465  W2        8468            0.0000000000
     25404      8468  TIP3      H2             45.8056133595      -43.0637022861      -17.1207696465  W2        8468            0.0000000000
     25405      8469  TIP3      OH2            47.4669333595      -43.3187422861        0.8692103535  W2        8469            0.0000000000
     25406      8469  TIP3      H1             47.1383133595      -43.0479322861        0.0119503535  W2        8469            0.0000000000
     25407      8469  TIP3      H2             47.6187533595      -44.2597622861        0.7817103535  W2        8469            0.0000000000
     25408      8470  TIP3      OH2            50.5050333595      -41.8978122861      -16.6951696465  W2        8470            0.0000000000
     25409      8470  TIP3      H1             50.2364433595      -41.7176022861      -15.7942796465  W2        8470            0.0000000000
     25410      8470  TIP3      H2             50.2985933595      -42.8231922861      -16.8265896465  W2        8470            0.0000000000
     25411      8471  TIP3      OH2            53.2014533595      -43.4030122861       -1.7475596465  W2        8471            0.0000000000
     25412      8471  TIP3      H1             53.9469333595      -42.8146422861       -1.8671596465  W2        8471            0.0000000000
     25413      8471  TIP3      H2             52.4441333595      -42.8210422861       -1.6842496465  W2        8471            0.0000000000
     25414      8472  TIP3      OH2            41.6439733595      -46.0882222861        0.8565003535  W2        8472            0.0000000000
     25415      8472  TIP3      H1             42.0520933595      -46.9455622861        0.7355603535  W2        8472            0.0000000000
     25416      8472  TIP3      H2             41.3837333595      -46.0740922861        1.7775303535  W2        8472            0.0000000000
     25417      8473  TIP3      OH2            46.3020733595      -44.9723622861      -14.1251696465  W2        8473            0.0000000000
     25418      8473  TIP3      H1             45.8422733595      -45.4565322861      -13.4393196465  W2        8473            0.0000000000
     25419      8473  TIP3      H2             46.5569433595      -45.6408222861      -14.7611196465  W2        8473            0.0000000000
     25420      8474  TIP3      OH2            45.5910033595      -47.0796522861       -1.7692096465  W2        8474            0.0000000000
     25421      8474  TIP3      H1             44.9726133595      -46.4049922861       -1.4887396465  W2        8474            0.0000000000
     25422      8474  TIP3      H2             45.9351233595      -46.7582622861       -2.6025896465  W2        8474            0.0000000000
     25423      8475  TIP3      OH2            47.3731133595      -46.7291822861      -15.8628496465  W2        8475            0.0000000000
     25424      8475  TIP3      H1             47.1926133595      -46.8840622861      -16.7900196465  W2        8475            0.0000000000
     25425      8475  TIP3      H2             48.3231633595      -46.6213122861      -15.8180596465  W2        8475            0.0000000000
     25426      8476  TIP3      OH2            50.6108233595      -44.6081222861        1.5082703535  W2        8476            0.0000000000
     25427      8476  TIP3      H1             51.5639433595      -44.5242122861        1.4808703535  W2        8476            0.0000000000
     25428      8476  TIP3      H2             50.4502833595      -45.3199422861        2.1277603535  W2        8476            0.0000000000
     25429      8477  TIP3      OH2            45.9303733595      -49.7245722861       -0.6868996465  W2        8477            0.0000000000
     25430      8477  TIP3      H1             46.0804633595      -50.4534422861       -1.2889296465  W2        8477            0.0000000000
     25431      8477  TIP3      H2             45.9326133595      -48.9474022861       -1.2456796465  W2        8477            0.0000000000
     25432      8478  TIP3      OH2            46.3429433595      -51.3549922861       -3.1941596465  W2        8478            0.0000000000
     25433      8478  TIP3      H1             46.8786933595      -50.9033222861       -3.8462296465  W2        8478            0.0000000000
     25434      8478  TIP3      H2             45.4909033595      -51.4630122861       -3.6167496465  W2        8478            0.0000000000
     25435      8479  TIP3      OH2            47.9247833595      -45.9153722861       -2.9546396465  W2        8479            0.0000000000
     25436      8479  TIP3      H1             48.6752633595      -46.0716222861       -3.5278596465  W2        8479            0.0000000000
     25437      8479  TIP3      H2             47.5856133595      -45.0637122861       -3.2300896465  W2        8479            0.0000000000
     25438      8480  TIP3      OH2            52.3404033595      -48.1001922861        2.0738903535  W2        8480            0.0000000000
     25439      8480  TIP3      H1             52.5325333595      -49.0312522861        1.9623403535  W2        8480            0.0000000000
     25440      8480  TIP3      H2             53.1980333595      -47.6752422861        2.0634303535  W2        8480            0.0000000000
     25441      8481  TIP3      OH2            53.6571233595      -45.3116722861        0.1511603535  W2        8481            0.0000000000
     25442      8481  TIP3      H1             53.3756233595      -44.6022122861       -0.4264596465  W2        8481            0.0000000000
     25443      8481  TIP3      H2             54.5995533595      -45.3843722861        0.0002803535  W2        8481            0.0000000000
     25444      8482  TIP3      OH2            44.4090033595      -48.5262222861        1.2246603535  W2        8482            0.0000000000
     25445      8482  TIP3      H1             43.6419033595      -49.0587422861        1.0144203535  W2        8482            0.0000000000
     25446      8482  TIP3      H2             45.0879033595      -48.8361822861        0.6252903535  W2        8482            0.0000000000
     25447      8483  TIP3      OH2            47.1484933595      -53.8984222861       -2.7627996465  W2        8483            0.0000000000
     25448      8483  TIP3      H1             47.0504533595      -52.9521022861       -2.8681796465  W2        8483            0.0000000000
     25449      8483  TIP3      H2             46.4061133595      -54.2710422861       -3.2384496465  W2        8483            0.0000000000
     25450      8484  TIP3      OH2            48.4125433595      -49.5768822861        0.8010403535  W2        8484            0.0000000000
     25451      8484  TIP3      H1             48.1770833595      -49.7962122861        1.7025303535  W2        8484            0.0000000000
     25452      8484  TIP3      H2             47.6292333595      -49.7837622861        0.2912903535  W2        8484            0.0000000000
     25453      8485  TIP3      OH2            51.1282033595      -50.4495322861       -0.1236096465  W2        8485            0.0000000000
     25454      8485  TIP3      H1             50.1807433595      -50.4175622861        0.0087203535  W2        8485            0.0000000000
     25455      8485  TIP3      H2             51.4408733595      -51.0748222861        0.5302103535  W2        8485            0.0000000000
     25456      8486  TIP3      OH2            52.7623533595      -51.8154222861        1.8815803535  W2        8486            0.0000000000
     25457      8486  TIP3      H1             52.6655333595      -52.7676922861        1.8757703535  W2        8486            0.0000000000
     25458      8486  TIP3      H2             52.4406633595      -51.5467422861        2.7421303535  W2        8486            0.0000000000
     25459      8487  TIP3      OH2            42.5892833595      -50.6058422861        0.9291303535  W2        8487            0.0000000000
     25460      8487  TIP3      H1             42.8010233595      -51.3122322861        0.3188803535  W2        8487            0.0000000000
     25461      8487  TIP3      H2             42.4780333595      -51.0432422861        1.7732503535  W2        8487            0.0000000000
     25462      8488  TIP3      OH2            47.3703033595      -54.6046822861       -0.0915196465  W2        8488            0.0000000000
     25463      8488  TIP3      H1             48.0821433595      -55.2444622861       -0.1056096465  W2        8488            0.0000000000
     25464      8488  TIP3      H2             47.2693433595      -54.3378522861       -1.0052096465  W2        8488            0.0000000000
     25465      8489  TIP3      OH2            47.7240533595      -52.9218422861        1.9621103535  W2        8489            0.0000000000
     25466      8489  TIP3      H1             47.5922733595      -53.3974622861        1.1419603535  W2        8489            0.0000000000
     25467      8489  TIP3      H2             47.1247933595      -52.1774822861        1.9068203535  W2        8489            0.0000000000
     25468      8490  TIP3      OH2            47.2702833595      -36.0388122861      -14.8614896465  W2        8490            0.0000000000
     25469      8490  TIP3      H1             48.2033533595      -35.8809422861      -14.7176496465  W2        8490            0.0000000000
     25470      8490  TIP3      H2             47.0061633595      -35.3635122861      -15.4863396465  W2        8490            0.0000000000
     25471      8491  TIP3      OH2            40.8387733595      -41.4024322861      -15.3786796465  W2        8491            0.0000000000
     25472      8491  TIP3      H1             41.7526933595      -41.3235422861      -15.1052896465  W2        8491            0.0000000000
     25473      8491  TIP3      H2             40.8460833595      -42.0894722861      -16.0451196465  W2        8491            0.0000000000
     25474      8492  TIP3      OH2            39.4878333595      -36.0095822861      -10.3012896465  W2        8492            0.0000000000
     25475      8492  TIP3      H1             38.8405433595      -36.4714122861      -10.8341696465  W2        8492            0.0000000000
     25476      8492  TIP3      H2             39.8422933595      -36.6812522861       -9.7186696465  W2        8492            0.0000000000
     25477      8493  TIP3      OH2            40.3577533595      -37.9288822861       -8.4966696465  W2        8493            0.0000000000
     25478      8493  TIP3      H1             40.0234333595      -38.8091522861       -8.3246496465  W2        8493            0.0000000000
     25479      8493  TIP3      H2             40.5799933595      -37.5833822861       -7.6321096465  W2        8493            0.0000000000
     25480      8494  TIP3      OH2            40.4377033595      -44.8533422861       -6.0451796465  W2        8494            0.0000000000
     25481      8494  TIP3      H1             40.6219933595      -44.9351722861       -6.9808896465  W2        8494            0.0000000000
     25482      8494  TIP3      H2             41.2869933595      -44.9776422861       -5.6215396465  W2        8494            0.0000000000
     25483      8495  TIP3      OH2            40.0351833595      -49.5828422861        0.0957003535  W2        8495            0.0000000000
     25484      8495  TIP3      H1             40.9546733595      -49.7050122861        0.3320103535  W2        8495            0.0000000000
     25485      8495  TIP3      H2             39.5856333595      -50.3328722861        0.4850503535  W2        8495            0.0000000000
     25486      8496  TIP3      OH2            41.2564333595      -51.2706822861       -7.0130096465  W2        8496            0.0000000000
     25487      8496  TIP3      H1             41.7015933595      -52.0624322861       -6.7110396465  W2        8496            0.0000000000
     25488      8496  TIP3      H2             41.7227333595      -50.5541622861       -6.5824496465  W2        8496            0.0000000000
     25489      8497  TIP3      OH2            39.5604633595      -48.2713822861       -5.9439896465  W2        8497            0.0000000000
     25490      8497  TIP3      H1             40.0524433595      -48.4923322861       -6.7347896465  W2        8497            0.0000000000
     25491      8497  TIP3      H2             39.9225533595      -47.4310422861       -5.6630396465  W2        8497            0.0000000000
     25492      8498  TIP3      OH2            39.8741133595      -52.0134722861      -11.8897496465  W2        8498            0.0000000000
     25493      8498  TIP3      H1             38.9489533595      -51.8048122861      -12.0191996465  W2        8498            0.0000000000
     25494      8498  TIP3      H2             40.3281033595      -51.5293922861      -12.5795196465  W2        8498            0.0000000000
     25495      8499  TIP3      OH2            54.6448333595      -37.0293022861       -9.9440096465  W2        8499            0.0000000000
     25496      8499  TIP3      H1             55.2971233595      -37.3770922861      -10.5520996465  W2        8499            0.0000000000
     25497      8499  TIP3      H2             55.1552133595      -36.5409822861       -9.2980396465  W2        8499            0.0000000000
     25498      8500  TIP3      OH2            39.8376533595      -53.2755722861       -3.5454996465  W2        8500            0.0000000000
     25499      8500  TIP3      H1             39.1727033595      -53.5215422861       -2.9024096465  W2        8500            0.0000000000
     25500      8500  TIP3      H2             39.3947833595      -52.6535322861       -4.1226996465  W2        8500            0.0000000000
     25501      8501  TIP3      OH2            42.0295833595      -40.1001622861        0.5990803535  W2        8501            0.0000000000
     25502      8501  TIP3      H1             41.2088333595      -39.9255122861        0.1385503535  W2        8501            0.0000000000
     25503      8501  TIP3      H2             41.7773633595      -40.1736922861        1.5195203535  W2        8501            0.0000000000
     25504      8502  TIP3      OH2            44.9838733595      -39.1260422861       -3.1425196465  W2        8502            0.0000000000
     25505      8502  TIP3      H1             44.5589833595      -38.3161922861       -3.4250596465  W2        8502            0.0000000000
     25506      8502  TIP3      H2             45.8881533595      -39.0406322861       -3.4445396465  W2        8502            0.0000000000
     25507      8503  TIP3      OH2            49.2950133595      -37.7270422861       -0.1831496465  W2        8503            0.0000000000
     25508      8503  TIP3      H1             49.4797633595      -38.0604322861        0.6948803535  W2        8503            0.0000000000
     25509      8503  TIP3      H2             50.1414633595      -37.4171822861       -0.5052296465  W2        8503            0.0000000000
     25510      8504  TIP3      OH2            51.6400533595      -36.4411522861       -0.9390096465  W2        8504            0.0000000000
     25511      8504  TIP3      H1             52.3169433595      -37.0739222861       -1.1790896465  W2        8504            0.0000000000
     25512      8504  TIP3      H2             51.9619333595      -36.0401022861       -0.1316796465  W2        8504            0.0000000000
     25513      8505  TIP3      OH2            42.3855433595      -35.8696522861       -3.0949896465  W2        8505            0.0000000000
     25514      8505  TIP3      H1             41.6651833595      -35.4295522861       -3.5462196465  W2        8505            0.0000000000
     25515      8505  TIP3      H2             42.0199433595      -36.1201822861       -2.2465896465  W2        8505            0.0000000000
     25516      8506  TIP3      OH2            44.8528033595      -36.2692622861       -4.0652696465  W2        8506            0.0000000000
     25517      8506  TIP3      H1             43.9880233595      -36.1974122861       -3.6612596465  W2        8506            0.0000000000
     25518      8506  TIP3      H2             44.7977033595      -35.7225322861       -4.8490196465  W2        8506            0.0000000000
     25519      8507  TIP3      OH2            49.5633633595      -36.3813722861       -4.8896696465  W2        8507            0.0000000000
     25520      8507  TIP3      H1             49.1067633595      -35.8524022861       -5.5438296465  W2        8507            0.0000000000
     25521      8507  TIP3      H2             49.7261633595      -35.7782322861       -4.1644396465  W2        8507            0.0000000000
     25522      8508  TIP3      OH2            51.8909933595      -37.5034122861       -3.9446396465  W2        8508            0.0000000000
     25523      8508  TIP3      H1             50.9863633595      -37.3383922861       -4.2104296465  W2        8508            0.0000000000
     25524      8508  TIP3      H2             52.3198533595      -36.6501922861       -4.0102996465  W2        8508            0.0000000000
     25525      8509  TIP3      OH2            54.4951833595      -35.9335022861       -3.6498596465  W2        8509            0.0000000000
     25526      8509  TIP3      H1             54.3133833595      -35.0176122861       -3.8603696465  W2        8509            0.0000000000
     25527      8509  TIP3      H2             54.6719633595      -36.3437922861       -4.4963996465  W2        8509            0.0000000000
     25528      8510  TIP3      OH2            41.8003533595      -37.2464022861       -6.1848096465  W2        8510            0.0000000000
     25529      8510  TIP3      H1             41.7819533595      -37.6718922861       -5.3275796465  W2        8510            0.0000000000
     25530      8510  TIP3      H2             42.6051433595      -37.5649022861       -6.5935896465  W2        8510            0.0000000000
     25531      8511  TIP3      OH2            43.9416633595      -38.5365322861       -7.5298196465  W2        8511            0.0000000000
     25532      8511  TIP3      H1             43.7227333595      -39.4527922861       -7.3602196465  W2        8511            0.0000000000
     25533      8511  TIP3      H2             44.7658833595      -38.3964922861       -7.0636796465  W2        8511            0.0000000000
     25534      8512  TIP3      OH2            46.4789133595      -38.0666022861       -6.6810196465  W2        8512            0.0000000000
     25535      8512  TIP3      H1             46.6914833595      -38.9547022861       -6.9679296465  W2        8512            0.0000000000
     25536      8512  TIP3      H2             46.5434233595      -38.1008322861       -5.7266196465  W2        8512            0.0000000000
     25537      8513  TIP3      OH2            49.9872833595      -52.4025422861       -7.5366896465  W2        8513            0.0000000000
     25538      8513  TIP3      H1             49.3129633595      -53.0319822861       -7.2811096465  W2        8513            0.0000000000
     25539      8513  TIP3      H2             50.5512033595      -52.8866522861       -8.1398996465  W2        8513            0.0000000000
     25540      8514  TIP3      OH2            42.3140333595      -53.7685122861       -9.7146996465  W2        8514            0.0000000000
     25541      8514  TIP3      H1             41.5370133595      -54.0030222861      -10.2221096465  W2        8514            0.0000000000
     25542      8514  TIP3      H2             42.8443933595      -54.5653022861       -9.7058996465  W2        8514            0.0000000000
     25543      8515  TIP3      OH2            41.1503733595      -53.9707022861      -13.9110896465  W2        8515            0.0000000000
     25544      8515  TIP3      H1             41.5894433595      -53.3596522861      -14.5027396465  W2        8515            0.0000000000
     25545      8515  TIP3      H2             40.5166133595      -53.4322922861      -13.4370896465  W2        8515            0.0000000000
     25546      8516  TIP3      OH2            46.8932933595      -53.8418022861       -9.9013896465  W2        8516            0.0000000000
     25547      8516  TIP3      H1             47.7676333595      -53.4533722861       -9.9309596465  W2        8516            0.0000000000
     25548      8516  TIP3      H2             46.7573733595      -54.0570222861       -8.9786696465  W2        8516            0.0000000000
     25549      8517  TIP3      OH2            52.4501333595      -53.8118222861       -8.2522196465  W2        8517            0.0000000000
     25550      8517  TIP3      H1             52.5262933595      -53.7166622861       -9.2016196465  W2        8517            0.0000000000
     25551      8517  TIP3      H2             52.1750533595      -54.7195322861       -8.1233096465  W2        8517            0.0000000000
     25552      8518  TIP3      OH2            53.8033933595      -53.7860422861      -12.5597196465  W2        8518            0.0000000000
     25553      8518  TIP3      H1             53.1005033595      -53.1711222861      -12.7695796465  W2        8518            0.0000000000
     25554      8518  TIP3      H2             53.3585333595      -54.6233722861      -12.4286296465  W2        8518            0.0000000000
     25555      8519  TIP3      OH2            41.0513233595      -38.0224822861      -13.0135796465  W2        8519            0.0000000000
     25556      8519  TIP3      H1             40.3663133595      -38.0605922861      -13.6810696465  W2        8519            0.0000000000
     25557      8519  TIP3      H2             41.0550433595      -37.1097222861      -12.7253696465  W2        8519            0.0000000000
     25558      8520  TIP3      OH2            43.0112833595      -52.0545522861      -15.4686796465  W2        8520            0.0000000000
     25559      8520  TIP3      H1             43.5026233595      -52.6843122861      -15.9961296465  W2        8520            0.0000000000
     25560      8520  TIP3      H2             43.6349133595      -51.7586122861      -14.8055596465  W2        8520            0.0000000000
     25561      8521  TIP3      OH2            48.0372933595      -51.7614022861      -13.0116296465  W2        8521            0.0000000000
     25562      8521  TIP3      H1             48.2154233595      -52.4080822861      -12.3287696465  W2        8521            0.0000000000
     25563      8521  TIP3      H2             47.9839133595      -50.9276322861      -12.5445196465  W2        8521            0.0000000000
     25564      8522  TIP3      OH2            49.9156733595      -36.8129922861      -14.6159596465  W2        8522            0.0000000000
     25565      8522  TIP3      H1             50.7816933595      -36.4462522861      -14.7941396465  W2        8522            0.0000000000
     25566      8522  TIP3      H2             49.6689533595      -37.2521922861      -15.4298796465  W2        8522            0.0000000000
     25567      8523  TIP3      OH2            42.2718333595      -53.2543222861       -0.1970796465  W2        8523            0.0000000000
     25568      8523  TIP3      H1             41.9056533595      -54.0200622861        0.2453903535  W2        8523            0.0000000000
     25569      8523  TIP3      H2             43.1846833595      -53.2253022861        0.0894303535  W2        8523            0.0000000000
     25570      8524  TIP3      OH2            44.2449133595      -53.9038822861        1.3386303535  W2        8524            0.0000000000
     25571      8524  TIP3      H1             45.1432733595      -54.1778622861        1.1539703535  W2        8524            0.0000000000
     25572      8524  TIP3      H2             43.8582233595      -54.6462822861        1.8028903535  W2        8524            0.0000000000
     25573      8525  TIP3      OH2            42.8694433595      -37.1024022861      -15.9883696465  W2        8525            0.0000000000
     25574      8525  TIP3      H1             42.6019033595      -36.8161122861      -15.1150596465  W2        8525            0.0000000000
     25575      8525  TIP3      H2             43.6407033595      -37.6484822861      -15.8361196465  W2        8525            0.0000000000
     25576      8526  TIP3      OH2            52.6661433595      -54.5713522861        1.5209103535  W2        8526            0.0000000000
     25577      8526  TIP3      H1             52.7428633595      -54.9972822861        2.3746803535  W2        8526            0.0000000000
     25578      8526  TIP3      H2             53.5598033595      -54.5578822861        1.1782603535  W2        8526            0.0000000000
     25579      8527  TIP3      OH2           -42.8877066405      -25.7562822861       -9.7559496465  W2        8527            0.0000000000
     25580      8527  TIP3      H1            -42.7985966405      -24.8124622861       -9.8882396465  W2        8527            0.0000000000
     25581      8527  TIP3      H2            -43.5259466405      -26.0316422861      -10.4140096465  W2        8527            0.0000000000
     25582      8528  TIP3      OH2           -43.9545766405      -26.5012122861       -6.3371296465  W2        8528            0.0000000000
     25583      8528  TIP3      H1            -43.9928266405      -27.1475822861       -5.6321696465  W2        8528            0.0000000000
     25584      8528  TIP3      H2            -44.2769266405      -26.9677722861       -7.1082596465  W2        8528            0.0000000000
     25585      8529  TIP3      OH2           -51.5860766405      -26.8870022861       -4.7441396465  W2        8529            0.0000000000
     25586      8529  TIP3      H1            -51.5448666405      -27.5126722861       -4.0208996465  W2        8529            0.0000000000
     25587      8529  TIP3      H2            -50.8833066405      -26.2631422861       -4.5620996465  W2        8529            0.0000000000
     25588      8530  TIP3      OH2           -40.2485566405      -23.5621722861       -8.0356196465  W2        8530            0.0000000000
     25589      8530  TIP3      H1            -40.6892866405      -24.2825722861       -7.5850596465  W2        8530            0.0000000000
     25590      8530  TIP3      H2            -40.2615866405      -22.8414522861       -7.4058496465  W2        8530            0.0000000000
     25591      8531  TIP3      OH2           -50.6627666405      -22.4371122861       -6.2092296465  W2        8531            0.0000000000
     25592      8531  TIP3      H1            -51.0322466405      -23.2390622861       -6.5787996465  W2        8531            0.0000000000
     25593      8531  TIP3      H2            -49.7216566405      -22.6056222861       -6.1628896465  W2        8531            0.0000000000
     25594      8532  TIP3      OH2           -54.0527166405      -28.7768522861      -10.8163496465  W2        8532            0.0000000000
     25595      8532  TIP3      H1            -54.5003766405      -27.9309822861      -10.8346996465  W2        8532            0.0000000000
     25596      8532  TIP3      H2            -54.6135966405      -29.3564322861      -11.3318396465  W2        8532            0.0000000000
     25597      8533  TIP3      OH2           -53.3421066405      -26.6148922861       -8.6905496465  W2        8533            0.0000000000
     25598      8533  TIP3      H1            -53.1287566405      -27.3847322861       -8.1632496465  W2        8533            0.0000000000
     25599      8533  TIP3      H2            -52.6043466405      -26.5252222861       -9.2937896465  W2        8533            0.0000000000
     25600      8534  TIP3      OH2           -43.1370066405      -18.4580022861       -7.8235796465  W2        8534            0.0000000000
     25601      8534  TIP3      H1            -42.5173666405      -19.1345322861       -8.0966596465  W2        8534            0.0000000000
     25602      8534  TIP3      H2            -43.3452666405      -18.6759222861       -6.9150896465  W2        8534            0.0000000000
     25603      8535  TIP3      OH2           -45.5651366405      -24.0690722861       -5.9310296465  W2        8535            0.0000000000
     25604      8535  TIP3      H1            -45.2613466405      -24.7549322861       -6.5256196465  W2        8535            0.0000000000
     25605      8535  TIP3      H2            -44.8437366405      -23.9502022861       -5.3132296465  W2        8535            0.0000000000
     25606      8536  TIP3      OH2           -36.9021566405      -32.4675422861       -5.0704096465  W2        8536            0.0000000000
     25607      8536  TIP3      H1            -36.8529366405      -31.8574222861       -4.3344996465  W2        8536            0.0000000000
     25608      8536  TIP3      H2            -36.4766466405      -32.0064522861       -5.7932996465  W2        8536            0.0000000000
     25609      8537  TIP3      OH2           -42.4244366405      -29.6748322861       -5.6035496465  W2        8537            0.0000000000
     25610      8537  TIP3      H1            -42.2818466405      -30.6211322861       -5.5833896465  W2        8537            0.0000000000
     25611      8537  TIP3      H2            -42.5305366405      -29.4678522861       -6.5320596465  W2        8537            0.0000000000
     25612      8538  TIP3      OH2           -49.2696066405      -31.5731922861       -8.3310696465  W2        8538            0.0000000000
     25613      8538  TIP3      H1            -49.2264966405      -30.7133422861       -8.7494396465  W2        8538            0.0000000000
     25614      8538  TIP3      H2            -49.7271966405      -32.1257222861       -8.9647496465  W2        8538            0.0000000000
     25615      8539  TIP3      OH2           -41.5473366405      -31.4426322861       -9.9302396465  W2        8539            0.0000000000
     25616      8539  TIP3      H1            -40.9009066405      -31.7713122861       -9.3054796465  W2        8539            0.0000000000
     25617      8539  TIP3      H2            -41.0373966405      -30.9247322861      -10.5530996465  W2        8539            0.0000000000
     25618      8540  TIP3      OH2           -52.6494566405      -29.1766122861       -7.5689296465  W2        8540            0.0000000000
     25619      8540  TIP3      H1            -51.9957966405      -29.7264422861       -7.1369196465  W2        8540            0.0000000000
     25620      8540  TIP3      H2            -52.6255266405      -29.4507122861       -8.4857296465  W2        8540            0.0000000000
     25621      8541  TIP3      OH2           -47.4930066405      -27.6264822861       -8.3537796465  W2        8541            0.0000000000
     25622      8541  TIP3      H1            -46.8769066405      -28.1529422861       -7.8443796465  W2        8541            0.0000000000
     25623      8541  TIP3      H2            -48.0791266405      -28.2666122861       -8.7574196465  W2        8541            0.0000000000
     25624      8542  TIP3      OH2           -36.5106966405      -30.9896222861       -2.8344296465  W2        8542            0.0000000000
     25625      8542  TIP3      H1            -37.1992366405      -30.3315522861       -2.9297696465  W2        8542            0.0000000000
     25626      8542  TIP3      H2            -36.4952366405      -31.1868322861       -1.8978896465  W2        8542            0.0000000000
     25627      8543  TIP3      OH2           -50.4594166405      -32.6553522861       -4.2569896465  W2        8543            0.0000000000
     25628      8543  TIP3      H1            -50.6782466405      -32.1252922861       -5.0233896465  W2        8543            0.0000000000
     25629      8543  TIP3      H2            -51.1273266405      -32.4288022861       -3.6098496465  W2        8543            0.0000000000
     25630      8544  TIP3      OH2           -43.0904366405      -23.1552422861      -10.7130796465  W2        8544            0.0000000000
     25631      8544  TIP3      H1            -43.3859266405      -23.4780122861      -11.5643896465  W2        8544            0.0000000000
     25632      8544  TIP3      H2            -43.4146566405      -22.2555722861      -10.6718196465  W2        8544            0.0000000000
     25633      8545  TIP3      OH2           -47.8902766405      -24.9797822861       -3.9696196465  W2        8545            0.0000000000
     25634      8545  TIP3      H1            -48.6303666405      -24.3816322861       -3.8660996465  W2        8545            0.0000000000
     25635      8545  TIP3      H2            -47.1763266405      -24.4258222861       -4.2852596465  W2        8545            0.0000000000
     25636      8546  TIP3      OH2           -39.7834966405      -32.1517022861       -7.9496496465  W2        8546            0.0000000000
     25637      8546  TIP3      H1            -39.9986966405      -32.9173622861       -7.4170496465  W2        8546            0.0000000000
     25638      8546  TIP3      H2            -39.1277566405      -31.6792422861       -7.4367996465  W2        8546            0.0000000000
     25639      8547  TIP3      OH2           -50.8656866405      -30.7631722861       -6.3047696465  W2        8547            0.0000000000
     25640      8547  TIP3      H1            -50.2520566405      -30.1304122861       -5.9315296465  W2        8547            0.0000000000
     25641      8547  TIP3      H2            -50.3536166405      -31.2356722861       -6.9610796465  W2        8547            0.0000000000
     25642      8548  TIP3      OH2           -49.4828466405      -23.0154822861       -3.1824696465  W2        8548            0.0000000000
     25643      8548  TIP3      H1            -49.4880866405      -22.1361322861       -3.5605396465  W2        8548            0.0000000000
     25644      8548  TIP3      H2            -50.3364366405      -23.0990722861       -2.7574796465  W2        8548            0.0000000000
     25645      8549  TIP3      OH2           -53.3617566405      -23.3446922861      -12.4005396465  W2        8549            0.0000000000
     25646      8549  TIP3      H1            -53.6336666405      -23.1155922861      -13.2892496465  W2        8549            0.0000000000
     25647      8549  TIP3      H2            -53.3161866405      -22.5068122861      -11.9400096465  W2        8549            0.0000000000
     25648      8550  TIP3      OH2           -39.7367866405      -21.7231022861       -5.6876896465  W2        8550            0.0000000000
     25649      8550  TIP3      H1            -40.6784166405      -21.6647122861       -5.5259996465  W2        8550            0.0000000000
     25650      8550  TIP3      H2            -39.4601766405      -20.8170522861       -5.8247196465  W2        8550            0.0000000000
     25651      8551  TIP3      OH2           -39.4360866405      -33.4365722861       -4.2702996465  W2        8551            0.0000000000
     25652      8551  TIP3      H1            -40.1721666405      -32.8258622861       -4.3081696465  W2        8551            0.0000000000
     25653      8551  TIP3      H2            -38.7526866405      -33.0216722861       -4.7966596465  W2        8551            0.0000000000
     25654      8552  TIP3      OH2           -46.4329466405      -35.3498422861       -6.8044996465  W2        8552            0.0000000000
     25655      8552  TIP3      H1            -46.5505266405      -36.2982422861       -6.8586696465  W2        8552            0.0000000000
     25656      8552  TIP3      H2            -47.2879366405      -35.0172322861       -6.5313896465  W2        8552            0.0000000000
     25657      8553  TIP3      OH2           -41.4846666405      -19.9417522861       -9.0625296465  W2        8553            0.0000000000
     25658      8553  TIP3      H1            -41.0594366405      -20.6489622861       -9.5475696465  W2        8553            0.0000000000
     25659      8553  TIP3      H2            -41.1676666405      -19.1404822861       -9.4793096465  W2        8553            0.0000000000
     25660      8554  TIP3      OH2           -40.3250166405      -22.0409022861      -10.5538696465  W2        8554            0.0000000000
     25661      8554  TIP3      H1            -40.5825366405      -22.7308922861      -11.1652796465  W2        8554            0.0000000000
     25662      8554  TIP3      H2            -40.2539366405      -22.4837822861       -9.7082796465  W2        8554            0.0000000000
     25663      8555  TIP3      OH2           -38.6389966405      -23.4742322861       -2.0765196465  W2        8555            0.0000000000
     25664      8555  TIP3      H1            -38.4993666405      -24.0659822861       -2.8158196465  W2        8555            0.0000000000
     25665      8555  TIP3      H2            -38.4717166405      -22.6016422861       -2.4326396465  W2        8555            0.0000000000
     25666      8556  TIP3      OH2           -44.1664566405      -26.5122822861      -12.3039196465  W2        8556            0.0000000000
     25667      8556  TIP3      H1            -44.8779066405      -25.9773122861      -12.6558696465  W2        8556            0.0000000000
     25668      8556  TIP3      H2            -43.4754966405      -26.4570722861      -12.9640296465  W2        8556            0.0000000000
     25669      8557  TIP3      OH2           -44.1125366405      -28.0548522861      -15.2654196465  W2        8557            0.0000000000
     25670      8557  TIP3      H1            -43.4115466405      -28.0321622861      -14.6140196465  W2        8557            0.0000000000
     25671      8557  TIP3      H2            -43.8102466405      -28.6828822861      -15.9214896465  W2        8557            0.0000000000
     25672      8558  TIP3      OH2           -36.7970666405      -27.1344322861       -4.0104796465  W2        8558            0.0000000000
     25673      8558  TIP3      H1            -37.4496566405      -26.4398722861       -3.9213896465  W2        8558            0.0000000000
     25674      8558  TIP3      H2            -36.3320366405      -26.9243422861       -4.8203196465  W2        8558            0.0000000000
     25675      8559  TIP3      OH2           -40.7606866405      -26.3029522861      -11.3523296465  W2        8559            0.0000000000
     25676      8559  TIP3      H1            -41.4925866405      -26.0745822861      -10.7792696465  W2        8559            0.0000000000
     25677      8559  TIP3      H2            -40.3134666405      -27.0166822861      -10.8975796465  W2        8559            0.0000000000
     25678      8560  TIP3      OH2           -40.8633366405      -28.1286922861       -2.2846296465  W2        8560            0.0000000000
     25679      8560  TIP3      H1            -40.7834266405      -27.3652522861       -1.7127796465  W2        8560            0.0000000000
     25680      8560  TIP3      H2            -41.4645666405      -27.8494522861       -2.9751196465  W2        8560            0.0000000000
     25681      8561  TIP3      OH2           -49.1153166405      -25.6723322861       -9.4698296465  W2        8561            0.0000000000
     25682      8561  TIP3      H1            -49.4457966405      -26.0429922861      -10.2881296465  W2        8561            0.0000000000
     25683      8561  TIP3      H2            -48.5269066405      -26.3429322861       -9.1229996465  W2        8561            0.0000000000
     25684      8562  TIP3      OH2           -47.7485666405      -22.2442722861       -6.7886096465  W2        8562            0.0000000000
     25685      8562  TIP3      H1            -47.8434366405      -22.8229622861       -7.5451496465  W2        8562            0.0000000000
     25686      8562  TIP3      H2            -47.0192066405      -22.6157022861       -6.2923296465  W2        8562            0.0000000000
     25687      8563  TIP3      OH2           -48.7487666405      -26.9037722861       -5.8363296465  W2        8563            0.0000000000
     25688      8563  TIP3      H1            -48.1835166405      -26.7823522861       -6.5992096465  W2        8563            0.0000000000
     25689      8563  TIP3      H2            -48.4298766405      -26.2662722861       -5.1974796465  W2        8563            0.0000000000
     25690      8564  TIP3      OH2           -42.4395466405      -21.4005822861       -5.1022796465  W2        8564            0.0000000000
     25691      8564  TIP3      H1            -42.6798866405      -20.7382722861       -4.4543596465  W2        8564            0.0000000000
     25692      8564  TIP3      H2            -42.6377266405      -22.2350622861       -4.6773196465  W2        8564            0.0000000000
     25693      8565  TIP3      OH2           -47.8686966405      -22.5045022861       -1.1191396465  W2        8565            0.0000000000
     25694      8565  TIP3      H1            -48.1799466405      -21.7221822861       -0.6638196465  W2        8565            0.0000000000
     25695      8565  TIP3      H2            -48.5186766405      -22.6575922861       -1.8049396465  W2        8565            0.0000000000
     25696      8566  TIP3      OH2           -41.8897366405      -27.1406622861      -13.6672096465  W2        8566            0.0000000000
     25697      8566  TIP3      H1            -41.3101866405      -26.9906322861      -12.9203196465  W2        8566            0.0000000000
     25698      8566  TIP3      H2            -41.4757366405      -26.6699222861      -14.3905696465  W2        8566            0.0000000000
     25699      8567  TIP3      OH2           -50.9487066405      -26.3063922861       -1.8905696465  W2        8567            0.0000000000
     25700      8567  TIP3      H1            -50.8783866405      -25.6557122861       -1.1920696465  W2        8567            0.0000000000
     25701      8567  TIP3      H2            -51.8394866405      -26.2036422861       -2.2254796465  W2        8567            0.0000000000
     25702      8568  TIP3      OH2           -44.1632466405      -20.4038122861      -10.2318996465  W2        8568            0.0000000000
     25703      8568  TIP3      H1            -43.6894866405      -20.1081822861       -9.4544796465  W2        8568            0.0000000000
     25704      8568  TIP3      H2            -44.7263166405      -19.6656522861      -10.4649396465  W2        8568            0.0000000000
     25705      8569  TIP3      OH2           -49.6291066405      -20.4330022861       -0.3557596465  W2        8569            0.0000000000
     25706      8569  TIP3      H1            -49.6215766405      -20.5690322861       -1.3032096465  W2        8569            0.0000000000
     25707      8569  TIP3      H2            -50.5450666405      -20.5501922861       -0.1037596465  W2        8569            0.0000000000
     25708      8570  TIP3      OH2           -38.1908966405      -35.3906222861      -13.8542396465  W2        8570            0.0000000000
     25709      8570  TIP3      H1            -39.0908266405      -35.2517222861      -13.5591796465  W2        8570            0.0000000000
     25710      8570  TIP3      H2            -37.9390566405      -34.5591622861      -14.2560696465  W2        8570            0.0000000000
     25711      8571  TIP3      OH2           -50.1250466405      -26.6029022861      -11.8805496465  W2        8571            0.0000000000
     25712      8571  TIP3      H1            -50.4169166405      -25.8347322861      -12.3714196465  W2        8571            0.0000000000
     25713      8571  TIP3      H2            -50.7995266405      -27.2622822861      -12.0434096465  W2        8571            0.0000000000
     25714      8572  TIP3      OH2           -37.0017566405      -21.0243822861      -15.4778496465  W2        8572            0.0000000000
     25715      8572  TIP3      H1            -36.9284066405      -20.0853622861      -15.3073196465  W2        8572            0.0000000000
     25716      8572  TIP3      H2            -36.0962466405      -21.3295222861      -15.5341196465  W2        8572            0.0000000000
     25717      8573  TIP3      OH2           -54.0320366405      -24.2399822861       -3.0655696465  W2        8573            0.0000000000
     25718      8573  TIP3      H1            -54.5331966405      -24.2680422861       -3.8805996465  W2        8573            0.0000000000
     25719      8573  TIP3      H2            -54.0266666405      -25.1456622861       -2.7558396465  W2        8573            0.0000000000
     25720      8574  TIP3      OH2           -54.2817666405      -21.4596022861       -6.1815496465  W2        8574            0.0000000000
     25721      8574  TIP3      H1            -53.3357066405      -21.6039022861       -6.2005996465  W2        8574            0.0000000000
     25722      8574  TIP3      H2            -54.3941366405      -20.6753222861       -5.6444296465  W2        8574            0.0000000000
     25723      8575  TIP3      OH2           -36.0839166405      -20.7936322861       -0.4991796465  W2        8575            0.0000000000
     25724      8575  TIP3      H1            -36.1332366405      -21.7488222861       -0.5364196465  W2        8575            0.0000000000
     25725      8575  TIP3      H2            -36.9106866405      -20.5261022861       -0.0977996465  W2        8575            0.0000000000
     25726      8576  TIP3      OH2           -45.1055166405      -21.2197122861       -1.6230396465  W2        8576            0.0000000000
     25727      8576  TIP3      H1            -45.0180566405      -20.3932522861       -1.1481296465  W2        8576            0.0000000000
     25728      8576  TIP3      H2            -45.9690066405      -21.5493322861       -1.3741096465  W2        8576            0.0000000000
     25729      8577  TIP3      OH2           -44.6909366405      -17.4473422861      -11.8169796465  W2        8577            0.0000000000
     25730      8577  TIP3      H1            -44.7663366405      -17.5686222861      -12.7634596465  W2        8577            0.0000000000
     25731      8577  TIP3      H2            -44.6580666405      -16.4980722861      -11.6985196465  W2        8577            0.0000000000
     25732      8578  TIP3      OH2           -51.0375566405      -18.6586422861      -10.0360796465  W2        8578            0.0000000000
     25733      8578  TIP3      H1            -50.8855166405      -19.0066022861       -9.1574296465  W2        8578            0.0000000000
     25734      8578  TIP3      H2            -51.8885166405      -19.0149122861      -10.2913596465  W2        8578            0.0000000000
     25735      8579  TIP3      OH2           -41.5893366405      -18.2933222861      -14.8147396465  W2        8579            0.0000000000
     25736      8579  TIP3      H1            -41.2144966405      -19.0377122861      -15.2854796465  W2        8579            0.0000000000
     25737      8579  TIP3      H2            -41.5849666405      -18.5632622861      -13.8964096465  W2        8579            0.0000000000
     25738      8580  TIP3      OH2           -41.9205266405      -18.3676122861      -12.0655196465  W2        8580            0.0000000000
     25739      8580  TIP3      H1            -42.8555466405      -18.2674222861      -11.8868196465  W2        8580            0.0000000000
     25740      8580  TIP3      H2            -41.6403366405      -19.0770122861      -11.4871996465  W2        8580            0.0000000000
     25741      8581  TIP3      OH2           -38.9319366405      -29.3003822861       -0.0189596465  W2        8581            0.0000000000
     25742      8581  TIP3      H1            -39.3392566405      -28.8198222861       -0.7396296465  W2        8581            0.0000000000
     25743      8581  TIP3      H2            -38.8913666405      -30.2057822861       -0.3268796465  W2        8581            0.0000000000
     25744      8582  TIP3      OH2           -51.7829866405      -22.9164422861       -2.0222896465  W2        8582            0.0000000000
     25745      8582  TIP3      H1            -51.5668566405      -23.2778822861       -1.1627096465  W2        8582            0.0000000000
     25746      8582  TIP3      H2            -52.6385166405      -23.2910622861       -2.2319396465  W2        8582            0.0000000000
     25747      8583  TIP3      OH2           -49.1641866405      -34.4463922861       -6.0268696465  W2        8583            0.0000000000
     25748      8583  TIP3      H1            -50.0258166405      -34.5335722861       -6.4345796465  W2        8583            0.0000000000
     25749      8583  TIP3      H2            -49.1866166405      -33.5903822861       -5.5991096465  W2        8583            0.0000000000
     25750      8584  TIP3      OH2           -44.5014066405      -34.7243522861       -2.6521696465  W2        8584            0.0000000000
     25751      8584  TIP3      H1            -44.0810966405      -35.1396422861       -1.8991096465  W2        8584            0.0000000000
     25752      8584  TIP3      H2            -45.4344466405      -34.9030222861       -2.5349696465  W2        8584            0.0000000000
     25753      8585  TIP3      OH2           -41.1749166405      -30.9688322861       -1.7987196465  W2        8585            0.0000000000
     25754      8585  TIP3      H1            -41.6889666405      -31.0946122861       -1.0011196465  W2        8585            0.0000000000
     25755      8585  TIP3      H2            -41.3304466405      -30.0565222861       -2.0430996465  W2        8585            0.0000000000
     25756      8586  TIP3      OH2           -40.4124266405      -26.1078322861      -16.0374196465  W2        8586            0.0000000000
     25757      8586  TIP3      H1            -40.3703466405      -26.3304422861      -16.9674196465  W2        8586            0.0000000000
     25758      8586  TIP3      H2            -39.5632166405      -25.7091222861      -15.8474296465  W2        8586            0.0000000000
     25759      8587  TIP3      OH2           -44.8396766405      -32.2320122861      -15.3670896465  W2        8587            0.0000000000
     25760      8587  TIP3      H1            -45.0931966405      -32.2128522861      -14.4442796465  W2        8587            0.0000000000
     25761      8587  TIP3      H2            -45.0964666405      -33.1034722861      -15.6684696465  W2        8587            0.0000000000
     25762      8588  TIP3      OH2           -49.0731766405      -29.4809422861       -4.9318496465  W2        8588            0.0000000000
     25763      8588  TIP3      H1            -49.7149666405      -29.5212122861       -4.2228396465  W2        8588            0.0000000000
     25764      8588  TIP3      H2            -49.0359766405      -28.5544722861       -5.1695496465  W2        8588            0.0000000000
     25765      8589  TIP3      OH2           -49.0762666405      -29.2599322861      -10.0198496465  W2        8589            0.0000000000
     25766      8589  TIP3      H1            -49.9689766405      -29.6003222861      -10.0784696465  W2        8589            0.0000000000
     25767      8589  TIP3      H2            -48.6256066405      -29.6368422861      -10.7755296465  W2        8589            0.0000000000
     25768      8590  TIP3      OH2           -43.5407166405      -28.8439022861      -11.2027696465  W2        8590            0.0000000000
     25769      8590  TIP3      H1            -43.9496866405      -28.0290422861      -11.4942896465  W2        8590            0.0000000000
     25770      8590  TIP3      H2            -42.8200966405      -28.9838922861      -11.8170596465  W2        8590            0.0000000000
     25771      8591  TIP3      OH2           -44.4385566405      -28.6682622861        0.2853003535  W2        8591            0.0000000000
     25772      8591  TIP3      H1            -45.0011766405      -29.3731022861        0.6060803535  W2        8591            0.0000000000
     25773      8591  TIP3      H2            -43.6122166405      -28.7890722861        0.7530603535  W2        8591            0.0000000000
     25774      8592  TIP3      OH2           -42.5359466405      -29.3978622861       -8.3887996465  W2        8592            0.0000000000
     25775      8592  TIP3      H1            -42.7314966405      -28.7921822861       -9.1037396465  W2        8592            0.0000000000
     25776      8592  TIP3      H2            -42.3546866405      -30.2313422861       -8.8231696465  W2        8592            0.0000000000
     25777      8593  TIP3      OH2           -51.3231266405      -29.1605922861       -3.0646496465  W2        8593            0.0000000000
     25778      8593  TIP3      H1            -51.3611866405      -28.7604322861       -2.1959396465  W2        8593            0.0000000000
     25779      8593  TIP3      H2            -51.8140166405      -29.9773522861       -2.9743596465  W2        8593            0.0000000000
     25780      8594  TIP3      OH2           -47.9573866405      -31.7863622861      -16.2660496465  W2        8594            0.0000000000
     25781      8594  TIP3      H1            -48.3883166405      -32.2313522861      -15.5363096465  W2        8594            0.0000000000
     25782      8594  TIP3      H2            -48.6755166405      -31.4147322861      -16.7782996465  W2        8594            0.0000000000
     25783      8595  TIP3      OH2           -54.7150466405      -32.0444122861       -9.2141796465  W2        8595            0.0000000000
     25784      8595  TIP3      H1            -54.0842766405      -32.0732022861       -8.4947896465  W2        8595            0.0000000000
     25785      8595  TIP3      H2            -54.2656166405      -32.4695422861       -9.9445896465  W2        8595            0.0000000000
     25786      8596  TIP3      OH2           -53.4408366405      -31.2982122861      -13.7901396465  W2        8596            0.0000000000
     25787      8596  TIP3      H1            -52.9666666405      -30.7072222861      -14.3750496465  W2        8596            0.0000000000
     25788      8596  TIP3      H2            -54.1581966405      -30.7679222861      -13.4431296465  W2        8596            0.0000000000
     25789      8597  TIP3      OH2           -43.2720266405      -27.7597322861       -3.7175596465  W2        8597            0.0000000000
     25790      8597  TIP3      H1            -42.9485466405      -28.3907622861       -4.3605096465  W2        8597            0.0000000000
     25791      8597  TIP3      H2            -43.7120966405      -28.2945122861       -3.0568196465  W2        8597            0.0000000000
     25792      8598  TIP3      OH2           -46.4947366405      -31.8321822861       -8.9334396465  W2        8598            0.0000000000
     25793      8598  TIP3      H1            -47.4056266405      -31.7755022861       -8.6448396465  W2        8598            0.0000000000
     25794      8598  TIP3      H2            -45.9894466405      -31.8926322861       -8.1227196465  W2        8598            0.0000000000
     25795      8599  TIP3      OH2           -51.6663966405      -30.2035522861      -10.1066796465  W2        8599            0.0000000000
     25796      8599  TIP3      H1            -52.5555966405      -30.1040022861      -10.4467196465  W2        8599            0.0000000000
     25797      8599  TIP3      H2            -51.3699066405      -31.0452522861      -10.4528896465  W2        8599            0.0000000000
     25798      8600  TIP3      OH2           -48.0132166405      -30.2032922861      -12.4502196465  W2        8600            0.0000000000
     25799      8600  TIP3      H1            -47.0816666405      -30.0742922861      -12.2719096465  W2        8600            0.0000000000
     25800      8600  TIP3      H2            -48.2281866405      -29.5338622861      -13.0997496465  W2        8600            0.0000000000
     25801      8601  TIP3      OH2           -42.0895466405      -32.5975522861       -5.6692596465  W2        8601            0.0000000000
     25802      8601  TIP3      H1            -42.7663866405      -32.4662422861       -5.0052896465  W2        8601            0.0000000000
     25803      8601  TIP3      H2            -42.5750566405      -32.7526022861       -6.4794896465  W2        8601            0.0000000000
     25804      8602  TIP3      OH2           -49.3391966405      -29.0090722861      -14.8836096465  W2        8602            0.0000000000
     25805      8602  TIP3      H1            -49.8816866405      -29.3886922861      -15.5748496465  W2        8602            0.0000000000
     25806      8602  TIP3      H2            -48.5057066405      -28.8146022861      -15.3121996465  W2        8602            0.0000000000
     25807      8603  TIP3      OH2           -38.8020366405      -16.9260122861        0.6075003535  W2        8603            0.0000000000
     25808      8603  TIP3      H1            -38.6021666405      -16.5018222861       -0.2269696465  W2        8603            0.0000000000
     25809      8603  TIP3      H2            -38.1466666405      -16.5821922861        1.2145403535  W2        8603            0.0000000000
     25810      8604  TIP3      OH2           -51.2040566405      -24.4518822861        0.2155503535  W2        8604            0.0000000000
     25811      8604  TIP3      H1            -50.4718166405      -24.1972922861        0.7770003535  W2        8604            0.0000000000
     25812      8604  TIP3      H2            -51.9841866405      -24.2473422861        0.7310903535  W2        8604            0.0000000000
     25813      8605  TIP3      OH2           -45.1747666405      -29.0448822861       -7.0464796465  W2        8605            0.0000000000
     25814      8605  TIP3      H1            -44.6104266405      -29.5912222861       -7.5935196465  W2        8605            0.0000000000
     25815      8605  TIP3      H2            -45.3224266405      -29.5666922861       -6.2577196465  W2        8605            0.0000000000
     25816      8606  TIP3      OH2           -50.1727966405      -32.9082722861      -10.6279996465  W2        8606            0.0000000000
     25817      8606  TIP3      H1            -50.4898466405      -33.8107422861      -10.6634596465  W2        8606            0.0000000000
     25818      8606  TIP3      H2            -49.3913866405      -32.9065322861      -11.1808396465  W2        8606            0.0000000000
     25819      8607  TIP3      OH2           -46.5481766405      -30.6562722861       -4.6324396465  W2        8607            0.0000000000
     25820      8607  TIP3      H1            -47.3836466405      -30.2023222861       -4.5221996465  W2        8607            0.0000000000
     25821      8607  TIP3      H2            -46.0241166405      -30.3804222861       -3.8804496465  W2        8607            0.0000000000
     25822      8608  TIP3      OH2           -46.0039166405      -24.4435022861      -12.9477996465  W2        8608            0.0000000000
     25823      8608  TIP3      H1            -46.7488166405      -24.9509722861      -13.2700096465  W2        8608            0.0000000000
     25824      8608  TIP3      H2            -46.1381966405      -24.3947022861      -12.0013196465  W2        8608            0.0000000000
     25825      8609  TIP3      OH2           -38.8540266405      -25.3106822861       -4.1610396465  W2        8609            0.0000000000
     25826      8609  TIP3      H1            -38.2121466405      -24.8540522861       -4.7048196465  W2        8609            0.0000000000
     25827      8609  TIP3      H2            -39.6843366405      -25.1974422861       -4.6236296465  W2        8609            0.0000000000
     25828      8610  TIP3      OH2           -42.1062366405      -31.6295122861      -14.7485396465  W2        8610            0.0000000000
     25829      8610  TIP3      H1            -43.0448166405      -31.5179522861      -14.8996596465  W2        8610            0.0000000000
     25830      8610  TIP3      H2            -41.8090266405      -30.7728222861      -14.4419696465  W2        8610            0.0000000000
     25831      8611  TIP3      OH2           -44.4847066405      -24.2591722861       -1.7108896465  W2        8611            0.0000000000
     25832      8611  TIP3      H1            -44.8300966405      -24.6409322861       -0.9039296465  W2        8611            0.0000000000
     25833      8611  TIP3      H2            -44.6846966405      -23.3258122861       -1.6395996465  W2        8611            0.0000000000
     25834      8612  TIP3      OH2           -41.3878866405      -29.7622422861      -13.0877996465  W2        8612            0.0000000000
     25835      8612  TIP3      H1            -40.4959866405      -29.8997422861      -12.7686796465  W2        8612            0.0000000000
     25836      8612  TIP3      H2            -41.3315266405      -28.9716322861      -13.6244496465  W2        8612            0.0000000000
     25837      8613  TIP3      OH2           -50.8790866405      -25.1485022861       -7.1780096465  W2        8613            0.0000000000
     25838      8613  TIP3      H1            -50.1343666405      -25.1509322861       -7.7793596465  W2        8613            0.0000000000
     25839      8613  TIP3      H2            -50.8014266405      -25.9721222861       -6.6964996465  W2        8613            0.0000000000
     25840      8614  TIP3      OH2           -43.8785066405      -22.9850722861      -13.9223396465  W2        8614            0.0000000000
     25841      8614  TIP3      H1            -44.1736666405      -22.1582822861      -13.5408596465  W2        8614            0.0000000000
     25842      8614  TIP3      H2            -44.5815066405      -23.6043822861      -13.7261996465  W2        8614            0.0000000000
     25843      8615  TIP3      OH2           -53.8711166405      -26.6878122861       -1.8631596465  W2        8615            0.0000000000
     25844      8615  TIP3      H1            -53.6482566405      -27.1058522861       -1.0314096465  W2        8615            0.0000000000
     25845      8615  TIP3      H2            -54.4731066405      -27.3003122861       -2.2858796465  W2        8615            0.0000000000
     25846      8616  TIP3      OH2           -46.8546266405      -27.1708222861        0.3498103535  W2        8616            0.0000000000
     25847      8616  TIP3      H1            -47.1505466405      -27.3365222861       -0.5452796465  W2        8616            0.0000000000
     25848      8616  TIP3      H2            -45.9231066405      -27.3907922861        0.3392003535  W2        8616            0.0000000000
     25849      8617  TIP3      OH2           -42.2343466405      -21.7976222861       -1.7603896465  W2        8617            0.0000000000
     25850      8617  TIP3      H1            -43.1349166405      -21.6143622861       -2.0279996465  W2        8617            0.0000000000
     25851      8617  TIP3      H2            -42.2002366405      -21.5386922861       -0.8395096465  W2        8617            0.0000000000
     25852      8618  TIP3      OH2           -36.5030166405      -29.5528322861      -13.3931296465  W2        8618            0.0000000000
     25853      8618  TIP3      H1            -37.0573866405      -29.9490322861      -14.0653796465  W2        8618            0.0000000000
     25854      8618  TIP3      H2            -36.4026566405      -28.6423122861      -13.6707996465  W2        8618            0.0000000000
     25855      8619  TIP3      OH2           -36.5398166405      -23.7526622861       -0.5559796465  W2        8619            0.0000000000
     25856      8619  TIP3      H1            -37.3909666405      -23.5142822861       -0.9233396465  W2        8619            0.0000000000
     25857      8619  TIP3      H2            -35.9494766405      -23.7693422861       -1.3092696465  W2        8619            0.0000000000
     25858      8620  TIP3      OH2           -38.2078466405      -20.7667922861      -12.9279196465  W2        8620            0.0000000000
     25859      8620  TIP3      H1            -38.5807366405      -21.5924122861      -12.6188596465  W2        8620            0.0000000000
     25860      8620  TIP3      H2            -37.9304966405      -20.9498522861      -13.8255796465  W2        8620            0.0000000000
     25861      8621  TIP3      OH2           -41.0474566405      -25.9588422861       -5.9067296465  W2        8621            0.0000000000
     25862      8621  TIP3      H1            -41.9757666405      -26.1906522861       -5.9337996465  W2        8621            0.0000000000
     25863      8621  TIP3      H2            -40.5963466405      -26.7358622861       -6.2368496465  W2        8621            0.0000000000
     25864      8622  TIP3      OH2           -48.5041466405      -21.6306822861       -9.7738596465  W2        8622            0.0000000000
     25865      8622  TIP3      H1            -47.9769266405      -20.8572422861       -9.9739796465  W2        8622            0.0000000000
     25866      8622  TIP3      H2            -49.3842966405      -21.4057622861      -10.0754596465  W2        8622            0.0000000000
     25867      8623  TIP3      OH2           -52.7493766405      -26.7682722861      -15.1866196465  W2        8623            0.0000000000
     25868      8623  TIP3      H1            -52.1333866405      -26.1415522861      -14.8071396465  W2        8623            0.0000000000
     25869      8623  TIP3      H2            -53.6111166405      -26.4522922861      -14.9149696465  W2        8623            0.0000000000
     25870      8624  TIP3      OH2           -47.0769166405      -23.9676922861      -10.1974296465  W2        8624            0.0000000000
     25871      8624  TIP3      H1            -47.3179166405      -23.0422522861      -10.1558996465  W2        8624            0.0000000000
     25872      8624  TIP3      H2            -47.8175566405      -24.4265622861       -9.8010396465  W2        8624            0.0000000000
     25873      8625  TIP3      OH2           -46.5622566405      -19.8183322861       -3.8823196465  W2        8625            0.0000000000
     25874      8625  TIP3      H1            -46.1997866405      -18.9637722861       -4.1158796465  W2        8625            0.0000000000
     25875      8625  TIP3      H2            -46.0307366405      -20.1101722861       -3.1416896465  W2        8625            0.0000000000
     25876      8626  TIP3      OH2           -48.3938366405      -18.9459322861      -10.6522096465  W2        8626            0.0000000000
     25877      8626  TIP3      H1            -49.3437866405      -18.8401922861      -10.6008796465  W2        8626            0.0000000000
     25878      8626  TIP3      H2            -48.0420266405      -18.1251922861      -10.3074596465  W2        8626            0.0000000000
     25879      8627  TIP3      OH2           -43.0181766405      -23.7192622861       -4.1817596465  W2        8627            0.0000000000
     25880      8627  TIP3      H1            -43.4440466405      -23.9470922861       -3.3553596465  W2        8627            0.0000000000
     25881      8627  TIP3      H2            -42.4375966405      -24.4580822861       -4.3642296465  W2        8627            0.0000000000
     25882      8628  TIP3      OH2           -40.8152866405      -22.7902122861      -15.1078596465  W2        8628            0.0000000000
     25883      8628  TIP3      H1            -40.4619766405      -23.1702322861      -14.3035096465  W2        8628            0.0000000000
     25884      8628  TIP3      H2            -41.7639366405      -22.8837322861      -15.0209296465  W2        8628            0.0000000000
     25885      8629  TIP3      OH2           -40.3597566405      -19.1673122861       -1.7122796465  W2        8629            0.0000000000
     25886      8629  TIP3      H1            -40.9614366405      -19.7230222861       -2.2076496465  W2        8629            0.0000000000
     25887      8629  TIP3      H2            -40.0783866405      -18.5003322861       -2.3385396465  W2        8629            0.0000000000
     25888      8630  TIP3      OH2           -36.3118466405      -18.3109622861      -14.9068396465  W2        8630            0.0000000000
     25889      8630  TIP3      H1            -35.5680566405      -17.7249122861      -15.0466796465  W2        8630            0.0000000000
     25890      8630  TIP3      H2            -37.0060366405      -17.7423822861      -14.5735996465  W2        8630            0.0000000000
     25891      8631  TIP3      OH2           -52.2371666405      -31.9345422861       -2.3050196465  W2        8631            0.0000000000
     25892      8631  TIP3      H1            -53.1299366405      -31.5960022861       -2.3726196465  W2        8631            0.0000000000
     25893      8631  TIP3      H2            -52.3358866405      -32.7899322861       -1.8869396465  W2        8631            0.0000000000
     25894      8632  TIP3      OH2           -39.9493566405      -24.1180122861      -12.8810696465  W2        8632            0.0000000000
     25895      8632  TIP3      H1            -40.2265966405      -24.8460822861      -12.3249596465  W2        8632            0.0000000000
     25896      8632  TIP3      H2            -39.0220566405      -23.9988122861      -12.6758096465  W2        8632            0.0000000000
     25897      8633  TIP3      OH2           -52.5859666405      -20.1301022861       -3.8700796465  W2        8633            0.0000000000
     25898      8633  TIP3      H1            -52.3689366405      -21.0618622861       -3.9011096465  W2        8633            0.0000000000
     25899      8633  TIP3      H2            -52.3396166405      -19.8556022861       -2.9867996465  W2        8633            0.0000000000
     25900      8634  TIP3      OH2           -46.7245066405      -21.6786022861      -16.6608596465  W2        8634            0.0000000000
     25901      8634  TIP3      H1            -46.4855266405      -22.4267922861      -17.2079696465  W2        8634            0.0000000000
     25902      8634  TIP3      H2            -46.9933766405      -22.0664322861      -15.8280796465  W2        8634            0.0000000000
     25903      8635  TIP3      OH2           -47.7874466405      -22.1082222861      -14.2045996465  W2        8635            0.0000000000
     25904      8635  TIP3      H1            -47.6406466405      -22.6282422861      -13.4145096465  W2        8635            0.0000000000
     25905      8635  TIP3      H2            -47.7902766405      -21.2014622861      -13.8980096465  W2        8635            0.0000000000
     25906      8636  TIP3      OH2           -51.3343366405      -24.8558922861      -13.6940596465  W2        8636            0.0000000000
     25907      8636  TIP3      H1            -52.0204066405      -24.5036422861      -13.1270896465  W2        8636            0.0000000000
     25908      8636  TIP3      H2            -50.8115466405      -24.0929322861      -13.9406296465  W2        8636            0.0000000000
     25909      8637  TIP3      OH2           -43.5028266405      -32.1935122861       -3.4151596465  W2        8637            0.0000000000
     25910      8637  TIP3      H1            -42.8040366405      -32.1196422861       -2.7651896465  W2        8637            0.0000000000
     25911      8637  TIP3      H2            -43.8836866405      -33.0580122861       -3.2608696465  W2        8637            0.0000000000
     25912      8638  TIP3      OH2           -42.7183366405      -32.5413422861      -12.3179296465  W2        8638            0.0000000000
     25913      8638  TIP3      H1            -42.4985066405      -32.0698022861      -13.1213896465  W2        8638            0.0000000000
     25914      8638  TIP3      H2            -42.1599366405      -32.1470822861      -11.6478696465  W2        8638            0.0000000000
     25915      8639  TIP3      OH2           -45.0497266405      -20.4108622861      -13.4551796465  W2        8639            0.0000000000
     25916      8639  TIP3      H1            -45.8661166405      -19.9138922861      -13.4027496465  W2        8639            0.0000000000
     25917      8639  TIP3      H2            -44.5200966405      -19.9355122861      -14.0952996465  W2        8639            0.0000000000
     25918      8640  TIP3      OH2           -45.5183466405      -30.8134622861      -11.4830896465  W2        8640            0.0000000000
     25919      8640  TIP3      H1            -44.7060866405      -30.3091422861      -11.4369196465  W2        8640            0.0000000000
     25920      8640  TIP3      H2            -45.7630466405      -30.9584922861      -10.5691296465  W2        8640            0.0000000000
     25921      8641  TIP3      OH2           -44.9827066405      -29.8271922861       -2.2984296465  W2        8641            0.0000000000
     25922      8641  TIP3      H1            -44.8636766405      -29.2536522861       -1.5413896465  W2        8641            0.0000000000
     25923      8641  TIP3      H2            -44.3272466405      -30.5152522861       -2.1836496465  W2        8641            0.0000000000
     25924      8642  TIP3      OH2           -44.6346766405      -33.7321622861      -10.5449796465  W2        8642            0.0000000000
     25925      8642  TIP3      H1            -44.9813266405      -33.1151022861       -9.9005496465  W2        8642            0.0000000000
     25926      8642  TIP3      H2            -43.9759866405      -33.2315922861      -11.0264296465  W2        8642            0.0000000000
     25927      8643  TIP3      OH2           -47.7114166405      -19.3671422861      -13.4734896465  W2        8643            0.0000000000
     25928      8643  TIP3      H1            -47.5505466405      -18.5673922861      -13.9742296465  W2        8643            0.0000000000
     25929      8643  TIP3      H2            -47.9086366405      -19.0605422861      -12.5884296465  W2        8643            0.0000000000
     25930      8644  TIP3      OH2           -48.9769766405      -32.6692222861      -13.8577296465  W2        8644            0.0000000000
     25931      8644  TIP3      H1            -49.0604966405      -31.7809122861      -13.5110896465  W2        8644            0.0000000000
     25932      8644  TIP3      H2            -48.0869466405      -32.9345522861      -13.6260496465  W2        8644            0.0000000000
     25933      8645  TIP3      OH2           -38.7781266405      -31.9201622861       -1.4634596465  W2        8645            0.0000000000
     25934      8645  TIP3      H1            -39.6945466405      -31.6579922861       -1.5510896465  W2        8645            0.0000000000
     25935      8645  TIP3      H2            -38.4426266405      -31.9232622861       -2.3599296465  W2        8645            0.0000000000
     25936      8646  TIP3      OH2           -40.1760266405      -28.1700622861       -7.3677296465  W2        8646            0.0000000000
     25937      8646  TIP3      H1            -40.9735866405      -28.5850422861       -7.6962296465  W2        8646            0.0000000000
     25938      8646  TIP3      H2            -39.7309166405      -28.8606922861       -6.8766796465  W2        8646            0.0000000000
     25939      8647  TIP3      OH2           -50.7184466405      -22.2420022861      -14.7972796465  W2        8647            0.0000000000
     25940      8647  TIP3      H1            -50.1262966405      -21.5425222861      -14.5210396465  W2        8647            0.0000000000
     25941      8647  TIP3      H2            -50.2591466405      -22.6750522861      -15.5168196465  W2        8647            0.0000000000
     25942      8648  TIP3      OH2           -52.4025266405      -29.5777022861      -15.6813396465  W2        8648            0.0000000000
     25943      8648  TIP3      H1            -52.4472666405      -28.6383922861      -15.5026396465  W2        8648            0.0000000000
     25944      8648  TIP3      H2            -53.2902066405      -29.8132122861      -15.9511296465  W2        8648            0.0000000000
     25945      8649  TIP3      OH2           -39.0895666405      -18.9138122861       -5.7453796465  W2        8649            0.0000000000
     25946      8649  TIP3      H1            -39.2451366405      -18.2353722861       -6.4024496465  W2        8649            0.0000000000
     25947      8649  TIP3      H2            -38.1569266405      -18.8418822861       -5.5423196465  W2        8649            0.0000000000
     25948      8650  TIP3      OH2           -51.5943266405      -34.7960422861       -7.0082396465  W2        8650            0.0000000000
     25949      8650  TIP3      H1            -51.8233466405      -34.7367922861       -7.9357396465  W2        8650            0.0000000000
     25950      8650  TIP3      H2            -52.0369866405      -35.5874922861       -6.7018296465  W2        8650            0.0000000000
     25951      8651  TIP3      OH2           -52.6639966405      -20.8553322861      -10.8476596465  W2        8651            0.0000000000
     25952      8651  TIP3      H1            -53.4961366405      -20.3830622861      -10.8205196465  W2        8651            0.0000000000
     25953      8651  TIP3      H2            -52.1181666405      -20.3455722861      -11.4463496465  W2        8651            0.0000000000
     25954      8652  TIP3      OH2           -53.3756266405      -18.2429622861        0.4821403535  W2        8652            0.0000000000
     25955      8652  TIP3      H1            -52.8354066405      -18.4595622861        1.2420603535  W2        8652            0.0000000000
     25956      8652  TIP3      H2            -53.8568266405      -19.0483622861        0.2923903535  W2        8652            0.0000000000
     25957      8653  TIP3      OH2           -48.7782866405      -19.3235222861        2.1025603535  W2        8653            0.0000000000
     25958      8653  TIP3      H1            -48.0105666405      -19.7824422861        2.4434803535  W2        8653            0.0000000000
     25959      8653  TIP3      H2            -48.7996666405      -19.5495422861        1.1726803535  W2        8653            0.0000000000
     25960      8654  TIP3      OH2           -44.6863266405      -19.8154622861      -16.5222596465  W2        8654            0.0000000000
     25961      8654  TIP3      H1            -45.3302266405      -20.4466022861      -16.2008896465  W2        8654            0.0000000000
     25962      8654  TIP3      H2            -43.9244966405      -20.3466622861      -16.7539096465  W2        8654            0.0000000000
     25963      8655  TIP3      OH2           -42.2014166405      -20.9434122861        0.8317103535  W2        8655            0.0000000000
     25964      8655  TIP3      H1            -42.5524666405      -21.8001122861        1.0747503535  W2        8655            0.0000000000
     25965      8655  TIP3      H2            -41.4750966405      -20.8007422861        1.4386103535  W2        8655            0.0000000000
     25966      8656  TIP3      OH2           -40.0820366405      -19.9984722861      -16.2884596465  W2        8656            0.0000000000
     25967      8656  TIP3      H1            -39.7989966405      -20.7929522861      -15.8357696465  W2        8656            0.0000000000
     25968      8656  TIP3      H2            -39.3422466405      -19.7653722861      -16.8493496465  W2        8656            0.0000000000
     25969      8657  TIP3      OH2           -53.4686766405      -24.4325522861        1.4365703535  W2        8657            0.0000000000
     25970      8657  TIP3      H1            -53.3246266405      -25.3344822861        1.1502403535  W2        8657            0.0000000000
     25971      8657  TIP3      H2            -54.2409366405      -24.1463422861        0.9488003535  W2        8657            0.0000000000
     25972      8658  TIP3      OH2           -49.1273066405      -24.0889822861      -16.4309696465  W2        8658            0.0000000000
     25973      8658  TIP3      H1            -49.0628966405      -24.8830222861      -15.9003296465  W2        8658            0.0000000000
     25974      8658  TIP3      H2            -48.4743866405      -24.2077022861      -17.1207696465  W2        8658            0.0000000000
     25975      8659  TIP3      OH2           -46.8130666405      -24.4627422861        0.8692103535  W2        8659            0.0000000000
     25976      8659  TIP3      H1            -47.1416866405      -24.1919322861        0.0119503535  W2        8659            0.0000000000
     25977      8659  TIP3      H2            -46.6612466405      -25.4037622861        0.7817103535  W2        8659            0.0000000000
     25978      8660  TIP3      OH2           -43.7749666405      -23.0418122861      -16.6951696465  W2        8660            0.0000000000
     25979      8660  TIP3      H1            -44.0435566405      -22.8616022861      -15.7942796465  W2        8660            0.0000000000
     25980      8660  TIP3      H2            -43.9814066405      -23.9671922861      -16.8265896465  W2        8660            0.0000000000
     25981      8661  TIP3      OH2           -41.0785466405      -24.5470122861       -1.7475596465  W2        8661            0.0000000000
     25982      8661  TIP3      H1            -40.3330666405      -23.9586422861       -1.8671596465  W2        8661            0.0000000000
     25983      8661  TIP3      H2            -41.8358666405      -23.9650422861       -1.6842496465  W2        8661            0.0000000000
     25984      8662  TIP3      OH2           -52.6360266405      -27.2322222861        0.8565003535  W2        8662            0.0000000000
     25985      8662  TIP3      H1            -52.2279066405      -28.0895622861        0.7355603535  W2        8662            0.0000000000
     25986      8662  TIP3      H2            -52.8962666405      -27.2180922861        1.7775303535  W2        8662            0.0000000000
     25987      8663  TIP3      OH2           -47.9779266405      -26.1163622861      -14.1251696465  W2        8663            0.0000000000
     25988      8663  TIP3      H1            -48.4377266405      -26.6005322861      -13.4393196465  W2        8663            0.0000000000
     25989      8663  TIP3      H2            -47.7230566405      -26.7848222861      -14.7611196465  W2        8663            0.0000000000
     25990      8664  TIP3      OH2           -48.6889966405      -28.2236522861       -1.7692096465  W2        8664            0.0000000000
     25991      8664  TIP3      H1            -49.3073866405      -27.5489922861       -1.4887396465  W2        8664            0.0000000000
     25992      8664  TIP3      H2            -48.3448766405      -27.9022622861       -2.6025896465  W2        8664            0.0000000000
     25993      8665  TIP3      OH2           -46.9068866405      -27.8731822861      -15.8628496465  W2        8665            0.0000000000
     25994      8665  TIP3      H1            -47.0873866405      -28.0280622861      -16.7900196465  W2        8665            0.0000000000
     25995      8665  TIP3      H2            -45.9568366405      -27.7653122861      -15.8180596465  W2        8665            0.0000000000
     25996      8666  TIP3      OH2           -43.6691766405      -25.7521222861        1.5082703535  W2        8666            0.0000000000
     25997      8666  TIP3      H1            -42.7160566405      -25.6682122861        1.4808703535  W2        8666            0.0000000000
     25998      8666  TIP3      H2            -43.8297166405      -26.4639422861        2.1277603535  W2        8666            0.0000000000
     25999      8667  TIP3      OH2           -37.5170566405      -25.5187622861      -16.4170396465  W2        8667            0.0000000000
     26000      8667  TIP3      H1            -37.7905766405      -25.9432122861      -17.2302096465  W2        8667            0.0000000000
     26001      8667  TIP3      H2            -37.4776466405      -24.5873122861      -16.6339996465  W2        8667            0.0000000000
     26002      8668  TIP3      OH2           -48.3496266405      -30.8685722861       -0.6868996465  W2        8668            0.0000000000
     26003      8668  TIP3      H1            -48.1995366405      -31.5974422861       -1.2889296465  W2        8668            0.0000000000
     26004      8668  TIP3      H2            -48.3473866405      -30.0914022861       -1.2456796465  W2        8668            0.0000000000
     26005      8669  TIP3      OH2           -47.9370566405      -32.4989922861       -3.1941596465  W2        8669            0.0000000000
     26006      8669  TIP3      H1            -47.4013066405      -32.0473222861       -3.8462296465  W2        8669            0.0000000000
     26007      8669  TIP3      H2            -48.7890966405      -32.6070122861       -3.6167496465  W2        8669            0.0000000000
     26008      8670  TIP3      OH2           -46.3552166405      -27.0593722861       -2.9546396465  W2        8670            0.0000000000
     26009      8670  TIP3      H1            -45.6047366405      -27.2156222861       -3.5278596465  W2        8670            0.0000000000
     26010      8670  TIP3      H2            -46.6943866405      -26.2077122861       -3.2300896465  W2        8670            0.0000000000
     26011      8671  TIP3      OH2           -41.9395966405      -29.2441922861        2.0738903535  W2        8671            0.0000000000
     26012      8671  TIP3      H1            -41.7474666405      -30.1752522861        1.9623403535  W2        8671            0.0000000000
     26013      8671  TIP3      H2            -41.0819666405      -28.8192422861        2.0634303535  W2        8671            0.0000000000
     26014      8672  TIP3      OH2           -40.6228766405      -26.4556722861        0.1511603535  W2        8672            0.0000000000
     26015      8672  TIP3      H1            -40.9043766405      -25.7462122861       -0.4264596465  W2        8672            0.0000000000
     26016      8672  TIP3      H2            -39.6804466405      -26.5283722861        0.0002803535  W2        8672            0.0000000000
     26017      8673  TIP3      OH2           -49.8709966405      -29.6702222861        1.2246603535  W2        8673            0.0000000000
     26018      8673  TIP3      H1            -50.6380966405      -30.2027422861        1.0144203535  W2        8673            0.0000000000
     26019      8673  TIP3      H2            -49.1920966405      -29.9801822861        0.6252903535  W2        8673            0.0000000000
     26020      8674  TIP3      OH2           -47.1315066405      -35.0424222861       -2.7627996465  W2        8674            0.0000000000
     26021      8674  TIP3      H1            -47.2295466405      -34.0961022861       -2.8681796465  W2        8674            0.0000000000
     26022      8674  TIP3      H2            -47.8738866405      -35.4150422861       -3.2384496465  W2        8674            0.0000000000
     26023      8675  TIP3      OH2           -45.8674566405      -30.7208822861        0.8010403535  W2        8675            0.0000000000
     26024      8675  TIP3      H1            -46.1029166405      -30.9402122861        1.7025303535  W2        8675            0.0000000000
     26025      8675  TIP3      H2            -46.6507666405      -30.9277622861        0.2912903535  W2        8675            0.0000000000
     26026      8676  TIP3      OH2           -43.1517966405      -31.5935322861       -0.1236096465  W2        8676            0.0000000000
     26027      8676  TIP3      H1            -44.0992566405      -31.5615622861        0.0087203535  W2        8676            0.0000000000
     26028      8676  TIP3      H2            -42.8391266405      -32.2188222861        0.5302103535  W2        8676            0.0000000000
     26029      8677  TIP3      OH2           -41.5176466405      -32.9594222861        1.8815803535  W2        8677            0.0000000000
     26030      8677  TIP3      H1            -41.6144666405      -33.9116922861        1.8757703535  W2        8677            0.0000000000
     26031      8677  TIP3      H2            -41.8393366405      -32.6907422861        2.7421303535  W2        8677            0.0000000000
     26032      8678  TIP3      OH2           -51.6907166405      -31.7498422861        0.9291303535  W2        8678            0.0000000000
     26033      8678  TIP3      H1            -51.4789766405      -32.4562322861        0.3188803535  W2        8678            0.0000000000
     26034      8678  TIP3      H2            -51.8019666405      -32.1872422861        1.7732503535  W2        8678            0.0000000000
     26035      8679  TIP3      OH2           -46.9096966405      -35.7486822861       -0.0915196465  W2        8679            0.0000000000
     26036      8679  TIP3      H1            -46.1978566405      -36.3884622861       -0.1056096465  W2        8679            0.0000000000
     26037      8679  TIP3      H2            -47.0106566405      -35.4818522861       -1.0052096465  W2        8679            0.0000000000
     26038      8680  TIP3      OH2           -46.5559466405      -34.0658422861        1.9621103535  W2        8680            0.0000000000
     26039      8680  TIP3      H1            -46.6877266405      -34.5414622861        1.1419603535  W2        8680            0.0000000000
     26040      8680  TIP3      H2            -47.1552066405      -33.3214822861        1.9068203535  W2        8680            0.0000000000
     26041      8681  TIP3      OH2           -47.0097166405      -17.1828122861      -14.8614896465  W2        8681            0.0000000000
     26042      8681  TIP3      H1            -46.0766466405      -17.0249422861      -14.7176496465  W2        8681            0.0000000000
     26043      8681  TIP3      H2            -47.2738366405      -16.5075122861      -15.4863396465  W2        8681            0.0000000000
     26044      8682  TIP3      OH2           -53.4412266405      -22.5464322861      -15.3786796465  W2        8682            0.0000000000
     26045      8682  TIP3      H1            -52.5273066405      -22.4675422861      -15.1052896465  W2        8682            0.0000000000
     26046      8682  TIP3      H2            -53.4339166405      -23.2334722861      -16.0451196465  W2        8682            0.0000000000
     26047      8683  TIP3      OH2           -54.7921666405      -17.1535822861      -10.3012896465  W2        8683            0.0000000000
     26048      8683  TIP3      H1            -55.4394566405      -17.6154122861      -10.8341696465  W2        8683            0.0000000000
     26049      8683  TIP3      H2            -54.4377066405      -17.8252522861       -9.7186696465  W2        8683            0.0000000000
     26050      8684  TIP3      OH2           -53.9222466405      -19.0728822861       -8.4966696465  W2        8684            0.0000000000
     26051      8684  TIP3      H1            -54.2565666405      -19.9531522861       -8.3246496465  W2        8684            0.0000000000
     26052      8684  TIP3      H2            -53.7000066405      -18.7273822861       -7.6321096465  W2        8684            0.0000000000
     26053      8685  TIP3      OH2           -36.3737666405      -18.2632422861       -5.5161896465  W2        8685            0.0000000000
     26054      8685  TIP3      H1            -36.3950966405      -18.0784022861       -4.5772496465  W2        8685            0.0000000000
     26055      8685  TIP3      H2            -35.6831466405      -17.6948422861       -5.8570496465  W2        8685            0.0000000000
     26056      8686  TIP3      OH2           -36.8104766405      -18.6961322861       -2.5942796465  W2        8686            0.0000000000
     26057      8686  TIP3      H1            -37.2976066405      -19.4317222861       -2.9655396465  W2        8686            0.0000000000
     26058      8686  TIP3      H2            -36.2612066405      -19.0897422861       -1.9163396465  W2        8686            0.0000000000
     26059      8687  TIP3      OH2           -38.3597466405      -22.9063222861        2.0437503535  W2        8687            0.0000000000
     26060      8687  TIP3      H1            -39.2256366405      -23.0113522861        2.4379803535  W2        8687            0.0000000000
     26061      8687  TIP3      H2            -37.9831566405      -22.1479922861        2.4902203535  W2        8687            0.0000000000
     26062      8688  TIP3      OH2           -37.0587766405      -24.6499522861      -12.4419996465  W2        8688            0.0000000000
     26063      8688  TIP3      H1            -36.2086366405      -24.2288622861      -12.3148396465  W2        8688            0.0000000000
     26064      8688  TIP3      H2            -37.0532666405      -25.3899422861      -11.8348596465  W2        8688            0.0000000000
     26065      8689  TIP3      OH2           -36.6642166405      -26.5962122861      -10.6184296465  W2        8689            0.0000000000
     26066      8689  TIP3      H1            -37.3907566405      -27.0759522861      -10.2206696465  W2        8689            0.0000000000
     26067      8689  TIP3      H2            -36.0828866405      -26.3907422861       -9.8862696465  W2        8689            0.0000000000
     26068      8690  TIP3      OH2           -36.9050966405      -23.8114622861       -5.6706696465  W2        8690            0.0000000000
     26069      8690  TIP3      H1            -36.0716766405      -24.1894622861       -5.9513096465  W2        8690            0.0000000000
     26070      8690  TIP3      H2            -36.7930666405      -22.8683422861       -5.7897596465  W2        8690            0.0000000000
     26071      8691  TIP3      OH2           -38.4188666405      -20.9337122861       -3.3638296465  W2        8691            0.0000000000
     26072      8691  TIP3      H1            -39.0663366405      -20.6085622861       -2.7383096465  W2        8691            0.0000000000
     26073      8691  TIP3      H2            -38.9364666405      -21.3739422861       -4.0379996465  W2        8691            0.0000000000
     26074      8692  TIP3      OH2           -36.3959066405      -26.6953622861      -14.2272996465  W2        8692            0.0000000000
     26075      8692  TIP3      H1            -36.9177966405      -26.3389522861      -14.9462096465  W2        8692            0.0000000000
     26076      8692  TIP3      H2            -36.4289866405      -26.0205822861      -13.5492096465  W2        8692            0.0000000000
     26077      8693  TIP3      OH2           -38.0470066405      -29.4558022861      -15.6765896465  W2        8693            0.0000000000
     26078      8693  TIP3      H1            -37.9505666405      -28.7891022861      -16.3566196465  W2        8693            0.0000000000
     26079      8693  TIP3      H2            -38.1870466405      -30.2711722861      -16.1580396465  W2        8693            0.0000000000
     26080      8694  TIP3      OH2           -38.8775366405      -28.0755622861      -10.0555596465  W2        8694            0.0000000000
     26081      8694  TIP3      H1            -39.0276566405      -29.0207022861      -10.0757796465  W2        8694            0.0000000000
     26082      8694  TIP3      H2            -39.2310866405      -27.7944222861       -9.2116496465  W2        8694            0.0000000000
     26083      8695  TIP3      OH2           -53.8422966405      -25.9973422861       -6.0451796465  W2        8695            0.0000000000
     26084      8695  TIP3      H1            -53.6580066405      -26.0791722861       -6.9808896465  W2        8695            0.0000000000
     26085      8695  TIP3      H2            -52.9930066405      -26.1216422861       -5.6215396465  W2        8695            0.0000000000
     26086      8696  TIP3      OH2           -38.0212466405      -26.1052322861       -0.4167296465  W2        8696            0.0000000000
     26087      8696  TIP3      H1            -37.4385166405      -26.8400022861       -0.2250096465  W2        8696            0.0000000000
     26088      8696  TIP3      H2            -37.4573166405      -25.3332022861       -0.3701496465  W2        8696            0.0000000000
     26089      8697  TIP3      OH2           -36.5245366405      -28.2026522861        0.2678103535  W2        8697            0.0000000000
     26090      8697  TIP3      H1            -37.3878666405      -28.5814422861        0.1022803535  W2        8697            0.0000000000
     26091      8697  TIP3      H2            -35.9201666405      -28.9411722861        0.1933903535  W2        8697            0.0000000000
     26092      8698  TIP3      OH2           -38.7996266405      -32.0478222861      -16.5590396465  W2        8698            0.0000000000
     26093      8698  TIP3      H1            -38.1890466405      -32.4191422861      -15.9222196465  W2        8698            0.0000000000
     26094      8698  TIP3      H2            -39.6364766405      -32.4691322861      -16.3630396465  W2        8698            0.0000000000
     26095      8699  TIP3      OH2           -39.1670566405      -30.4929822861      -11.5930496465  W2        8699            0.0000000000
     26096      8699  TIP3      H1            -38.8873466405      -31.3999422861      -11.4688796465  W2        8699            0.0000000000
     26097      8699  TIP3      H2            -38.4078866405      -30.0588322861      -11.9821296465  W2        8699            0.0000000000
     26098      8700  TIP3      OH2           -38.5552266405      -29.9112422861       -6.1571596465  W2        8700            0.0000000000
     26099      8700  TIP3      H1            -37.6224266405      -29.6992522861       -6.1915596465  W2        8700            0.0000000000
     26100      8700  TIP3      H2            -38.7904766405      -29.8100322861       -5.2348596465  W2        8700            0.0000000000
     26101      8701  TIP3      OH2           -38.5260366405      -29.1747122861       -3.3812196465  W2        8701            0.0000000000
     26102      8701  TIP3      H1            -39.3689066405      -28.9066722861       -3.0152396465  W2        8701            0.0000000000
     26103      8701  TIP3      H2            -38.0836066405      -28.3525222861       -3.5921096465  W2        8701            0.0000000000
     26104      8702  TIP3      OH2           -54.2448166405      -30.7268422861        0.0957003535  W2        8702            0.0000000000
     26105      8702  TIP3      H1            -53.3253266405      -30.8490122861        0.3320103535  W2        8702            0.0000000000
     26106      8702  TIP3      H2            -54.6943666405      -31.4768722861        0.4850503535  W2        8702            0.0000000000
     26107      8703  TIP3      OH2           -36.2428766405      -35.1946922861        1.9722803535  W2        8703            0.0000000000
     26108      8703  TIP3      H1            -35.8931766405      -35.8483422861        1.3667503535  W2        8703            0.0000000000
     26109      8703  TIP3      H2            -36.0959266405      -34.3572822861        1.5325403535  W2        8703            0.0000000000
     26110      8704  TIP3      OH2           -38.5535766405      -33.2300522861      -11.5448496465  W2        8704            0.0000000000
     26111      8704  TIP3      H1            -38.3710766405      -33.6789022861      -10.7193496465  W2        8704            0.0000000000
     26112      8704  TIP3      H2            -39.1532866405      -33.8146122861      -12.0083896465  W2        8704            0.0000000000
     26113      8705  TIP3      OH2           -53.0235666405      -32.4146822861       -7.0130096465  W2        8705            0.0000000000
     26114      8705  TIP3      H1            -52.5784066405      -33.2064322861       -6.7110396465  W2        8705            0.0000000000
     26115      8705  TIP3      H2            -52.5572666405      -31.6981622861       -6.5824496465  W2        8705            0.0000000000
     26116      8706  TIP3      OH2           -54.7195366405      -29.4153822861       -5.9439896465  W2        8706            0.0000000000
     26117      8706  TIP3      H1            -54.2275566405      -29.6363322861       -6.7347896465  W2        8706            0.0000000000
     26118      8706  TIP3      H2            -54.3574466405      -28.5750422861       -5.6630396465  W2        8706            0.0000000000
     26119      8707  TIP3      OH2           -36.7231566405      -33.0852322861        0.3214103535  W2        8707            0.0000000000
     26120      8707  TIP3      H1            -37.6405866405      -32.8145222861        0.2857603535  W2        8707            0.0000000000
     26121      8707  TIP3      H2            -36.6002166405      -33.6203922861       -0.4626196465  W2        8707            0.0000000000
     26122      8708  TIP3      OH2           -36.6869566405      -33.1622422861      -15.0168196465  W2        8708            0.0000000000
     26123      8708  TIP3      H1            -36.2746966405      -33.8836722861      -15.4920196465  W2        8708            0.0000000000
     26124      8708  TIP3      H2            -36.0053066405      -32.4927822861      -14.9583896465  W2        8708            0.0000000000
     26125      8709  TIP3      OH2           -54.4058866405      -33.1574722861      -11.8897496465  W2        8709            0.0000000000
     26126      8709  TIP3      H1            -55.3310466405      -32.9488122861      -12.0191996465  W2        8709            0.0000000000
     26127      8709  TIP3      H2            -53.9518966405      -32.6733922861      -12.5795196465  W2        8709            0.0000000000
     26128      8710  TIP3      OH2           -39.6351666405      -18.1733022861       -9.9440096465  W2        8710            0.0000000000
     26129      8710  TIP3      H1            -38.9828766405      -18.5210922861      -10.5520996465  W2        8710            0.0000000000
     26130      8710  TIP3      H2            -39.1247866405      -17.6849822861       -9.2980396465  W2        8710            0.0000000000
     26131      8711  TIP3      OH2           -54.4423466405      -34.4195722861       -3.5454996465  W2        8711            0.0000000000
     26132      8711  TIP3      H1            -55.1072966405      -34.6655422861       -2.9024096465  W2        8711            0.0000000000
     26133      8711  TIP3      H2            -54.8852166405      -33.7975322861       -4.1226996465  W2        8711            0.0000000000
     26134      8712  TIP3      OH2           -52.2504166405      -21.2441622861        0.5990803535  W2        8712            0.0000000000
     26135      8712  TIP3      H1            -53.0711666405      -21.0695122861        0.1385503535  W2        8712            0.0000000000
     26136      8712  TIP3      H2            -52.5026366405      -21.3176922861        1.5195203535  W2        8712            0.0000000000
     26137      8713  TIP3      OH2           -49.2961266405      -20.2700422861       -3.1425196465  W2        8713            0.0000000000
     26138      8713  TIP3      H1            -49.7210166405      -19.4601922861       -3.4250596465  W2        8713            0.0000000000
     26139      8713  TIP3      H2            -48.3918466405      -20.1846322861       -3.4445396465  W2        8713            0.0000000000
     26140      8714  TIP3      OH2           -44.9849866405      -18.8710422861       -0.1831496465  W2        8714            0.0000000000
     26141      8714  TIP3      H1            -44.8002366405      -19.2044322861        0.6948803535  W2        8714            0.0000000000
     26142      8714  TIP3      H2            -44.1385366405      -18.5611822861       -0.5052296465  W2        8714            0.0000000000
     26143      8715  TIP3      OH2           -42.6399466405      -17.5851522861       -0.9390096465  W2        8715            0.0000000000
     26144      8715  TIP3      H1            -41.9630566405      -18.2179222861       -1.1790896465  W2        8715            0.0000000000
     26145      8715  TIP3      H2            -42.3180666405      -17.1841022861       -0.1316796465  W2        8715            0.0000000000
     26146      8716  TIP3      OH2           -37.7225666405      -34.9956022861       -1.8595096465  W2        8716            0.0000000000
     26147      8716  TIP3      H1            -38.5352166405      -34.6705722861       -2.2470396465  W2        8716            0.0000000000
     26148      8716  TIP3      H2            -37.4897166405      -35.7557522861       -2.3925996465  W2        8716            0.0000000000
     26149      8717  TIP3      OH2           -51.8944566405      -17.0136522861       -3.0949896465  W2        8717            0.0000000000
     26150      8717  TIP3      H1            -52.6148166405      -16.5735522861       -3.5462196465  W2        8717            0.0000000000
     26151      8717  TIP3      H2            -52.2600566405      -17.2641822861       -2.2465896465  W2        8717            0.0000000000
     26152      8718  TIP3      OH2           -49.4271966405      -17.4132622861       -4.0652696465  W2        8718            0.0000000000
     26153      8718  TIP3      H1            -50.2919766405      -17.3414122861       -3.6612596465  W2        8718            0.0000000000
     26154      8718  TIP3      H2            -49.4822966405      -16.8665322861       -4.8490196465  W2        8718            0.0000000000
     26155      8719  TIP3      OH2           -44.7166366405      -17.5253722861       -4.8896696465  W2        8719            0.0000000000
     26156      8719  TIP3      H1            -45.1732366405      -16.9964022861       -5.5438296465  W2        8719            0.0000000000
     26157      8719  TIP3      H2            -44.5538366405      -16.9222322861       -4.1644396465  W2        8719            0.0000000000
     26158      8720  TIP3      OH2           -42.3890066405      -18.6474122861       -3.9446396465  W2        8720            0.0000000000
     26159      8720  TIP3      H1            -43.2936366405      -18.4823922861       -4.2104296465  W2        8720            0.0000000000
     26160      8720  TIP3      H2            -41.9601466405      -17.7941922861       -4.0102996465  W2        8720            0.0000000000
     26161      8721  TIP3      OH2           -39.7848166405      -17.0775022861       -3.6498596465  W2        8721            0.0000000000
     26162      8721  TIP3      H1            -39.9666166405      -16.1616122861       -3.8603696465  W2        8721            0.0000000000
     26163      8721  TIP3      H2            -39.6080366405      -17.4877922861       -4.4963996465  W2        8721            0.0000000000
     26164      8722  TIP3      OH2           -52.4796466405      -18.3904022861       -6.1848096465  W2        8722            0.0000000000
     26165      8722  TIP3      H1            -52.4980466405      -18.8158922861       -5.3275796465  W2        8722            0.0000000000
     26166      8722  TIP3      H2            -51.6748566405      -18.7089022861       -6.5935896465  W2        8722            0.0000000000
     26167      8723  TIP3      OH2           -50.3383366405      -19.6805322861       -7.5298196465  W2        8723            0.0000000000
     26168      8723  TIP3      H1            -50.5572666405      -20.5967922861       -7.3602196465  W2        8723            0.0000000000
     26169      8723  TIP3      H2            -49.5141166405      -19.5404922861       -7.0636796465  W2        8723            0.0000000000
     26170      8724  TIP3      OH2           -47.8010866405      -19.2106022861       -6.6810196465  W2        8724            0.0000000000
     26171      8724  TIP3      H1            -47.5885166405      -20.0987022861       -6.9679296465  W2        8724            0.0000000000
     26172      8724  TIP3      H2            -47.7365766405      -19.2448322861       -5.7266196465  W2        8724            0.0000000000
     26173      8725  TIP3      OH2           -44.2927166405      -33.5465422861       -7.5366896465  W2        8725            0.0000000000
     26174      8725  TIP3      H1            -44.9670366405      -34.1759822861       -7.2811096465  W2        8725            0.0000000000
     26175      8725  TIP3      H2            -43.7287966405      -34.0306522861       -8.1398996465  W2        8725            0.0000000000
     26176      8726  TIP3      OH2           -39.1499966405      -35.4391422861       -7.4239796465  W2        8726            0.0000000000
     26177      8726  TIP3      H1            -38.5462366405      -34.8916022861       -7.9258796465  W2        8726            0.0000000000
     26178      8726  TIP3      H2            -40.0197966405      -35.1201022861       -7.6645696465  W2        8726            0.0000000000
     26179      8727  TIP3      OH2           -37.4229566405      -34.3002722861       -9.0908896465  W2        8727            0.0000000000
     26180      8727  TIP3      H1            -36.8112066405      -34.8147022861       -9.6175296465  W2        8727            0.0000000000
     26181      8727  TIP3      H2            -37.0406166405      -33.4230622861       -9.0674496465  W2        8727            0.0000000000
     26182      8728  TIP3      OH2           -51.9659666405      -34.9125122861       -9.7146996465  W2        8728            0.0000000000
     26183      8728  TIP3      H1            -52.7429866405      -35.1470222861      -10.2221096465  W2        8728            0.0000000000
     26184      8728  TIP3      H2            -51.4356066405      -35.7093022861       -9.7058996465  W2        8728            0.0000000000
     26185      8729  TIP3      OH2           -53.1296266405      -35.1147022861      -13.9110896465  W2        8729            0.0000000000
     26186      8729  TIP3      H1            -52.6905566405      -34.5036522861      -14.5027396465  W2        8729            0.0000000000
     26187      8729  TIP3      H2            -53.7633866405      -34.5762922861      -13.4370896465  W2        8729            0.0000000000
     26188      8730  TIP3      OH2           -47.3867066405      -34.9858022861       -9.9013896465  W2        8730            0.0000000000
     26189      8730  TIP3      H1            -46.5123666405      -34.5973722861       -9.9309596465  W2        8730            0.0000000000
     26190      8730  TIP3      H2            -47.5226266405      -35.2010222861       -8.9786696465  W2        8730            0.0000000000
     26191      8731  TIP3      OH2           -41.8298666405      -34.9558222861       -8.2522196465  W2        8731            0.0000000000
     26192      8731  TIP3      H1            -41.7537066405      -34.8606622861       -9.2016196465  W2        8731            0.0000000000
     26193      8731  TIP3      H2            -42.1049466405      -35.8635322861       -8.1233096465  W2        8731            0.0000000000
     26194      8732  TIP3      OH2           -40.4766066405      -34.9300422861      -12.5597196465  W2        8732            0.0000000000
     26195      8732  TIP3      H1            -41.1794966405      -34.3151222861      -12.7695796465  W2        8732            0.0000000000
     26196      8732  TIP3      H2            -40.9214666405      -35.7673722861      -12.4286296465  W2        8732            0.0000000000
     26197      8733  TIP3      OH2           -53.2286766405      -19.1664822861      -13.0135796465  W2        8733            0.0000000000
     26198      8733  TIP3      H1            -53.9136866405      -19.2045922861      -13.6810696465  W2        8733            0.0000000000
     26199      8733  TIP3      H2            -53.2249566405      -18.2537222861      -12.7253696465  W2        8733            0.0000000000
     26200      8734  TIP3      OH2           -51.2687166405      -33.1985522861      -15.4686796465  W2        8734            0.0000000000
     26201      8734  TIP3      H1            -50.7773766405      -33.8283122861      -15.9961296465  W2        8734            0.0000000000
     26202      8734  TIP3      H2            -50.6450866405      -32.9026122861      -14.8055596465  W2        8734            0.0000000000
     26203      8735  TIP3      OH2           -46.2427066405      -32.9054022861      -13.0116296465  W2        8735            0.0000000000
     26204      8735  TIP3      H1            -46.0645766405      -33.5520822861      -12.3287696465  W2        8735            0.0000000000
     26205      8735  TIP3      H2            -46.2960866405      -32.0716322861      -12.5445196465  W2        8735            0.0000000000
     26206      8736  TIP3      OH2           -44.3643266405      -17.9569922861      -14.6159596465  W2        8736            0.0000000000
     26207      8736  TIP3      H1            -43.4983066405      -17.5902522861      -14.7941396465  W2        8736            0.0000000000
     26208      8736  TIP3      H2            -44.6110466405      -18.3961922861      -15.4298796465  W2        8736            0.0000000000
     26209      8737  TIP3      OH2           -37.6553666405      -18.3939622861      -11.9368496465  W2        8737            0.0000000000
     26210      8737  TIP3      H1            -37.8496566405      -19.1417522861      -12.5018896465  W2        8737            0.0000000000
     26211      8737  TIP3      H2            -37.6943566405      -17.6359522861      -12.5200596465  W2        8737            0.0000000000
     26212      8738  TIP3      OH2           -52.0081666405      -34.3983222861       -0.1970796465  W2        8738            0.0000000000
     26213      8738  TIP3      H1            -52.3743466405      -35.1640622861        0.2453903535  W2        8738            0.0000000000
     26214      8738  TIP3      H2            -51.0953166405      -34.3693022861        0.0894303535  W2        8738            0.0000000000
     26215      8739  TIP3      OH2           -50.0350866405      -35.0478822861        1.3386303535  W2        8739            0.0000000000
     26216      8739  TIP3      H1            -49.1367266405      -35.3218622861        1.1539703535  W2        8739            0.0000000000
     26217      8739  TIP3      H2            -50.4217766405      -35.7902822861        1.8028903535  W2        8739            0.0000000000
     26218      8740  TIP3      OH2           -51.4105566405      -18.2464022861      -15.9883696465  W2        8740            0.0000000000
     26219      8740  TIP3      H1            -51.6780966405      -17.9601122861      -15.1150596465  W2        8740            0.0000000000
     26220      8740  TIP3      H2            -50.6392966405      -18.7924822861      -15.8361196465  W2        8740            0.0000000000
     26221      8741  TIP3      OH2           -41.6138566405      -35.7153522861        1.5209103535  W2        8741            0.0000000000
     26222      8741  TIP3      H1            -41.5371366405      -36.1412822861        2.3746803535  W2        8741            0.0000000000
     26223      8741  TIP3      H2            -40.7201966405      -35.7018822861        1.1782603535  W2        8741            0.0000000000
     26224      8742  TIP3      OH2           -38.4377466405      -19.6427222861        0.2133303535  W2        8742            0.0000000000
     26225      8742  TIP3      H1            -39.2195566405      -19.8289222861       -0.3066096465  W2        8742            0.0000000000
     26226      8742  TIP3      H2            -38.5097566405      -18.7132922861        0.4305803535  W2        8742            0.0000000000
     26227      8743  TIP3      OH2           -24.0317066405      -25.7562822861       -9.7559496465  W2        8743            0.0000000000
     26228      8743  TIP3      H1            -23.9425966405      -24.8124622861       -9.8882396465  W2        8743            0.0000000000
     26229      8743  TIP3      H2            -24.6699466405      -26.0316422861      -10.4140096465  W2        8743            0.0000000000
     26230      8744  TIP3      OH2           -25.0985766405      -26.5012122861       -6.3371296465  W2        8744            0.0000000000
     26231      8744  TIP3      H1            -25.1368266405      -27.1475822861       -5.6321696465  W2        8744            0.0000000000
     26232      8744  TIP3      H2            -25.4209266405      -26.9677722861       -7.1082596465  W2        8744            0.0000000000
     26233      8745  TIP3      OH2           -32.7300766405      -26.8870022861       -4.7441396465  W2        8745            0.0000000000
     26234      8745  TIP3      H1            -32.6888666405      -27.5126722861       -4.0208996465  W2        8745            0.0000000000
     26235      8745  TIP3      H2            -32.0273066405      -26.2631422861       -4.5620996465  W2        8745            0.0000000000
     26236      8746  TIP3      OH2           -21.3925566405      -23.5621722861       -8.0356196465  W2        8746            0.0000000000
     26237      8746  TIP3      H1            -21.8332866405      -24.2825722861       -7.5850596465  W2        8746            0.0000000000
     26238      8746  TIP3      H2            -21.4055866405      -22.8414522861       -7.4058496465  W2        8746            0.0000000000
     26239      8747  TIP3      OH2           -31.8067666405      -22.4371122861       -6.2092296465  W2        8747            0.0000000000
     26240      8747  TIP3      H1            -32.1762466405      -23.2390622861       -6.5787996465  W2        8747            0.0000000000
     26241      8747  TIP3      H2            -30.8656566405      -22.6056222861       -6.1628896465  W2        8747            0.0000000000
     26242      8748  TIP3      OH2           -35.1967166405      -28.7768522861      -10.8163496465  W2        8748            0.0000000000
     26243      8748  TIP3      H1            -35.6443766405      -27.9309822861      -10.8346996465  W2        8748            0.0000000000
     26244      8748  TIP3      H2            -35.7575966405      -29.3564322861      -11.3318396465  W2        8748            0.0000000000
     26245      8749  TIP3      OH2           -34.4861066405      -26.6148922861       -8.6905496465  W2        8749            0.0000000000
     26246      8749  TIP3      H1            -34.2727566405      -27.3847322861       -8.1632496465  W2        8749            0.0000000000
     26247      8749  TIP3      H2            -33.7483466405      -26.5252222861       -9.2937896465  W2        8749            0.0000000000
     26248      8750  TIP3      OH2           -24.2810066405      -18.4580022861       -7.8235796465  W2        8750            0.0000000000
     26249      8750  TIP3      H1            -23.6613666405      -19.1345322861       -8.0966596465  W2        8750            0.0000000000
     26250      8750  TIP3      H2            -24.4892666405      -18.6759222861       -6.9150896465  W2        8750            0.0000000000
     26251      8751  TIP3      OH2           -26.7091366405      -24.0690722861       -5.9310296465  W2        8751            0.0000000000
     26252      8751  TIP3      H1            -26.4053466405      -24.7549322861       -6.5256196465  W2        8751            0.0000000000
     26253      8751  TIP3      H2            -25.9877366405      -23.9502022861       -5.3132296465  W2        8751            0.0000000000
     26254      8752  TIP3      OH2           -18.0461566405      -32.4675422861       -5.0704096465  W2        8752            0.0000000000
     26255      8752  TIP3      H1            -17.9969366405      -31.8574222861       -4.3344996465  W2        8752            0.0000000000
     26256      8752  TIP3      H2            -17.6206466405      -32.0064522861       -5.7932996465  W2        8752            0.0000000000
     26257      8753  TIP3      OH2           -23.5684366405      -29.6748322861       -5.6035496465  W2        8753            0.0000000000
     26258      8753  TIP3      H1            -23.4258466405      -30.6211322861       -5.5833896465  W2        8753            0.0000000000
     26259      8753  TIP3      H2            -23.6745366405      -29.4678522861       -6.5320596465  W2        8753            0.0000000000
     26260      8754  TIP3      OH2           -30.4136066405      -31.5731922861       -8.3310696465  W2        8754            0.0000000000
     26261      8754  TIP3      H1            -30.3704966405      -30.7133422861       -8.7494396465  W2        8754            0.0000000000
     26262      8754  TIP3      H2            -30.8711966405      -32.1257222861       -8.9647496465  W2        8754            0.0000000000
     26263      8755  TIP3      OH2           -22.6913366405      -31.4426322861       -9.9302396465  W2        8755            0.0000000000
     26264      8755  TIP3      H1            -22.0449066405      -31.7713122861       -9.3054796465  W2        8755            0.0000000000
     26265      8755  TIP3      H2            -22.1813966405      -30.9247322861      -10.5530996465  W2        8755            0.0000000000
     26266      8756  TIP3      OH2           -33.7934566405      -29.1766122861       -7.5689296465  W2        8756            0.0000000000
     26267      8756  TIP3      H1            -33.1397966405      -29.7264422861       -7.1369196465  W2        8756            0.0000000000
     26268      8756  TIP3      H2            -33.7695266405      -29.4507122861       -8.4857296465  W2        8756            0.0000000000
     26269      8757  TIP3      OH2           -28.6370066405      -27.6264822861       -8.3537796465  W2        8757            0.0000000000
     26270      8757  TIP3      H1            -28.0209066405      -28.1529422861       -7.8443796465  W2        8757            0.0000000000
     26271      8757  TIP3      H2            -29.2231266405      -28.2666122861       -8.7574196465  W2        8757            0.0000000000
     26272      8758  TIP3      OH2           -17.6546966405      -30.9896222861       -2.8344296465  W2        8758            0.0000000000
     26273      8758  TIP3      H1            -18.3432366405      -30.3315522861       -2.9297696465  W2        8758            0.0000000000
     26274      8758  TIP3      H2            -17.6392366405      -31.1868322861       -1.8978896465  W2        8758            0.0000000000
     26275      8759  TIP3      OH2           -31.6034166405      -32.6553522861       -4.2569896465  W2        8759            0.0000000000
     26276      8759  TIP3      H1            -31.8222466405      -32.1252922861       -5.0233896465  W2        8759            0.0000000000
     26277      8759  TIP3      H2            -32.2713266405      -32.4288022861       -3.6098496465  W2        8759            0.0000000000
     26278      8760  TIP3      OH2           -24.2344366405      -23.1552422861      -10.7130796465  W2        8760            0.0000000000
     26279      8760  TIP3      H1            -24.5299266405      -23.4780122861      -11.5643896465  W2        8760            0.0000000000
     26280      8760  TIP3      H2            -24.5586566405      -22.2555722861      -10.6718196465  W2        8760            0.0000000000
     26281      8761  TIP3      OH2           -29.0342766405      -24.9797822861       -3.9696196465  W2        8761            0.0000000000
     26282      8761  TIP3      H1            -29.7743666405      -24.3816322861       -3.8660996465  W2        8761            0.0000000000
     26283      8761  TIP3      H2            -28.3203266405      -24.4258222861       -4.2852596465  W2        8761            0.0000000000
     26284      8762  TIP3      OH2           -20.9274966405      -32.1517022861       -7.9496496465  W2        8762            0.0000000000
     26285      8762  TIP3      H1            -21.1426966405      -32.9173622861       -7.4170496465  W2        8762            0.0000000000
     26286      8762  TIP3      H2            -20.2717566405      -31.6792422861       -7.4367996465  W2        8762            0.0000000000
     26287      8763  TIP3      OH2           -32.0096866405      -30.7631722861       -6.3047696465  W2        8763            0.0000000000
     26288      8763  TIP3      H1            -31.3960566405      -30.1304122861       -5.9315296465  W2        8763            0.0000000000
     26289      8763  TIP3      H2            -31.4976166405      -31.2356722861       -6.9610796465  W2        8763            0.0000000000
     26290      8764  TIP3      OH2           -30.6268466405      -23.0154822861       -3.1824696465  W2        8764            0.0000000000
     26291      8764  TIP3      H1            -30.6320866405      -22.1361322861       -3.5605396465  W2        8764            0.0000000000
     26292      8764  TIP3      H2            -31.4804366405      -23.0990722861       -2.7574796465  W2        8764            0.0000000000
     26293      8765  TIP3      OH2           -34.5057566405      -23.3446922861      -12.4005396465  W2        8765            0.0000000000
     26294      8765  TIP3      H1            -34.7776666405      -23.1155922861      -13.2892496465  W2        8765            0.0000000000
     26295      8765  TIP3      H2            -34.4601866405      -22.5068122861      -11.9400096465  W2        8765            0.0000000000
     26296      8766  TIP3      OH2           -20.8807866405      -21.7231022861       -5.6876896465  W2        8766            0.0000000000
     26297      8766  TIP3      H1            -21.8224166405      -21.6647122861       -5.5259996465  W2        8766            0.0000000000
     26298      8766  TIP3      H2            -20.6041766405      -20.8170522861       -5.8247196465  W2        8766            0.0000000000
     26299      8767  TIP3      OH2           -20.5800866405      -33.4365722861       -4.2702996465  W2        8767            0.0000000000
     26300      8767  TIP3      H1            -21.3161666405      -32.8258622861       -4.3081696465  W2        8767            0.0000000000
     26301      8767  TIP3      H2            -19.8966866405      -33.0216722861       -4.7966596465  W2        8767            0.0000000000
     26302      8768  TIP3      OH2           -27.5769466405      -35.3498422861       -6.8044996465  W2        8768            0.0000000000
     26303      8768  TIP3      H1            -27.6945266405      -36.2982422861       -6.8586696465  W2        8768            0.0000000000
     26304      8768  TIP3      H2            -28.4319366405      -35.0172322861       -6.5313896465  W2        8768            0.0000000000
     26305      8769  TIP3      OH2           -22.6286666405      -19.9417522861       -9.0625296465  W2        8769            0.0000000000
     26306      8769  TIP3      H1            -22.2034366405      -20.6489622861       -9.5475696465  W2        8769            0.0000000000
     26307      8769  TIP3      H2            -22.3116666405      -19.1404822861       -9.4793096465  W2        8769            0.0000000000
     26308      8770  TIP3      OH2           -21.4690166405      -22.0409022861      -10.5538696465  W2        8770            0.0000000000
     26309      8770  TIP3      H1            -21.7265366405      -22.7308922861      -11.1652796465  W2        8770            0.0000000000
     26310      8770  TIP3      H2            -21.3979366405      -22.4837822861       -9.7082796465  W2        8770            0.0000000000
     26311      8771  TIP3      OH2           -19.7829966405      -23.4742322861       -2.0765196465  W2        8771            0.0000000000
     26312      8771  TIP3      H1            -19.6433666405      -24.0659822861       -2.8158196465  W2        8771            0.0000000000
     26313      8771  TIP3      H2            -19.6157166405      -22.6016422861       -2.4326396465  W2        8771            0.0000000000
     26314      8772  TIP3      OH2           -25.3104566405      -26.5122822861      -12.3039196465  W2        8772            0.0000000000
     26315      8772  TIP3      H1            -26.0219066405      -25.9773122861      -12.6558696465  W2        8772            0.0000000000
     26316      8772  TIP3      H2            -24.6194966405      -26.4570722861      -12.9640296465  W2        8772            0.0000000000
     26317      8773  TIP3      OH2           -25.2565366405      -28.0548522861      -15.2654196465  W2        8773            0.0000000000
     26318      8773  TIP3      H1            -24.5555466405      -28.0321622861      -14.6140196465  W2        8773            0.0000000000
     26319      8773  TIP3      H2            -24.9542466405      -28.6828822861      -15.9214896465  W2        8773            0.0000000000
     26320      8774  TIP3      OH2           -17.9410666405      -27.1344322861       -4.0104796465  W2        8774            0.0000000000
     26321      8774  TIP3      H1            -18.5936566405      -26.4398722861       -3.9213896465  W2        8774            0.0000000000
     26322      8774  TIP3      H2            -17.4760366405      -26.9243422861       -4.8203196465  W2        8774            0.0000000000
     26323      8775  TIP3      OH2           -21.9046866405      -26.3029522861      -11.3523296465  W2        8775            0.0000000000
     26324      8775  TIP3      H1            -22.6365866405      -26.0745822861      -10.7792696465  W2        8775            0.0000000000
     26325      8775  TIP3      H2            -21.4574666405      -27.0166822861      -10.8975796465  W2        8775            0.0000000000
     26326      8776  TIP3      OH2           -22.0073366405      -28.1286922861       -2.2846296465  W2        8776            0.0000000000
     26327      8776  TIP3      H1            -21.9274266405      -27.3652522861       -1.7127796465  W2        8776            0.0000000000
     26328      8776  TIP3      H2            -22.6085666405      -27.8494522861       -2.9751196465  W2        8776            0.0000000000
     26329      8777  TIP3      OH2           -30.2593166405      -25.6723322861       -9.4698296465  W2        8777            0.0000000000
     26330      8777  TIP3      H1            -30.5897966405      -26.0429922861      -10.2881296465  W2        8777            0.0000000000
     26331      8777  TIP3      H2            -29.6709066405      -26.3429322861       -9.1229996465  W2        8777            0.0000000000
     26332      8778  TIP3      OH2           -28.8925666405      -22.2442722861       -6.7886096465  W2        8778            0.0000000000
     26333      8778  TIP3      H1            -28.9874366405      -22.8229622861       -7.5451496465  W2        8778            0.0000000000
     26334      8778  TIP3      H2            -28.1632066405      -22.6157022861       -6.2923296465  W2        8778            0.0000000000
     26335      8779  TIP3      OH2           -29.8927666405      -26.9037722861       -5.8363296465  W2        8779            0.0000000000
     26336      8779  TIP3      H1            -29.3275166405      -26.7823522861       -6.5992096465  W2        8779            0.0000000000
     26337      8779  TIP3      H2            -29.5738766405      -26.2662722861       -5.1974796465  W2        8779            0.0000000000
     26338      8780  TIP3      OH2           -23.5835466405      -21.4005822861       -5.1022796465  W2        8780            0.0000000000
     26339      8780  TIP3      H1            -23.8238866405      -20.7382722861       -4.4543596465  W2        8780            0.0000000000
     26340      8780  TIP3      H2            -23.7817266405      -22.2350622861       -4.6773196465  W2        8780            0.0000000000
     26341      8781  TIP3      OH2           -29.0126966405      -22.5045022861       -1.1191396465  W2        8781            0.0000000000
     26342      8781  TIP3      H1            -29.3239466405      -21.7221822861       -0.6638196465  W2        8781            0.0000000000
     26343      8781  TIP3      H2            -29.6626766405      -22.6575922861       -1.8049396465  W2        8781            0.0000000000
     26344      8782  TIP3      OH2           -23.0337366405      -27.1406622861      -13.6672096465  W2        8782            0.0000000000
     26345      8782  TIP3      H1            -22.4541866405      -26.9906322861      -12.9203196465  W2        8782            0.0000000000
     26346      8782  TIP3      H2            -22.6197366405      -26.6699222861      -14.3905696465  W2        8782            0.0000000000
     26347      8783  TIP3      OH2           -32.0927066405      -26.3063922861       -1.8905696465  W2        8783            0.0000000000
     26348      8783  TIP3      H1            -32.0223866405      -25.6557122861       -1.1920696465  W2        8783            0.0000000000
     26349      8783  TIP3      H2            -32.9834866405      -26.2036422861       -2.2254796465  W2        8783            0.0000000000
     26350      8784  TIP3      OH2           -25.3072466405      -20.4038122861      -10.2318996465  W2        8784            0.0000000000
     26351      8784  TIP3      H1            -24.8334866405      -20.1081822861       -9.4544796465  W2        8784            0.0000000000
     26352      8784  TIP3      H2            -25.8703166405      -19.6656522861      -10.4649396465  W2        8784            0.0000000000
     26353      8785  TIP3      OH2           -30.7731066405      -20.4330022861       -0.3557596465  W2        8785            0.0000000000
     26354      8785  TIP3      H1            -30.7655766405      -20.5690322861       -1.3032096465  W2        8785            0.0000000000
     26355      8785  TIP3      H2            -31.6890666405      -20.5501922861       -0.1037596465  W2        8785            0.0000000000
     26356      8786  TIP3      OH2           -19.3348966405      -35.3906222861      -13.8542396465  W2        8786            0.0000000000
     26357      8786  TIP3      H1            -20.2348266405      -35.2517222861      -13.5591796465  W2        8786            0.0000000000
     26358      8786  TIP3      H2            -19.0830566405      -34.5591622861      -14.2560696465  W2        8786            0.0000000000
     26359      8787  TIP3      OH2           -31.2690466405      -26.6029022861      -11.8805496465  W2        8787            0.0000000000
     26360      8787  TIP3      H1            -31.5609166405      -25.8347322861      -12.3714196465  W2        8787            0.0000000000
     26361      8787  TIP3      H2            -31.9435266405      -27.2622822861      -12.0434096465  W2        8787            0.0000000000
     26362      8788  TIP3      OH2           -18.1457566405      -21.0243822861      -15.4778496465  W2        8788            0.0000000000
     26363      8788  TIP3      H1            -18.0724066405      -20.0853622861      -15.3073196465  W2        8788            0.0000000000
     26364      8788  TIP3      H2            -17.2402466405      -21.3295222861      -15.5341196465  W2        8788            0.0000000000
     26365      8789  TIP3      OH2           -35.1760366405      -24.2399822861       -3.0655696465  W2        8789            0.0000000000
     26366      8789  TIP3      H1            -35.6771966405      -24.2680422861       -3.8805996465  W2        8789            0.0000000000
     26367      8789  TIP3      H2            -35.1706666405      -25.1456622861       -2.7558396465  W2        8789            0.0000000000
     26368      8790  TIP3      OH2           -35.4257666405      -21.4596022861       -6.1815496465  W2        8790            0.0000000000
     26369      8790  TIP3      H1            -34.4797066405      -21.6039022861       -6.2005996465  W2        8790            0.0000000000
     26370      8790  TIP3      H2            -35.5381366405      -20.6753222861       -5.6444296465  W2        8790            0.0000000000
     26371      8791  TIP3      OH2           -17.2279166405      -20.7936322861       -0.4991796465  W2        8791            0.0000000000
     26372      8791  TIP3      H1            -17.2772366405      -21.7488222861       -0.5364196465  W2        8791            0.0000000000
     26373      8791  TIP3      H2            -18.0546866405      -20.5261022861       -0.0977996465  W2        8791            0.0000000000
     26374      8792  TIP3      OH2           -26.2495166405      -21.2197122861       -1.6230396465  W2        8792            0.0000000000
     26375      8792  TIP3      H1            -26.1620566405      -20.3932522861       -1.1481296465  W2        8792            0.0000000000
     26376      8792  TIP3      H2            -27.1130066405      -21.5493322861       -1.3741096465  W2        8792            0.0000000000
     26377      8793  TIP3      OH2           -25.8349366405      -17.4473422861      -11.8169796465  W2        8793            0.0000000000
     26378      8793  TIP3      H1            -25.9103366405      -17.5686222861      -12.7634596465  W2        8793            0.0000000000
     26379      8793  TIP3      H2            -25.8020666405      -16.4980722861      -11.6985196465  W2        8793            0.0000000000
     26380      8794  TIP3      OH2           -32.1815566405      -18.6586422861      -10.0360796465  W2        8794            0.0000000000
     26381      8794  TIP3      H1            -32.0295166405      -19.0066022861       -9.1574296465  W2        8794            0.0000000000
     26382      8794  TIP3      H2            -33.0325166405      -19.0149122861      -10.2913596465  W2        8794            0.0000000000
     26383      8795  TIP3      OH2           -22.7333366405      -18.2933222861      -14.8147396465  W2        8795            0.0000000000
     26384      8795  TIP3      H1            -22.3584966405      -19.0377122861      -15.2854796465  W2        8795            0.0000000000
     26385      8795  TIP3      H2            -22.7289666405      -18.5632622861      -13.8964096465  W2        8795            0.0000000000
     26386      8796  TIP3      OH2           -23.0645266405      -18.3676122861      -12.0655196465  W2        8796            0.0000000000
     26387      8796  TIP3      H1            -23.9995466405      -18.2674222861      -11.8868196465  W2        8796            0.0000000000
     26388      8796  TIP3      H2            -22.7843366405      -19.0770122861      -11.4871996465  W2        8796            0.0000000000
     26389      8797  TIP3      OH2           -20.0759366405      -29.3003822861       -0.0189596465  W2        8797            0.0000000000
     26390      8797  TIP3      H1            -20.4832566405      -28.8198222861       -0.7396296465  W2        8797            0.0000000000
     26391      8797  TIP3      H2            -20.0353666405      -30.2057822861       -0.3268796465  W2        8797            0.0000000000
     26392      8798  TIP3      OH2           -32.9269866405      -22.9164422861       -2.0222896465  W2        8798            0.0000000000
     26393      8798  TIP3      H1            -32.7108566405      -23.2778822861       -1.1627096465  W2        8798            0.0000000000
     26394      8798  TIP3      H2            -33.7825166405      -23.2910622861       -2.2319396465  W2        8798            0.0000000000
     26395      8799  TIP3      OH2           -30.3081866405      -34.4463922861       -6.0268696465  W2        8799            0.0000000000
     26396      8799  TIP3      H1            -31.1698166405      -34.5335722861       -6.4345796465  W2        8799            0.0000000000
     26397      8799  TIP3      H2            -30.3306166405      -33.5903822861       -5.5991096465  W2        8799            0.0000000000
     26398      8800  TIP3      OH2           -25.6454066405      -34.7243522861       -2.6521696465  W2        8800            0.0000000000
     26399      8800  TIP3      H1            -25.2250966405      -35.1396422861       -1.8991096465  W2        8800            0.0000000000
     26400      8800  TIP3      H2            -26.5784466405      -34.9030222861       -2.5349696465  W2        8800            0.0000000000
     26401      8801  TIP3      OH2           -22.3189166405      -30.9688322861       -1.7987196465  W2        8801            0.0000000000
     26402      8801  TIP3      H1            -22.8329666405      -31.0946122861       -1.0011196465  W2        8801            0.0000000000
     26403      8801  TIP3      H2            -22.4744466405      -30.0565222861       -2.0430996465  W2        8801            0.0000000000
     26404      8802  TIP3      OH2           -21.5564266405      -26.1078322861      -16.0374196465  W2        8802            0.0000000000
     26405      8802  TIP3      H1            -21.5143466405      -26.3304422861      -16.9674196465  W2        8802            0.0000000000
     26406      8802  TIP3      H2            -20.7072166405      -25.7091222861      -15.8474296465  W2        8802            0.0000000000
     26407      8803  TIP3      OH2           -25.9836766405      -32.2320122861      -15.3670896465  W2        8803            0.0000000000
     26408      8803  TIP3      H1            -26.2371966405      -32.2128522861      -14.4442796465  W2        8803            0.0000000000
     26409      8803  TIP3      H2            -26.2404666405      -33.1034722861      -15.6684696465  W2        8803            0.0000000000
     26410      8804  TIP3      OH2           -30.2171766405      -29.4809422861       -4.9318496465  W2        8804            0.0000000000
     26411      8804  TIP3      H1            -30.8589666405      -29.5212122861       -4.2228396465  W2        8804            0.0000000000
     26412      8804  TIP3      H2            -30.1799766405      -28.5544722861       -5.1695496465  W2        8804            0.0000000000
     26413      8805  TIP3      OH2           -30.2202666405      -29.2599322861      -10.0198496465  W2        8805            0.0000000000
     26414      8805  TIP3      H1            -31.1129766405      -29.6003222861      -10.0784696465  W2        8805            0.0000000000
     26415      8805  TIP3      H2            -29.7696066405      -29.6368422861      -10.7755296465  W2        8805            0.0000000000
     26416      8806  TIP3      OH2           -24.6847166405      -28.8439022861      -11.2027696465  W2        8806            0.0000000000
     26417      8806  TIP3      H1            -25.0936866405      -28.0290422861      -11.4942896465  W2        8806            0.0000000000
     26418      8806  TIP3      H2            -23.9640966405      -28.9838922861      -11.8170596465  W2        8806            0.0000000000
     26419      8807  TIP3      OH2           -25.5825566405      -28.6682622861        0.2853003535  W2        8807            0.0000000000
     26420      8807  TIP3      H1            -26.1451766405      -29.3731022861        0.6060803535  W2        8807            0.0000000000
     26421      8807  TIP3      H2            -24.7562166405      -28.7890722861        0.7530603535  W2        8807            0.0000000000
     26422      8808  TIP3      OH2           -23.6799466405      -29.3978622861       -8.3887996465  W2        8808            0.0000000000
     26423      8808  TIP3      H1            -23.8754966405      -28.7921822861       -9.1037396465  W2        8808            0.0000000000
     26424      8808  TIP3      H2            -23.4986866405      -30.2313422861       -8.8231696465  W2        8808            0.0000000000
     26425      8809  TIP3      OH2           -32.4671266405      -29.1605922861       -3.0646496465  W2        8809            0.0000000000
     26426      8809  TIP3      H1            -32.5051866405      -28.7604322861       -2.1959396465  W2        8809            0.0000000000
     26427      8809  TIP3      H2            -32.9580166405      -29.9773522861       -2.9743596465  W2        8809            0.0000000000
     26428      8810  TIP3      OH2           -29.1013866405      -31.7863622861      -16.2660496465  W2        8810            0.0000000000
     26429      8810  TIP3      H1            -29.5323166405      -32.2313522861      -15.5363096465  W2        8810            0.0000000000
     26430      8810  TIP3      H2            -29.8195166405      -31.4147322861      -16.7782996465  W2        8810            0.0000000000
     26431      8811  TIP3      OH2           -35.8590466405      -32.0444122861       -9.2141796465  W2        8811            0.0000000000
     26432      8811  TIP3      H1            -35.2282766405      -32.0732022861       -8.4947896465  W2        8811            0.0000000000
     26433      8811  TIP3      H2            -35.4096166405      -32.4695422861       -9.9445896465  W2        8811            0.0000000000
     26434      8812  TIP3      OH2           -34.5848366405      -31.2982122861      -13.7901396465  W2        8812            0.0000000000
     26435      8812  TIP3      H1            -34.1106666405      -30.7072222861      -14.3750496465  W2        8812            0.0000000000
     26436      8812  TIP3      H2            -35.3021966405      -30.7679222861      -13.4431296465  W2        8812            0.0000000000
     26437      8813  TIP3      OH2           -24.4160266405      -27.7597322861       -3.7175596465  W2        8813            0.0000000000
     26438      8813  TIP3      H1            -24.0925466405      -28.3907622861       -4.3605096465  W2        8813            0.0000000000
     26439      8813  TIP3      H2            -24.8560966405      -28.2945122861       -3.0568196465  W2        8813            0.0000000000
     26440      8814  TIP3      OH2           -27.6387366405      -31.8321822861       -8.9334396465  W2        8814            0.0000000000
     26441      8814  TIP3      H1            -28.5496266405      -31.7755022861       -8.6448396465  W2        8814            0.0000000000
     26442      8814  TIP3      H2            -27.1334466405      -31.8926322861       -8.1227196465  W2        8814            0.0000000000
     26443      8815  TIP3      OH2           -32.8103966405      -30.2035522861      -10.1066796465  W2        8815            0.0000000000
     26444      8815  TIP3      H1            -33.6995966405      -30.1040022861      -10.4467196465  W2        8815            0.0000000000
     26445      8815  TIP3      H2            -32.5139066405      -31.0452522861      -10.4528896465  W2        8815            0.0000000000
     26446      8816  TIP3      OH2           -29.1572166405      -30.2032922861      -12.4502196465  W2        8816            0.0000000000
     26447      8816  TIP3      H1            -28.2256666405      -30.0742922861      -12.2719096465  W2        8816            0.0000000000
     26448      8816  TIP3      H2            -29.3721866405      -29.5338622861      -13.0997496465  W2        8816            0.0000000000
     26449      8817  TIP3      OH2           -23.2335466405      -32.5975522861       -5.6692596465  W2        8817            0.0000000000
     26450      8817  TIP3      H1            -23.9103866405      -32.4662422861       -5.0052896465  W2        8817            0.0000000000
     26451      8817  TIP3      H2            -23.7190566405      -32.7526022861       -6.4794896465  W2        8817            0.0000000000
     26452      8818  TIP3      OH2           -30.4831966405      -29.0090722861      -14.8836096465  W2        8818            0.0000000000
     26453      8818  TIP3      H1            -31.0256866405      -29.3886922861      -15.5748496465  W2        8818            0.0000000000
     26454      8818  TIP3      H2            -29.6497066405      -28.8146022861      -15.3121996465  W2        8818            0.0000000000
     26455      8819  TIP3      OH2           -19.9460366405      -16.9260122861        0.6075003535  W2        8819            0.0000000000
     26456      8819  TIP3      H1            -19.7461666405      -16.5018222861       -0.2269696465  W2        8819            0.0000000000
     26457      8819  TIP3      H2            -19.2906666405      -16.5821922861        1.2145403535  W2        8819            0.0000000000
     26458      8820  TIP3      OH2           -32.3480566405      -24.4518822861        0.2155503535  W2        8820            0.0000000000
     26459      8820  TIP3      H1            -31.6158166405      -24.1972922861        0.7770003535  W2        8820            0.0000000000
     26460      8820  TIP3      H2            -33.1281866405      -24.2473422861        0.7310903535  W2        8820            0.0000000000
     26461      8821  TIP3      OH2           -26.3187666405      -29.0448822861       -7.0464796465  W2        8821            0.0000000000
     26462      8821  TIP3      H1            -25.7544266405      -29.5912222861       -7.5935196465  W2        8821            0.0000000000
     26463      8821  TIP3      H2            -26.4664266405      -29.5666922861       -6.2577196465  W2        8821            0.0000000000
     26464      8822  TIP3      OH2           -31.3167966405      -32.9082722861      -10.6279996465  W2        8822            0.0000000000
     26465      8822  TIP3      H1            -31.6338466405      -33.8107422861      -10.6634596465  W2        8822            0.0000000000
     26466      8822  TIP3      H2            -30.5353866405      -32.9065322861      -11.1808396465  W2        8822            0.0000000000
     26467      8823  TIP3      OH2           -27.6921766405      -30.6562722861       -4.6324396465  W2        8823            0.0000000000
     26468      8823  TIP3      H1            -28.5276466405      -30.2023222861       -4.5221996465  W2        8823            0.0000000000
     26469      8823  TIP3      H2            -27.1681166405      -30.3804222861       -3.8804496465  W2        8823            0.0000000000
     26470      8824  TIP3      OH2           -27.1479166405      -24.4435022861      -12.9477996465  W2        8824            0.0000000000
     26471      8824  TIP3      H1            -27.8928166405      -24.9509722861      -13.2700096465  W2        8824            0.0000000000
     26472      8824  TIP3      H2            -27.2821966405      -24.3947022861      -12.0013196465  W2        8824            0.0000000000
     26473      8825  TIP3      OH2           -19.9980266405      -25.3106822861       -4.1610396465  W2        8825            0.0000000000
     26474      8825  TIP3      H1            -19.3561466405      -24.8540522861       -4.7048196465  W2        8825            0.0000000000
     26475      8825  TIP3      H2            -20.8283366405      -25.1974422861       -4.6236296465  W2        8825            0.0000000000
     26476      8826  TIP3      OH2           -23.2502366405      -31.6295122861      -14.7485396465  W2        8826            0.0000000000
     26477      8826  TIP3      H1            -24.1888166405      -31.5179522861      -14.8996596465  W2        8826            0.0000000000
     26478      8826  TIP3      H2            -22.9530266405      -30.7728222861      -14.4419696465  W2        8826            0.0000000000
     26479      8827  TIP3      OH2           -25.6287066405      -24.2591722861       -1.7108896465  W2        8827            0.0000000000
     26480      8827  TIP3      H1            -25.9740966405      -24.6409322861       -0.9039296465  W2        8827            0.0000000000
     26481      8827  TIP3      H2            -25.8286966405      -23.3258122861       -1.6395996465  W2        8827            0.0000000000
     26482      8828  TIP3      OH2           -22.5318866405      -29.7622422861      -13.0877996465  W2        8828            0.0000000000
     26483      8828  TIP3      H1            -21.6399866405      -29.8997422861      -12.7686796465  W2        8828            0.0000000000
     26484      8828  TIP3      H2            -22.4755266405      -28.9716322861      -13.6244496465  W2        8828            0.0000000000
     26485      8829  TIP3      OH2           -32.0230866405      -25.1485022861       -7.1780096465  W2        8829            0.0000000000
     26486      8829  TIP3      H1            -31.2783666405      -25.1509322861       -7.7793596465  W2        8829            0.0000000000
     26487      8829  TIP3      H2            -31.9454266405      -25.9721222861       -6.6964996465  W2        8829            0.0000000000
     26488      8830  TIP3      OH2           -25.0225066405      -22.9850722861      -13.9223396465  W2        8830            0.0000000000
     26489      8830  TIP3      H1            -25.3176666405      -22.1582822861      -13.5408596465  W2        8830            0.0000000000
     26490      8830  TIP3      H2            -25.7255066405      -23.6043822861      -13.7261996465  W2        8830            0.0000000000
     26491      8831  TIP3      OH2           -35.0151166405      -26.6878122861       -1.8631596465  W2        8831            0.0000000000
     26492      8831  TIP3      H1            -34.7922566405      -27.1058522861       -1.0314096465  W2        8831            0.0000000000
     26493      8831  TIP3      H2            -35.6171066405      -27.3003122861       -2.2858796465  W2        8831            0.0000000000
     26494      8832  TIP3      OH2           -27.9986266405      -27.1708222861        0.3498103535  W2        8832            0.0000000000
     26495      8832  TIP3      H1            -28.2945466405      -27.3365222861       -0.5452796465  W2        8832            0.0000000000
     26496      8832  TIP3      H2            -27.0671066405      -27.3907922861        0.3392003535  W2        8832            0.0000000000
     26497      8833  TIP3      OH2           -23.3783466405      -21.7976222861       -1.7603896465  W2        8833            0.0000000000
     26498      8833  TIP3      H1            -24.2789166405      -21.6143622861       -2.0279996465  W2        8833            0.0000000000
     26499      8833  TIP3      H2            -23.3442366405      -21.5386922861       -0.8395096465  W2        8833            0.0000000000
     26500      8834  TIP3      OH2           -17.6470166405      -29.5528322861      -13.3931296465  W2        8834            0.0000000000
     26501      8834  TIP3      H1            -18.2013866405      -29.9490322861      -14.0653796465  W2        8834            0.0000000000
     26502      8834  TIP3      H2            -17.5466566405      -28.6423122861      -13.6707996465  W2        8834            0.0000000000
     26503      8835  TIP3      OH2           -17.6838166405      -23.7526622861       -0.5559796465  W2        8835            0.0000000000
     26504      8835  TIP3      H1            -18.5349666405      -23.5142822861       -0.9233396465  W2        8835            0.0000000000
     26505      8835  TIP3      H2            -17.0934766405      -23.7693422861       -1.3092696465  W2        8835            0.0000000000
     26506      8836  TIP3      OH2           -19.3518466405      -20.7667922861      -12.9279196465  W2        8836            0.0000000000
     26507      8836  TIP3      H1            -19.7247366405      -21.5924122861      -12.6188596465  W2        8836            0.0000000000
     26508      8836  TIP3      H2            -19.0744966405      -20.9498522861      -13.8255796465  W2        8836            0.0000000000
     26509      8837  TIP3      OH2           -22.1914566405      -25.9588422861       -5.9067296465  W2        8837            0.0000000000
     26510      8837  TIP3      H1            -23.1197666405      -26.1906522861       -5.9337996465  W2        8837            0.0000000000
     26511      8837  TIP3      H2            -21.7403466405      -26.7358622861       -6.2368496465  W2        8837            0.0000000000
     26512      8838  TIP3      OH2           -29.6481466405      -21.6306822861       -9.7738596465  W2        8838            0.0000000000
     26513      8838  TIP3      H1            -29.1209266405      -20.8572422861       -9.9739796465  W2        8838            0.0000000000
     26514      8838  TIP3      H2            -30.5282966405      -21.4057622861      -10.0754596465  W2        8838            0.0000000000
     26515      8839  TIP3      OH2           -33.8933766405      -26.7682722861      -15.1866196465  W2        8839            0.0000000000
     26516      8839  TIP3      H1            -33.2773866405      -26.1415522861      -14.8071396465  W2        8839            0.0000000000
     26517      8839  TIP3      H2            -34.7551166405      -26.4522922861      -14.9149696465  W2        8839            0.0000000000
     26518      8840  TIP3      OH2           -28.2209166405      -23.9676922861      -10.1974296465  W2        8840            0.0000000000
     26519      8840  TIP3      H1            -28.4619166405      -23.0422522861      -10.1558996465  W2        8840            0.0000000000
     26520      8840  TIP3      H2            -28.9615566405      -24.4265622861       -9.8010396465  W2        8840            0.0000000000
     26521      8841  TIP3      OH2           -27.7062566405      -19.8183322861       -3.8823196465  W2        8841            0.0000000000
     26522      8841  TIP3      H1            -27.3437866405      -18.9637722861       -4.1158796465  W2        8841            0.0000000000
     26523      8841  TIP3      H2            -27.1747366405      -20.1101722861       -3.1416896465  W2        8841            0.0000000000
     26524      8842  TIP3      OH2           -29.5378366405      -18.9459322861      -10.6522096465  W2        8842            0.0000000000
     26525      8842  TIP3      H1            -30.4877866405      -18.8401922861      -10.6008796465  W2        8842            0.0000000000
     26526      8842  TIP3      H2            -29.1860266405      -18.1251922861      -10.3074596465  W2        8842            0.0000000000
     26527      8843  TIP3      OH2           -24.1621766405      -23.7192622861       -4.1817596465  W2        8843            0.0000000000
     26528      8843  TIP3      H1            -24.5880466405      -23.9470922861       -3.3553596465  W2        8843            0.0000000000
     26529      8843  TIP3      H2            -23.5815966405      -24.4580822861       -4.3642296465  W2        8843            0.0000000000
     26530      8844  TIP3      OH2           -21.9592866405      -22.7902122861      -15.1078596465  W2        8844            0.0000000000
     26531      8844  TIP3      H1            -21.6059766405      -23.1702322861      -14.3035096465  W2        8844            0.0000000000
     26532      8844  TIP3      H2            -22.9079366405      -22.8837322861      -15.0209296465  W2        8844            0.0000000000
     26533      8845  TIP3      OH2           -21.5037566405      -19.1673122861       -1.7122796465  W2        8845            0.0000000000
     26534      8845  TIP3      H1            -22.1054366405      -19.7230222861       -2.2076496465  W2        8845            0.0000000000
     26535      8845  TIP3      H2            -21.2223866405      -18.5003322861       -2.3385396465  W2        8845            0.0000000000
     26536      8846  TIP3      OH2           -17.4558466405      -18.3109622861      -14.9068396465  W2        8846            0.0000000000
     26537      8846  TIP3      H1            -16.7120566405      -17.7249122861      -15.0466796465  W2        8846            0.0000000000
     26538      8846  TIP3      H2            -18.1500366405      -17.7423822861      -14.5735996465  W2        8846            0.0000000000
     26539      8847  TIP3      OH2           -33.3811666405      -31.9345422861       -2.3050196465  W2        8847            0.0000000000
     26540      8847  TIP3      H1            -34.2739366405      -31.5960022861       -2.3726196465  W2        8847            0.0000000000
     26541      8847  TIP3      H2            -33.4798866405      -32.7899322861       -1.8869396465  W2        8847            0.0000000000
     26542      8848  TIP3      OH2           -21.0933566405      -24.1180122861      -12.8810696465  W2        8848            0.0000000000
     26543      8848  TIP3      H1            -21.3705966405      -24.8460822861      -12.3249596465  W2        8848            0.0000000000
     26544      8848  TIP3      H2            -20.1660566405      -23.9988122861      -12.6758096465  W2        8848            0.0000000000
     26545      8849  TIP3      OH2           -33.7299666405      -20.1301022861       -3.8700796465  W2        8849            0.0000000000
     26546      8849  TIP3      H1            -33.5129366405      -21.0618622861       -3.9011096465  W2        8849            0.0000000000
     26547      8849  TIP3      H2            -33.4836166405      -19.8556022861       -2.9867996465  W2        8849            0.0000000000
     26548      8850  TIP3      OH2           -27.8685066405      -21.6786022861      -16.6608596465  W2        8850            0.0000000000
     26549      8850  TIP3      H1            -27.6295266405      -22.4267922861      -17.2079696465  W2        8850            0.0000000000
     26550      8850  TIP3      H2            -28.1373766405      -22.0664322861      -15.8280796465  W2        8850            0.0000000000
     26551      8851  TIP3      OH2           -28.9314466405      -22.1082222861      -14.2045996465  W2        8851            0.0000000000
     26552      8851  TIP3      H1            -28.7846466405      -22.6282422861      -13.4145096465  W2        8851            0.0000000000
     26553      8851  TIP3      H2            -28.9342766405      -21.2014622861      -13.8980096465  W2        8851            0.0000000000
     26554      8852  TIP3      OH2           -32.4783366405      -24.8558922861      -13.6940596465  W2        8852            0.0000000000
     26555      8852  TIP3      H1            -33.1644066405      -24.5036422861      -13.1270896465  W2        8852            0.0000000000
     26556      8852  TIP3      H2            -31.9555466405      -24.0929322861      -13.9406296465  W2        8852            0.0000000000
     26557      8853  TIP3      OH2           -24.6468266405      -32.1935122861       -3.4151596465  W2        8853            0.0000000000
     26558      8853  TIP3      H1            -23.9480366405      -32.1196422861       -2.7651896465  W2        8853            0.0000000000
     26559      8853  TIP3      H2            -25.0276866405      -33.0580122861       -3.2608696465  W2        8853            0.0000000000
     26560      8854  TIP3      OH2           -23.8623366405      -32.5413422861      -12.3179296465  W2        8854            0.0000000000
     26561      8854  TIP3      H1            -23.6425066405      -32.0698022861      -13.1213896465  W2        8854            0.0000000000
     26562      8854  TIP3      H2            -23.3039366405      -32.1470822861      -11.6478696465  W2        8854            0.0000000000
     26563      8855  TIP3      OH2           -26.1937266405      -20.4108622861      -13.4551796465  W2        8855            0.0000000000
     26564      8855  TIP3      H1            -27.0101166405      -19.9138922861      -13.4027496465  W2        8855            0.0000000000
     26565      8855  TIP3      H2            -25.6640966405      -19.9355122861      -14.0952996465  W2        8855            0.0000000000
     26566      8856  TIP3      OH2           -26.6623466405      -30.8134622861      -11.4830896465  W2        8856            0.0000000000
     26567      8856  TIP3      H1            -25.8500866405      -30.3091422861      -11.4369196465  W2        8856            0.0000000000
     26568      8856  TIP3      H2            -26.9070466405      -30.9584922861      -10.5691296465  W2        8856            0.0000000000
     26569      8857  TIP3      OH2           -26.1267066405      -29.8271922861       -2.2984296465  W2        8857            0.0000000000
     26570      8857  TIP3      H1            -26.0076766405      -29.2536522861       -1.5413896465  W2        8857            0.0000000000
     26571      8857  TIP3      H2            -25.4712466405      -30.5152522861       -2.1836496465  W2        8857            0.0000000000
     26572      8858  TIP3      OH2           -25.7786766405      -33.7321622861      -10.5449796465  W2        8858            0.0000000000
     26573      8858  TIP3      H1            -26.1253266405      -33.1151022861       -9.9005496465  W2        8858            0.0000000000
     26574      8858  TIP3      H2            -25.1199866405      -33.2315922861      -11.0264296465  W2        8858            0.0000000000
     26575      8859  TIP3      OH2           -28.8554166405      -19.3671422861      -13.4734896465  W2        8859            0.0000000000
     26576      8859  TIP3      H1            -28.6945466405      -18.5673922861      -13.9742296465  W2        8859            0.0000000000
     26577      8859  TIP3      H2            -29.0526366405      -19.0605422861      -12.5884296465  W2        8859            0.0000000000
     26578      8860  TIP3      OH2           -30.1209766405      -32.6692222861      -13.8577296465  W2        8860            0.0000000000
     26579      8860  TIP3      H1            -30.2044966405      -31.7809122861      -13.5110896465  W2        8860            0.0000000000
     26580      8860  TIP3      H2            -29.2309466405      -32.9345522861      -13.6260496465  W2        8860            0.0000000000
     26581      8861  TIP3      OH2           -19.9221266405      -31.9201622861       -1.4634596465  W2        8861            0.0000000000
     26582      8861  TIP3      H1            -20.8385466405      -31.6579922861       -1.5510896465  W2        8861            0.0000000000
     26583      8861  TIP3      H2            -19.5866266405      -31.9232622861       -2.3599296465  W2        8861            0.0000000000
     26584      8862  TIP3      OH2           -21.3200266405      -28.1700622861       -7.3677296465  W2        8862            0.0000000000
     26585      8862  TIP3      H1            -22.1175866405      -28.5850422861       -7.6962296465  W2        8862            0.0000000000
     26586      8862  TIP3      H2            -20.8749166405      -28.8606922861       -6.8766796465  W2        8862            0.0000000000
     26587      8863  TIP3      OH2           -31.8624466405      -22.2420022861      -14.7972796465  W2        8863            0.0000000000
     26588      8863  TIP3      H1            -31.2702966405      -21.5425222861      -14.5210396465  W2        8863            0.0000000000
     26589      8863  TIP3      H2            -31.4031466405      -22.6750522861      -15.5168196465  W2        8863            0.0000000000
     26590      8864  TIP3      OH2           -33.5465266405      -29.5777022861      -15.6813396465  W2        8864            0.0000000000
     26591      8864  TIP3      H1            -33.5912666405      -28.6383922861      -15.5026396465  W2        8864            0.0000000000
     26592      8864  TIP3      H2            -34.4342066405      -29.8132122861      -15.9511296465  W2        8864            0.0000000000
     26593      8865  TIP3      OH2           -20.2335666405      -18.9138122861       -5.7453796465  W2        8865            0.0000000000
     26594      8865  TIP3      H1            -20.3891366405      -18.2353722861       -6.4024496465  W2        8865            0.0000000000
     26595      8865  TIP3      H2            -19.3009266405      -18.8418822861       -5.5423196465  W2        8865            0.0000000000
     26596      8866  TIP3      OH2           -32.7383266405      -34.7960422861       -7.0082396465  W2        8866            0.0000000000
     26597      8866  TIP3      H1            -32.9673466405      -34.7367922861       -7.9357396465  W2        8866            0.0000000000
     26598      8866  TIP3      H2            -33.1809866405      -35.5874922861       -6.7018296465  W2        8866            0.0000000000
     26599      8867  TIP3      OH2           -33.8079966405      -20.8553322861      -10.8476596465  W2        8867            0.0000000000
     26600      8867  TIP3      H1            -34.6401366405      -20.3830622861      -10.8205196465  W2        8867            0.0000000000
     26601      8867  TIP3      H2            -33.2621666405      -20.3455722861      -11.4463496465  W2        8867            0.0000000000
     26602      8868  TIP3      OH2           -34.5196266405      -18.2429622861        0.4821403535  W2        8868            0.0000000000
     26603      8868  TIP3      H1            -33.9794066405      -18.4595622861        1.2420603535  W2        8868            0.0000000000
     26604      8868  TIP3      H2            -35.0008266405      -19.0483622861        0.2923903535  W2        8868            0.0000000000
     26605      8869  TIP3      OH2           -29.9222866405      -19.3235222861        2.1025603535  W2        8869            0.0000000000
     26606      8869  TIP3      H1            -29.1545666405      -19.7824422861        2.4434803535  W2        8869            0.0000000000
     26607      8869  TIP3      H2            -29.9436666405      -19.5495422861        1.1726803535  W2        8869            0.0000000000
     26608      8870  TIP3      OH2           -25.8303266405      -19.8154622861      -16.5222596465  W2        8870            0.0000000000
     26609      8870  TIP3      H1            -26.4742266405      -20.4466022861      -16.2008896465  W2        8870            0.0000000000
     26610      8870  TIP3      H2            -25.0684966405      -20.3466622861      -16.7539096465  W2        8870            0.0000000000
     26611      8871  TIP3      OH2           -23.3454166405      -20.9434122861        0.8317103535  W2        8871            0.0000000000
     26612      8871  TIP3      H1            -23.6964666405      -21.8001122861        1.0747503535  W2        8871            0.0000000000
     26613      8871  TIP3      H2            -22.6190966405      -20.8007422861        1.4386103535  W2        8871            0.0000000000
     26614      8872  TIP3      OH2           -21.2260366405      -19.9984722861      -16.2884596465  W2        8872            0.0000000000
     26615      8872  TIP3      H1            -20.9429966405      -20.7929522861      -15.8357696465  W2        8872            0.0000000000
     26616      8872  TIP3      H2            -20.4862466405      -19.7653722861      -16.8493496465  W2        8872            0.0000000000
     26617      8873  TIP3      OH2           -34.6126766405      -24.4325522861        1.4365703535  W2        8873            0.0000000000
     26618      8873  TIP3      H1            -34.4686266405      -25.3344822861        1.1502403535  W2        8873            0.0000000000
     26619      8873  TIP3      H2            -35.3849366405      -24.1463422861        0.9488003535  W2        8873            0.0000000000
     26620      8874  TIP3      OH2           -30.2713066405      -24.0889822861      -16.4309696465  W2        8874            0.0000000000
     26621      8874  TIP3      H1            -30.2068966405      -24.8830222861      -15.9003296465  W2        8874            0.0000000000
     26622      8874  TIP3      H2            -29.6183866405      -24.2077022861      -17.1207696465  W2        8874            0.0000000000
     26623      8875  TIP3      OH2           -27.9570666405      -24.4627422861        0.8692103535  W2        8875            0.0000000000
     26624      8875  TIP3      H1            -28.2856866405      -24.1919322861        0.0119503535  W2        8875            0.0000000000
     26625      8875  TIP3      H2            -27.8052466405      -25.4037622861        0.7817103535  W2        8875            0.0000000000
     26626      8876  TIP3      OH2           -24.9189666405      -23.0418122861      -16.6951696465  W2        8876            0.0000000000
     26627      8876  TIP3      H1            -25.1875566405      -22.8616022861      -15.7942796465  W2        8876            0.0000000000
     26628      8876  TIP3      H2            -25.1254066405      -23.9671922861      -16.8265896465  W2        8876            0.0000000000
     26629      8877  TIP3      OH2           -22.2225466405      -24.5470122861       -1.7475596465  W2        8877            0.0000000000
     26630      8877  TIP3      H1            -21.4770666405      -23.9586422861       -1.8671596465  W2        8877            0.0000000000
     26631      8877  TIP3      H2            -22.9798666405      -23.9650422861       -1.6842496465  W2        8877            0.0000000000
     26632      8878  TIP3      OH2           -33.7800266405      -27.2322222861        0.8565003535  W2        8878            0.0000000000
     26633      8878  TIP3      H1            -33.3719066405      -28.0895622861        0.7355603535  W2        8878            0.0000000000
     26634      8878  TIP3      H2            -34.0402666405      -27.2180922861        1.7775303535  W2        8878            0.0000000000
     26635      8879  TIP3      OH2           -29.1219266405      -26.1163622861      -14.1251696465  W2        8879            0.0000000000
     26636      8879  TIP3      H1            -29.5817266405      -26.6005322861      -13.4393196465  W2        8879            0.0000000000
     26637      8879  TIP3      H2            -28.8670566405      -26.7848222861      -14.7611196465  W2        8879            0.0000000000
     26638      8880  TIP3      OH2           -29.8329966405      -28.2236522861       -1.7692096465  W2        8880            0.0000000000
     26639      8880  TIP3      H1            -30.4513866405      -27.5489922861       -1.4887396465  W2        8880            0.0000000000
     26640      8880  TIP3      H2            -29.4888766405      -27.9022622861       -2.6025896465  W2        8880            0.0000000000
     26641      8881  TIP3      OH2           -28.0508866405      -27.8731822861      -15.8628496465  W2        8881            0.0000000000
     26642      8881  TIP3      H1            -28.2313866405      -28.0280622861      -16.7900196465  W2        8881            0.0000000000
     26643      8881  TIP3      H2            -27.1008366405      -27.7653122861      -15.8180596465  W2        8881            0.0000000000
     26644      8882  TIP3      OH2           -24.8131766405      -25.7521222861        1.5082703535  W2        8882            0.0000000000
     26645      8882  TIP3      H1            -23.8600566405      -25.6682122861        1.4808703535  W2        8882            0.0000000000
     26646      8882  TIP3      H2            -24.9737166405      -26.4639422861        2.1277603535  W2        8882            0.0000000000
     26647      8883  TIP3      OH2           -18.6610566405      -25.5187622861      -16.4170396465  W2        8883            0.0000000000
     26648      8883  TIP3      H1            -18.9345766405      -25.9432122861      -17.2302096465  W2        8883            0.0000000000
     26649      8883  TIP3      H2            -18.6216466405      -24.5873122861      -16.6339996465  W2        8883            0.0000000000
     26650      8884  TIP3      OH2           -29.4936266405      -30.8685722861       -0.6868996465  W2        8884            0.0000000000
     26651      8884  TIP3      H1            -29.3435366405      -31.5974422861       -1.2889296465  W2        8884            0.0000000000
     26652      8884  TIP3      H2            -29.4913866405      -30.0914022861       -1.2456796465  W2        8884            0.0000000000
     26653      8885  TIP3      OH2           -29.0810566405      -32.4989922861       -3.1941596465  W2        8885            0.0000000000
     26654      8885  TIP3      H1            -28.5453066405      -32.0473222861       -3.8462296465  W2        8885            0.0000000000
     26655      8885  TIP3      H2            -29.9330966405      -32.6070122861       -3.6167496465  W2        8885            0.0000000000
     26656      8886  TIP3      OH2           -27.4992166405      -27.0593722861       -2.9546396465  W2        8886            0.0000000000
     26657      8886  TIP3      H1            -26.7487366405      -27.2156222861       -3.5278596465  W2        8886            0.0000000000
     26658      8886  TIP3      H2            -27.8383866405      -26.2077122861       -3.2300896465  W2        8886            0.0000000000
     26659      8887  TIP3      OH2           -23.0835966405      -29.2441922861        2.0738903535  W2        8887            0.0000000000
     26660      8887  TIP3      H1            -22.8914666405      -30.1752522861        1.9623403535  W2        8887            0.0000000000
     26661      8887  TIP3      H2            -22.2259666405      -28.8192422861        2.0634303535  W2        8887            0.0000000000
     26662      8888  TIP3      OH2           -21.7668766405      -26.4556722861        0.1511603535  W2        8888            0.0000000000
     26663      8888  TIP3      H1            -22.0483766405      -25.7462122861       -0.4264596465  W2        8888            0.0000000000
     26664      8888  TIP3      H2            -20.8244466405      -26.5283722861        0.0002803535  W2        8888            0.0000000000
     26665      8889  TIP3      OH2           -31.0149966405      -29.6702222861        1.2246603535  W2        8889            0.0000000000
     26666      8889  TIP3      H1            -31.7820966405      -30.2027422861        1.0144203535  W2        8889            0.0000000000
     26667      8889  TIP3      H2            -30.3360966405      -29.9801822861        0.6252903535  W2        8889            0.0000000000
     26668      8890  TIP3      OH2           -28.2755066405      -35.0424222861       -2.7627996465  W2        8890            0.0000000000
     26669      8890  TIP3      H1            -28.3735466405      -34.0961022861       -2.8681796465  W2        8890            0.0000000000
     26670      8890  TIP3      H2            -29.0178866405      -35.4150422861       -3.2384496465  W2        8890            0.0000000000
     26671      8891  TIP3      OH2           -27.0114566405      -30.7208822861        0.8010403535  W2        8891            0.0000000000
     26672      8891  TIP3      H1            -27.2469166405      -30.9402122861        1.7025303535  W2        8891            0.0000000000
     26673      8891  TIP3      H2            -27.7947666405      -30.9277622861        0.2912903535  W2        8891            0.0000000000
     26674      8892  TIP3      OH2           -24.2957966405      -31.5935322861       -0.1236096465  W2        8892            0.0000000000
     26675      8892  TIP3      H1            -25.2432566405      -31.5615622861        0.0087203535  W2        8892            0.0000000000
     26676      8892  TIP3      H2            -23.9831266405      -32.2188222861        0.5302103535  W2        8892            0.0000000000
     26677      8893  TIP3      OH2           -22.6616466405      -32.9594222861        1.8815803535  W2        8893            0.0000000000
     26678      8893  TIP3      H1            -22.7584666405      -33.9116922861        1.8757703535  W2        8893            0.0000000000
     26679      8893  TIP3      H2            -22.9833366405      -32.6907422861        2.7421303535  W2        8893            0.0000000000
     26680      8894  TIP3      OH2           -32.8347166405      -31.7498422861        0.9291303535  W2        8894            0.0000000000
     26681      8894  TIP3      H1            -32.6229766405      -32.4562322861        0.3188803535  W2        8894            0.0000000000
     26682      8894  TIP3      H2            -32.9459666405      -32.1872422861        1.7732503535  W2        8894            0.0000000000
     26683      8895  TIP3      OH2           -28.0536966405      -35.7486822861       -0.0915196465  W2        8895            0.0000000000
     26684      8895  TIP3      H1            -27.3418566405      -36.3884622861       -0.1056096465  W2        8895            0.0000000000
     26685      8895  TIP3      H2            -28.1546566405      -35.4818522861       -1.0052096465  W2        8895            0.0000000000
     26686      8896  TIP3      OH2           -27.6999466405      -34.0658422861        1.9621103535  W2        8896            0.0000000000
     26687      8896  TIP3      H1            -27.8317266405      -34.5414622861        1.1419603535  W2        8896            0.0000000000
     26688      8896  TIP3      H2            -28.2992066405      -33.3214822861        1.9068203535  W2        8896            0.0000000000
     26689      8897  TIP3      OH2           -28.1537166405      -17.1828122861      -14.8614896465  W2        8897            0.0000000000
     26690      8897  TIP3      H1            -27.2206466405      -17.0249422861      -14.7176496465  W2        8897            0.0000000000
     26691      8897  TIP3      H2            -28.4178366405      -16.5075122861      -15.4863396465  W2        8897            0.0000000000
     26692      8898  TIP3      OH2           -34.5852266405      -22.5464322861      -15.3786796465  W2        8898            0.0000000000
     26693      8898  TIP3      H1            -33.6713066405      -22.4675422861      -15.1052896465  W2        8898            0.0000000000
     26694      8898  TIP3      H2            -34.5779166405      -23.2334722861      -16.0451196465  W2        8898            0.0000000000
     26695      8899  TIP3      OH2           -35.9361666405      -17.1535822861      -10.3012896465  W2        8899            0.0000000000
     26696      8899  TIP3      H1            -36.5834566405      -17.6154122861      -10.8341696465  W2        8899            0.0000000000
     26697      8899  TIP3      H2            -35.5817066405      -17.8252522861       -9.7186696465  W2        8899            0.0000000000
     26698      8900  TIP3      OH2           -35.0662466405      -19.0728822861       -8.4966696465  W2        8900            0.0000000000
     26699      8900  TIP3      H1            -35.4005666405      -19.9531522861       -8.3246496465  W2        8900            0.0000000000
     26700      8900  TIP3      H2            -34.8440066405      -18.7273822861       -7.6321096465  W2        8900            0.0000000000
     26701      8901  TIP3      OH2           -17.5177666405      -18.2632422861       -5.5161896465  W2        8901            0.0000000000
     26702      8901  TIP3      H1            -17.5390966405      -18.0784022861       -4.5772496465  W2        8901            0.0000000000
     26703      8901  TIP3      H2            -16.8271466405      -17.6948422861       -5.8570496465  W2        8901            0.0000000000
     26704      8902  TIP3      OH2           -17.9544766405      -18.6961322861       -2.5942796465  W2        8902            0.0000000000
     26705      8902  TIP3      H1            -18.4416066405      -19.4317222861       -2.9655396465  W2        8902            0.0000000000
     26706      8902  TIP3      H2            -17.4052066405      -19.0897422861       -1.9163396465  W2        8902            0.0000000000
     26707      8903  TIP3      OH2           -19.5037466405      -22.9063222861        2.0437503535  W2        8903            0.0000000000
     26708      8903  TIP3      H1            -20.3696366405      -23.0113522861        2.4379803535  W2        8903            0.0000000000
     26709      8903  TIP3      H2            -19.1271566405      -22.1479922861        2.4902203535  W2        8903            0.0000000000
     26710      8904  TIP3      OH2           -18.2027766405      -24.6499522861      -12.4419996465  W2        8904            0.0000000000
     26711      8904  TIP3      H1            -17.3526366405      -24.2288622861      -12.3148396465  W2        8904            0.0000000000
     26712      8904  TIP3      H2            -18.1972666405      -25.3899422861      -11.8348596465  W2        8904            0.0000000000
     26713      8905  TIP3      OH2           -17.8082166405      -26.5962122861      -10.6184296465  W2        8905            0.0000000000
     26714      8905  TIP3      H1            -18.5347566405      -27.0759522861      -10.2206696465  W2        8905            0.0000000000
     26715      8905  TIP3      H2            -17.2268866405      -26.3907422861       -9.8862696465  W2        8905            0.0000000000
     26716      8906  TIP3      OH2           -18.0490966405      -23.8114622861       -5.6706696465  W2        8906            0.0000000000
     26717      8906  TIP3      H1            -17.2156766405      -24.1894622861       -5.9513096465  W2        8906            0.0000000000
     26718      8906  TIP3      H2            -17.9370666405      -22.8683422861       -5.7897596465  W2        8906            0.0000000000
     26719      8907  TIP3      OH2           -19.5628666405      -20.9337122861       -3.3638296465  W2        8907            0.0000000000
     26720      8907  TIP3      H1            -20.2103366405      -20.6085622861       -2.7383096465  W2        8907            0.0000000000
     26721      8907  TIP3      H2            -20.0804666405      -21.3739422861       -4.0379996465  W2        8907            0.0000000000
     26722      8908  TIP3      OH2           -17.5399066405      -26.6953622861      -14.2272996465  W2        8908            0.0000000000
     26723      8908  TIP3      H1            -18.0617966405      -26.3389522861      -14.9462096465  W2        8908            0.0000000000
     26724      8908  TIP3      H2            -17.5729866405      -26.0205822861      -13.5492096465  W2        8908            0.0000000000
     26725      8909  TIP3      OH2           -19.1910066405      -29.4558022861      -15.6765896465  W2        8909            0.0000000000
     26726      8909  TIP3      H1            -19.0945666405      -28.7891022861      -16.3566196465  W2        8909            0.0000000000
     26727      8909  TIP3      H2            -19.3310466405      -30.2711722861      -16.1580396465  W2        8909            0.0000000000
     26728      8910  TIP3      OH2           -20.0215366405      -28.0755622861      -10.0555596465  W2        8910            0.0000000000
     26729      8910  TIP3      H1            -20.1716566405      -29.0207022861      -10.0757796465  W2        8910            0.0000000000
     26730      8910  TIP3      H2            -20.3750866405      -27.7944222861       -9.2116496465  W2        8910            0.0000000000
     26731      8911  TIP3      OH2           -34.9862966405      -25.9973422861       -6.0451796465  W2        8911            0.0000000000
     26732      8911  TIP3      H1            -34.8020066405      -26.0791722861       -6.9808896465  W2        8911            0.0000000000
     26733      8911  TIP3      H2            -34.1370066405      -26.1216422861       -5.6215396465  W2        8911            0.0000000000
     26734      8912  TIP3      OH2           -19.1652466405      -26.1052322861       -0.4167296465  W2        8912            0.0000000000
     26735      8912  TIP3      H1            -18.5825166405      -26.8400022861       -0.2250096465  W2        8912            0.0000000000
     26736      8912  TIP3      H2            -18.6013166405      -25.3332022861       -0.3701496465  W2        8912            0.0000000000
     26737      8913  TIP3      OH2           -17.6685366405      -28.2026522861        0.2678103535  W2        8913            0.0000000000
     26738      8913  TIP3      H1            -18.5318666405      -28.5814422861        0.1022803535  W2        8913            0.0000000000
     26739      8913  TIP3      H2            -17.0641666405      -28.9411722861        0.1933903535  W2        8913            0.0000000000
     26740      8914  TIP3      OH2           -19.9436266405      -32.0478222861      -16.5590396465  W2        8914            0.0000000000
     26741      8914  TIP3      H1            -19.3330466405      -32.4191422861      -15.9222196465  W2        8914            0.0000000000
     26742      8914  TIP3      H2            -20.7804766405      -32.4691322861      -16.3630396465  W2        8914            0.0000000000
     26743      8915  TIP3      OH2           -20.3110566405      -30.4929822861      -11.5930496465  W2        8915            0.0000000000
     26744      8915  TIP3      H1            -20.0313466405      -31.3999422861      -11.4688796465  W2        8915            0.0000000000
     26745      8915  TIP3      H2            -19.5518866405      -30.0588322861      -11.9821296465  W2        8915            0.0000000000
     26746      8916  TIP3      OH2           -19.6992266405      -29.9112422861       -6.1571596465  W2        8916            0.0000000000
     26747      8916  TIP3      H1            -18.7664266405      -29.6992522861       -6.1915596465  W2        8916            0.0000000000
     26748      8916  TIP3      H2            -19.9344766405      -29.8100322861       -5.2348596465  W2        8916            0.0000000000
     26749      8917  TIP3      OH2           -19.6700366405      -29.1747122861       -3.3812196465  W2        8917            0.0000000000
     26750      8917  TIP3      H1            -20.5129066405      -28.9066722861       -3.0152396465  W2        8917            0.0000000000
     26751      8917  TIP3      H2            -19.2276066405      -28.3525222861       -3.5921096465  W2        8917            0.0000000000
     26752      8918  TIP3      OH2           -35.3888166405      -30.7268422861        0.0957003535  W2        8918            0.0000000000
     26753      8918  TIP3      H1            -34.4693266405      -30.8490122861        0.3320103535  W2        8918            0.0000000000
     26754      8918  TIP3      H2            -35.8383666405      -31.4768722861        0.4850503535  W2        8918            0.0000000000
     26755      8919  TIP3      OH2           -17.3868766405      -35.1946922861        1.9722803535  W2        8919            0.0000000000
     26756      8919  TIP3      H1            -17.0371766405      -35.8483422861        1.3667503535  W2        8919            0.0000000000
     26757      8919  TIP3      H2            -17.2399266405      -34.3572822861        1.5325403535  W2        8919            0.0000000000
     26758      8920  TIP3      OH2           -19.6975766405      -33.2300522861      -11.5448496465  W2        8920            0.0000000000
     26759      8920  TIP3      H1            -19.5150766405      -33.6789022861      -10.7193496465  W2        8920            0.0000000000
     26760      8920  TIP3      H2            -20.2972866405      -33.8146122861      -12.0083896465  W2        8920            0.0000000000
     26761      8921  TIP3      OH2           -34.1675666405      -32.4146822861       -7.0130096465  W2        8921            0.0000000000
     26762      8921  TIP3      H1            -33.7224066405      -33.2064322861       -6.7110396465  W2        8921            0.0000000000
     26763      8921  TIP3      H2            -33.7012666405      -31.6981622861       -6.5824496465  W2        8921            0.0000000000
     26764      8922  TIP3      OH2           -35.8635366405      -29.4153822861       -5.9439896465  W2        8922            0.0000000000
     26765      8922  TIP3      H1            -35.3715566405      -29.6363322861       -6.7347896465  W2        8922            0.0000000000
     26766      8922  TIP3      H2            -35.5014466405      -28.5750422861       -5.6630396465  W2        8922            0.0000000000
     26767      8923  TIP3      OH2           -17.8671566405      -33.0852322861        0.3214103535  W2        8923            0.0000000000
     26768      8923  TIP3      H1            -18.7845866405      -32.8145222861        0.2857603535  W2        8923            0.0000000000
     26769      8923  TIP3      H2            -17.7442166405      -33.6203922861       -0.4626196465  W2        8923            0.0000000000
     26770      8924  TIP3      OH2           -17.8309566405      -33.1622422861      -15.0168196465  W2        8924            0.0000000000
     26771      8924  TIP3      H1            -17.4186966405      -33.8836722861      -15.4920196465  W2        8924            0.0000000000
     26772      8924  TIP3      H2            -17.1493066405      -32.4927822861      -14.9583896465  W2        8924            0.0000000000
     26773      8925  TIP3      OH2           -35.5498866405      -33.1574722861      -11.8897496465  W2        8925            0.0000000000
     26774      8925  TIP3      H1            -36.4750466405      -32.9488122861      -12.0191996465  W2        8925            0.0000000000
     26775      8925  TIP3      H2            -35.0958966405      -32.6733922861      -12.5795196465  W2        8925            0.0000000000
     26776      8926  TIP3      OH2           -20.7791666405      -18.1733022861       -9.9440096465  W2        8926            0.0000000000
     26777      8926  TIP3      H1            -20.1268766405      -18.5210922861      -10.5520996465  W2        8926            0.0000000000
     26778      8926  TIP3      H2            -20.2687866405      -17.6849822861       -9.2980396465  W2        8926            0.0000000000
     26779      8927  TIP3      OH2           -35.5863466405      -34.4195722861       -3.5454996465  W2        8927            0.0000000000
     26780      8927  TIP3      H1            -36.2512966405      -34.6655422861       -2.9024096465  W2        8927            0.0000000000
     26781      8927  TIP3      H2            -36.0292166405      -33.7975322861       -4.1226996465  W2        8927            0.0000000000
     26782      8928  TIP3      OH2           -33.3944166405      -21.2441622861        0.5990803535  W2        8928            0.0000000000
     26783      8928  TIP3      H1            -34.2151666405      -21.0695122861        0.1385503535  W2        8928            0.0000000000
     26784      8928  TIP3      H2            -33.6466366405      -21.3176922861        1.5195203535  W2        8928            0.0000000000
     26785      8929  TIP3      OH2           -30.4401266405      -20.2700422861       -3.1425196465  W2        8929            0.0000000000
     26786      8929  TIP3      H1            -30.8650166405      -19.4601922861       -3.4250596465  W2        8929            0.0000000000
     26787      8929  TIP3      H2            -29.5358466405      -20.1846322861       -3.4445396465  W2        8929            0.0000000000
     26788      8930  TIP3      OH2           -26.1289866405      -18.8710422861       -0.1831496465  W2        8930            0.0000000000
     26789      8930  TIP3      H1            -25.9442366405      -19.2044322861        0.6948803535  W2        8930            0.0000000000
     26790      8930  TIP3      H2            -25.2825366405      -18.5611822861       -0.5052296465  W2        8930            0.0000000000
     26791      8931  TIP3      OH2           -23.7839466405      -17.5851522861       -0.9390096465  W2        8931            0.0000000000
     26792      8931  TIP3      H1            -23.1070566405      -18.2179222861       -1.1790896465  W2        8931            0.0000000000
     26793      8931  TIP3      H2            -23.4620666405      -17.1841022861       -0.1316796465  W2        8931            0.0000000000
     26794      8932  TIP3      OH2           -18.8665666405      -34.9956022861       -1.8595096465  W2        8932            0.0000000000
     26795      8932  TIP3      H1            -19.6792166405      -34.6705722861       -2.2470396465  W2        8932            0.0000000000
     26796      8932  TIP3      H2            -18.6337166405      -35.7557522861       -2.3925996465  W2        8932            0.0000000000
     26797      8933  TIP3      OH2           -33.0384566405      -17.0136522861       -3.0949896465  W2        8933            0.0000000000
     26798      8933  TIP3      H1            -33.7588166405      -16.5735522861       -3.5462196465  W2        8933            0.0000000000
     26799      8933  TIP3      H2            -33.4040566405      -17.2641822861       -2.2465896465  W2        8933            0.0000000000
     26800      8934  TIP3      OH2           -30.5711966405      -17.4132622861       -4.0652696465  W2        8934            0.0000000000
     26801      8934  TIP3      H1            -31.4359766405      -17.3414122861       -3.6612596465  W2        8934            0.0000000000
     26802      8934  TIP3      H2            -30.6262966405      -16.8665322861       -4.8490196465  W2        8934            0.0000000000
     26803      8935  TIP3      OH2           -25.8606366405      -17.5253722861       -4.8896696465  W2        8935            0.0000000000
     26804      8935  TIP3      H1            -26.3172366405      -16.9964022861       -5.5438296465  W2        8935            0.0000000000
     26805      8935  TIP3      H2            -25.6978366405      -16.9222322861       -4.1644396465  W2        8935            0.0000000000
     26806      8936  TIP3      OH2           -23.5330066405      -18.6474122861       -3.9446396465  W2        8936            0.0000000000
     26807      8936  TIP3      H1            -24.4376366405      -18.4823922861       -4.2104296465  W2        8936            0.0000000000
     26808      8936  TIP3      H2            -23.1041466405      -17.7941922861       -4.0102996465  W2        8936            0.0000000000
     26809      8937  TIP3      OH2           -20.9288166405      -17.0775022861       -3.6498596465  W2        8937            0.0000000000
     26810      8937  TIP3      H1            -21.1106166405      -16.1616122861       -3.8603696465  W2        8937            0.0000000000
     26811      8937  TIP3      H2            -20.7520366405      -17.4877922861       -4.4963996465  W2        8937            0.0000000000
     26812      8938  TIP3      OH2           -33.6236466405      -18.3904022861       -6.1848096465  W2        8938            0.0000000000
     26813      8938  TIP3      H1            -33.6420466405      -18.8158922861       -5.3275796465  W2        8938            0.0000000000
     26814      8938  TIP3      H2            -32.8188566405      -18.7089022861       -6.5935896465  W2        8938            0.0000000000
     26815      8939  TIP3      OH2           -31.4823366405      -19.6805322861       -7.5298196465  W2        8939            0.0000000000
     26816      8939  TIP3      H1            -31.7012666405      -20.5967922861       -7.3602196465  W2        8939            0.0000000000
     26817      8939  TIP3      H2            -30.6581166405      -19.5404922861       -7.0636796465  W2        8939            0.0000000000
     26818      8940  TIP3      OH2           -28.9450866405      -19.2106022861       -6.6810196465  W2        8940            0.0000000000
     26819      8940  TIP3      H1            -28.7325166405      -20.0987022861       -6.9679296465  W2        8940            0.0000000000
     26820      8940  TIP3      H2            -28.8805766405      -19.2448322861       -5.7266196465  W2        8940            0.0000000000
     26821      8941  TIP3      OH2           -25.4367166405      -33.5465422861       -7.5366896465  W2        8941            0.0000000000
     26822      8941  TIP3      H1            -26.1110366405      -34.1759822861       -7.2811096465  W2        8941            0.0000000000
     26823      8941  TIP3      H2            -24.8727966405      -34.0306522861       -8.1398996465  W2        8941            0.0000000000
     26824      8942  TIP3      OH2           -20.2939966405      -35.4391422861       -7.4239796465  W2        8942            0.0000000000
     26825      8942  TIP3      H1            -19.6902366405      -34.8916022861       -7.9258796465  W2        8942            0.0000000000
     26826      8942  TIP3      H2            -21.1637966405      -35.1201022861       -7.6645696465  W2        8942            0.0000000000
     26827      8943  TIP3      OH2           -18.5669566405      -34.3002722861       -9.0908896465  W2        8943            0.0000000000
     26828      8943  TIP3      H1            -17.9552066405      -34.8147022861       -9.6175296465  W2        8943            0.0000000000
     26829      8943  TIP3      H2            -18.1846166405      -33.4230622861       -9.0674496465  W2        8943            0.0000000000
     26830      8944  TIP3      OH2           -33.1099666405      -34.9125122861       -9.7146996465  W2        8944            0.0000000000
     26831      8944  TIP3      H1            -33.8869866405      -35.1470222861      -10.2221096465  W2        8944            0.0000000000
     26832      8944  TIP3      H2            -32.5796066405      -35.7093022861       -9.7058996465  W2        8944            0.0000000000
     26833      8945  TIP3      OH2           -34.2736266405      -35.1147022861      -13.9110896465  W2        8945            0.0000000000
     26834      8945  TIP3      H1            -33.8345566405      -34.5036522861      -14.5027396465  W2        8945            0.0000000000
     26835      8945  TIP3      H2            -34.9073866405      -34.5762922861      -13.4370896465  W2        8945            0.0000000000
     26836      8946  TIP3      OH2           -28.5307066405      -34.9858022861       -9.9013896465  W2        8946            0.0000000000
     26837      8946  TIP3      H1            -27.6563666405      -34.5973722861       -9.9309596465  W2        8946            0.0000000000
     26838      8946  TIP3      H2            -28.6666266405      -35.2010222861       -8.9786696465  W2        8946            0.0000000000
     26839      8947  TIP3      OH2           -22.9738666405      -34.9558222861       -8.2522196465  W2        8947            0.0000000000
     26840      8947  TIP3      H1            -22.8977066405      -34.8606622861       -9.2016196465  W2        8947            0.0000000000
     26841      8947  TIP3      H2            -23.2489466405      -35.8635322861       -8.1233096465  W2        8947            0.0000000000
     26842      8948  TIP3      OH2           -21.6206066405      -34.9300422861      -12.5597196465  W2        8948            0.0000000000
     26843      8948  TIP3      H1            -22.3234966405      -34.3151222861      -12.7695796465  W2        8948            0.0000000000
     26844      8948  TIP3      H2            -22.0654666405      -35.7673722861      -12.4286296465  W2        8948            0.0000000000
     26845      8949  TIP3      OH2           -34.3726766405      -19.1664822861      -13.0135796465  W2        8949            0.0000000000
     26846      8949  TIP3      H1            -35.0576866405      -19.2045922861      -13.6810696465  W2        8949            0.0000000000
     26847      8949  TIP3      H2            -34.3689566405      -18.2537222861      -12.7253696465  W2        8949            0.0000000000
     26848      8950  TIP3      OH2           -32.4127166405      -33.1985522861      -15.4686796465  W2        8950            0.0000000000
     26849      8950  TIP3      H1            -31.9213766405      -33.8283122861      -15.9961296465  W2        8950            0.0000000000
     26850      8950  TIP3      H2            -31.7890866405      -32.9026122861      -14.8055596465  W2        8950            0.0000000000
     26851      8951  TIP3      OH2           -27.3867066405      -32.9054022861      -13.0116296465  W2        8951            0.0000000000
     26852      8951  TIP3      H1            -27.2085766405      -33.5520822861      -12.3287696465  W2        8951            0.0000000000
     26853      8951  TIP3      H2            -27.4400866405      -32.0716322861      -12.5445196465  W2        8951            0.0000000000
     26854      8952  TIP3      OH2           -25.5083266405      -17.9569922861      -14.6159596465  W2        8952            0.0000000000
     26855      8952  TIP3      H1            -24.6423066405      -17.5902522861      -14.7941396465  W2        8952            0.0000000000
     26856      8952  TIP3      H2            -25.7550466405      -18.3961922861      -15.4298796465  W2        8952            0.0000000000
     26857      8953  TIP3      OH2           -18.7993666405      -18.3939622861      -11.9368496465  W2        8953            0.0000000000
     26858      8953  TIP3      H1            -18.9936566405      -19.1417522861      -12.5018896465  W2        8953            0.0000000000
     26859      8953  TIP3      H2            -18.8383566405      -17.6359522861      -12.5200596465  W2        8953            0.0000000000
     26860      8954  TIP3      OH2           -33.1521666405      -34.3983222861       -0.1970796465  W2        8954            0.0000000000
     26861      8954  TIP3      H1            -33.5183466405      -35.1640622861        0.2453903535  W2        8954            0.0000000000
     26862      8954  TIP3      H2            -32.2393166405      -34.3693022861        0.0894303535  W2        8954            0.0000000000
     26863      8955  TIP3      OH2           -31.1790866405      -35.0478822861        1.3386303535  W2        8955            0.0000000000
     26864      8955  TIP3      H1            -30.2807266405      -35.3218622861        1.1539703535  W2        8955            0.0000000000
     26865      8955  TIP3      H2            -31.5657766405      -35.7902822861        1.8028903535  W2        8955            0.0000000000
     26866      8956  TIP3      OH2           -32.5545566405      -18.2464022861      -15.9883696465  W2        8956            0.0000000000
     26867      8956  TIP3      H1            -32.8220966405      -17.9601122861      -15.1150596465  W2        8956            0.0000000000
     26868      8956  TIP3      H2            -31.7832966405      -18.7924822861      -15.8361196465  W2        8956            0.0000000000
     26869      8957  TIP3      OH2           -22.7578566405      -35.7153522861        1.5209103535  W2        8957            0.0000000000
     26870      8957  TIP3      H1            -22.6811366405      -36.1412822861        2.3746803535  W2        8957            0.0000000000
     26871      8957  TIP3      H2            -21.8641966405      -35.7018822861        1.1782603535  W2        8957            0.0000000000
     26872      8958  TIP3      OH2           -19.5817466405      -19.6427222861        0.2133303535  W2        8958            0.0000000000
     26873      8958  TIP3      H1            -20.3635566405      -19.8289222861       -0.3066096465  W2        8958            0.0000000000
     26874      8958  TIP3      H2            -19.6537566405      -18.7132922861        0.4305803535  W2        8958            0.0000000000
     26875      8959  TIP3      OH2            -5.1757066405      -25.7562822861       -9.7559496465  W2        8959            0.0000000000
     26876      8959  TIP3      H1             -5.0865966405      -24.8124622861       -9.8882396465  W2        8959            0.0000000000
     26877      8959  TIP3      H2             -5.8139466405      -26.0316422861      -10.4140096465  W2        8959            0.0000000000
     26878      8960  TIP3      OH2            -6.2425766405      -26.5012122861       -6.3371296465  W2        8960            0.0000000000
     26879      8960  TIP3      H1             -6.2808266405      -27.1475822861       -5.6321696465  W2        8960            0.0000000000
     26880      8960  TIP3      H2             -6.5649266405      -26.9677722861       -7.1082596465  W2        8960            0.0000000000
     26881      8961  TIP3      OH2           -13.8740766405      -26.8870022861       -4.7441396465  W2        8961            0.0000000000
     26882      8961  TIP3      H1            -13.8328666405      -27.5126722861       -4.0208996465  W2        8961            0.0000000000
     26883      8961  TIP3      H2            -13.1713066405      -26.2631422861       -4.5620996465  W2        8961            0.0000000000
     26884      8962  TIP3      OH2            -2.5365566405      -23.5621722861       -8.0356196465  W2        8962            0.0000000000
     26885      8962  TIP3      H1             -2.9772866405      -24.2825722861       -7.5850596465  W2        8962            0.0000000000
     26886      8962  TIP3      H2             -2.5495866405      -22.8414522861       -7.4058496465  W2        8962            0.0000000000
     26887      8963  TIP3      OH2           -12.9507666405      -22.4371122861       -6.2092296465  W2        8963            0.0000000000
     26888      8963  TIP3      H1            -13.3202466405      -23.2390622861       -6.5787996465  W2        8963            0.0000000000
     26889      8963  TIP3      H2            -12.0096566405      -22.6056222861       -6.1628896465  W2        8963            0.0000000000
     26890      8964  TIP3      OH2           -16.3407166405      -28.7768522861      -10.8163496465  W2        8964            0.0000000000
     26891      8964  TIP3      H1            -16.7883766405      -27.9309822861      -10.8346996465  W2        8964            0.0000000000
     26892      8964  TIP3      H2            -16.9015966405      -29.3564322861      -11.3318396465  W2        8964            0.0000000000
     26893      8965  TIP3      OH2           -15.6301066405      -26.6148922861       -8.6905496465  W2        8965            0.0000000000
     26894      8965  TIP3      H1            -15.4167566405      -27.3847322861       -8.1632496465  W2        8965            0.0000000000
     26895      8965  TIP3      H2            -14.8923466405      -26.5252222861       -9.2937896465  W2        8965            0.0000000000
     26896      8966  TIP3      OH2            -5.4250066405      -18.4580022861       -7.8235796465  W2        8966            0.0000000000
     26897      8966  TIP3      H1             -4.8053666405      -19.1345322861       -8.0966596465  W2        8966            0.0000000000
     26898      8966  TIP3      H2             -5.6332666405      -18.6759222861       -6.9150896465  W2        8966            0.0000000000
     26899      8967  TIP3      OH2            -7.8531366405      -24.0690722861       -5.9310296465  W2        8967            0.0000000000
     26900      8967  TIP3      H1             -7.5493466405      -24.7549322861       -6.5256196465  W2        8967            0.0000000000
     26901      8967  TIP3      H2             -7.1317366405      -23.9502022861       -5.3132296465  W2        8967            0.0000000000
     26902      8968  TIP3      OH2             0.8098433595      -32.4675422861       -5.0704096465  W2        8968            0.0000000000
     26903      8968  TIP3      H1              0.8590633595      -31.8574222861       -4.3344996465  W2        8968            0.0000000000
     26904      8968  TIP3      H2              1.2353533595      -32.0064522861       -5.7932996465  W2        8968            0.0000000000
     26905      8969  TIP3      OH2            -4.7124366405      -29.6748322861       -5.6035496465  W2        8969            0.0000000000
     26906      8969  TIP3      H1             -4.5698466405      -30.6211322861       -5.5833896465  W2        8969            0.0000000000
     26907      8969  TIP3      H2             -4.8185366405      -29.4678522861       -6.5320596465  W2        8969            0.0000000000
     26908      8970  TIP3      OH2           -11.5576066405      -31.5731922861       -8.3310696465  W2        8970            0.0000000000
     26909      8970  TIP3      H1            -11.5144966405      -30.7133422861       -8.7494396465  W2        8970            0.0000000000
     26910      8970  TIP3      H2            -12.0151966405      -32.1257222861       -8.9647496465  W2        8970            0.0000000000
     26911      8971  TIP3      OH2            -3.8353366405      -31.4426322861       -9.9302396465  W2        8971            0.0000000000
     26912      8971  TIP3      H1             -3.1889066405      -31.7713122861       -9.3054796465  W2        8971            0.0000000000
     26913      8971  TIP3      H2             -3.3253966405      -30.9247322861      -10.5530996465  W2        8971            0.0000000000
     26914      8972  TIP3      OH2           -14.9374566405      -29.1766122861       -7.5689296465  W2        8972            0.0000000000
     26915      8972  TIP3      H1            -14.2837966405      -29.7264422861       -7.1369196465  W2        8972            0.0000000000
     26916      8972  TIP3      H2            -14.9135266405      -29.4507122861       -8.4857296465  W2        8972            0.0000000000
     26917      8973  TIP3      OH2            -9.7810066405      -27.6264822861       -8.3537796465  W2        8973            0.0000000000
     26918      8973  TIP3      H1             -9.1649066405      -28.1529422861       -7.8443796465  W2        8973            0.0000000000
     26919      8973  TIP3      H2            -10.3671266405      -28.2666122861       -8.7574196465  W2        8973            0.0000000000
     26920      8974  TIP3      OH2             1.2013033595      -30.9896222861       -2.8344296465  W2        8974            0.0000000000
     26921      8974  TIP3      H1              0.5127633595      -30.3315522861       -2.9297696465  W2        8974            0.0000000000
     26922      8974  TIP3      H2              1.2167633595      -31.1868322861       -1.8978896465  W2        8974            0.0000000000
     26923      8975  TIP3      OH2           -12.7474166405      -32.6553522861       -4.2569896465  W2        8975            0.0000000000
     26924      8975  TIP3      H1            -12.9662466405      -32.1252922861       -5.0233896465  W2        8975            0.0000000000
     26925      8975  TIP3      H2            -13.4153266405      -32.4288022861       -3.6098496465  W2        8975            0.0000000000
     26926      8976  TIP3      OH2            -5.3784366405      -23.1552422861      -10.7130796465  W2        8976            0.0000000000
     26927      8976  TIP3      H1             -5.6739266405      -23.4780122861      -11.5643896465  W2        8976            0.0000000000
     26928      8976  TIP3      H2             -5.7026566405      -22.2555722861      -10.6718196465  W2        8976            0.0000000000
     26929      8977  TIP3      OH2           -10.1782766405      -24.9797822861       -3.9696196465  W2        8977            0.0000000000
     26930      8977  TIP3      H1            -10.9183666405      -24.3816322861       -3.8660996465  W2        8977            0.0000000000
     26931      8977  TIP3      H2             -9.4643266405      -24.4258222861       -4.2852596465  W2        8977            0.0000000000
     26932      8978  TIP3      OH2            -2.0714966405      -32.1517022861       -7.9496496465  W2        8978            0.0000000000
     26933      8978  TIP3      H1             -2.2866966405      -32.9173622861       -7.4170496465  W2        8978            0.0000000000
     26934      8978  TIP3      H2             -1.4157566405      -31.6792422861       -7.4367996465  W2        8978            0.0000000000
     26935      8979  TIP3      OH2           -13.1536866405      -30.7631722861       -6.3047696465  W2        8979            0.0000000000
     26936      8979  TIP3      H1            -12.5400566405      -30.1304122861       -5.9315296465  W2        8979            0.0000000000
     26937      8979  TIP3      H2            -12.6416166405      -31.2356722861       -6.9610796465  W2        8979            0.0000000000
     26938      8980  TIP3      OH2           -11.7708466405      -23.0154822861       -3.1824696465  W2        8980            0.0000000000
     26939      8980  TIP3      H1            -11.7760866405      -22.1361322861       -3.5605396465  W2        8980            0.0000000000
     26940      8980  TIP3      H2            -12.6244366405      -23.0990722861       -2.7574796465  W2        8980            0.0000000000
     26941      8981  TIP3      OH2           -15.6497566405      -23.3446922861      -12.4005396465  W2        8981            0.0000000000
     26942      8981  TIP3      H1            -15.9216666405      -23.1155922861      -13.2892496465  W2        8981            0.0000000000
     26943      8981  TIP3      H2            -15.6041866405      -22.5068122861      -11.9400096465  W2        8981            0.0000000000
     26944      8982  TIP3      OH2            -2.0247866405      -21.7231022861       -5.6876896465  W2        8982            0.0000000000
     26945      8982  TIP3      H1             -2.9664166405      -21.6647122861       -5.5259996465  W2        8982            0.0000000000
     26946      8982  TIP3      H2             -1.7481766405      -20.8170522861       -5.8247196465  W2        8982            0.0000000000
     26947      8983  TIP3      OH2            -1.7240866405      -33.4365722861       -4.2702996465  W2        8983            0.0000000000
     26948      8983  TIP3      H1             -2.4601666405      -32.8258622861       -4.3081696465  W2        8983            0.0000000000
     26949      8983  TIP3      H2             -1.0406866405      -33.0216722861       -4.7966596465  W2        8983            0.0000000000
     26950      8984  TIP3      OH2            -8.7209466405      -35.3498422861       -6.8044996465  W2        8984            0.0000000000
     26951      8984  TIP3      H1             -8.8385266405      -36.2982422861       -6.8586696465  W2        8984            0.0000000000
     26952      8984  TIP3      H2             -9.5759366405      -35.0172322861       -6.5313896465  W2        8984            0.0000000000
     26953      8985  TIP3      OH2            -3.7726666405      -19.9417522861       -9.0625296465  W2        8985            0.0000000000
     26954      8985  TIP3      H1             -3.3474366405      -20.6489622861       -9.5475696465  W2        8985            0.0000000000
     26955      8985  TIP3      H2             -3.4556666405      -19.1404822861       -9.4793096465  W2        8985            0.0000000000
     26956      8986  TIP3      OH2            -2.6130166405      -22.0409022861      -10.5538696465  W2        8986            0.0000000000
     26957      8986  TIP3      H1             -2.8705366405      -22.7308922861      -11.1652796465  W2        8986            0.0000000000
     26958      8986  TIP3      H2             -2.5419366405      -22.4837822861       -9.7082796465  W2        8986            0.0000000000
     26959      8987  TIP3      OH2            -0.9269966405      -23.4742322861       -2.0765196465  W2        8987            0.0000000000
     26960      8987  TIP3      H1             -0.7873666405      -24.0659822861       -2.8158196465  W2        8987            0.0000000000
     26961      8987  TIP3      H2             -0.7597166405      -22.6016422861       -2.4326396465  W2        8987            0.0000000000
     26962      8988  TIP3      OH2            -6.4544566405      -26.5122822861      -12.3039196465  W2        8988            0.0000000000
     26963      8988  TIP3      H1             -7.1659066405      -25.9773122861      -12.6558696465  W2        8988            0.0000000000
     26964      8988  TIP3      H2             -5.7634966405      -26.4570722861      -12.9640296465  W2        8988            0.0000000000
     26965      8989  TIP3      OH2            -6.4005366405      -28.0548522861      -15.2654196465  W2        8989            0.0000000000
     26966      8989  TIP3      H1             -5.6995466405      -28.0321622861      -14.6140196465  W2        8989            0.0000000000
     26967      8989  TIP3      H2             -6.0982466405      -28.6828822861      -15.9214896465  W2        8989            0.0000000000
     26968      8990  TIP3      OH2             0.9149333595      -27.1344322861       -4.0104796465  W2        8990            0.0000000000
     26969      8990  TIP3      H1              0.2623433595      -26.4398722861       -3.9213896465  W2        8990            0.0000000000
     26970      8990  TIP3      H2              1.3799633595      -26.9243422861       -4.8203196465  W2        8990            0.0000000000
     26971      8991  TIP3      OH2            -3.0486866405      -26.3029522861      -11.3523296465  W2        8991            0.0000000000
     26972      8991  TIP3      H1             -3.7805866405      -26.0745822861      -10.7792696465  W2        8991            0.0000000000
     26973      8991  TIP3      H2             -2.6014666405      -27.0166822861      -10.8975796465  W2        8991            0.0000000000
     26974      8992  TIP3      OH2            -3.1513366405      -28.1286922861       -2.2846296465  W2        8992            0.0000000000
     26975      8992  TIP3      H1             -3.0714266405      -27.3652522861       -1.7127796465  W2        8992            0.0000000000
     26976      8992  TIP3      H2             -3.7525666405      -27.8494522861       -2.9751196465  W2        8992            0.0000000000
     26977      8993  TIP3      OH2           -11.4033166405      -25.6723322861       -9.4698296465  W2        8993            0.0000000000
     26978      8993  TIP3      H1            -11.7337966405      -26.0429922861      -10.2881296465  W2        8993            0.0000000000
     26979      8993  TIP3      H2            -10.8149066405      -26.3429322861       -9.1229996465  W2        8993            0.0000000000
     26980      8994  TIP3      OH2           -10.0365666405      -22.2442722861       -6.7886096465  W2        8994            0.0000000000
     26981      8994  TIP3      H1            -10.1314366405      -22.8229622861       -7.5451496465  W2        8994            0.0000000000
     26982      8994  TIP3      H2             -9.3072066405      -22.6157022861       -6.2923296465  W2        8994            0.0000000000
     26983      8995  TIP3      OH2           -11.0367666405      -26.9037722861       -5.8363296465  W2        8995            0.0000000000
     26984      8995  TIP3      H1            -10.4715166405      -26.7823522861       -6.5992096465  W2        8995            0.0000000000
     26985      8995  TIP3      H2            -10.7178766405      -26.2662722861       -5.1974796465  W2        8995            0.0000000000
     26986      8996  TIP3      OH2            -4.7275466405      -21.4005822861       -5.1022796465  W2        8996            0.0000000000
     26987      8996  TIP3      H1             -4.9678866405      -20.7382722861       -4.4543596465  W2        8996            0.0000000000
     26988      8996  TIP3      H2             -4.9257266405      -22.2350622861       -4.6773196465  W2        8996            0.0000000000
     26989      8997  TIP3      OH2           -10.1566966405      -22.5045022861       -1.1191396465  W2        8997            0.0000000000
     26990      8997  TIP3      H1            -10.4679466405      -21.7221822861       -0.6638196465  W2        8997            0.0000000000
     26991      8997  TIP3      H2            -10.8066766405      -22.6575922861       -1.8049396465  W2        8997            0.0000000000
     26992      8998  TIP3      OH2            -4.1777366405      -27.1406622861      -13.6672096465  W2        8998            0.0000000000
     26993      8998  TIP3      H1             -3.5981866405      -26.9906322861      -12.9203196465  W2        8998            0.0000000000
     26994      8998  TIP3      H2             -3.7637366405      -26.6699222861      -14.3905696465  W2        8998            0.0000000000
     26995      8999  TIP3      OH2           -13.2367066405      -26.3063922861       -1.8905696465  W2        8999            0.0000000000
     26996      8999  TIP3      H1            -13.1663866405      -25.6557122861       -1.1920696465  W2        8999            0.0000000000
     26997      8999  TIP3      H2            -14.1274866405      -26.2036422861       -2.2254796465  W2        8999            0.0000000000
     26998      9000  TIP3      OH2            -6.4512466405      -20.4038122861      -10.2318996465  W2        9000            0.0000000000
     26999      9000  TIP3      H1             -5.9774866405      -20.1081822861       -9.4544796465  W2        9000            0.0000000000
     27000      9000  TIP3      H2             -7.0143166405      -19.6656522861      -10.4649396465  W2        9000            0.0000000000
     27001      9001  TIP3      OH2           -11.9171066405      -20.4330022861       -0.3557596465  W2        9001            0.0000000000
     27002      9001  TIP3      H1            -11.9095766405      -20.5690322861       -1.3032096465  W2        9001            0.0000000000
     27003      9001  TIP3      H2            -12.8330666405      -20.5501922861       -0.1037596465  W2        9001            0.0000000000
     27004      9002  TIP3      OH2            -0.4788966405      -35.3906222861      -13.8542396465  W2        9002            0.0000000000
     27005      9002  TIP3      H1             -1.3788266405      -35.2517222861      -13.5591796465  W2        9002            0.0000000000
     27006      9002  TIP3      H2             -0.2270566405      -34.5591622861      -14.2560696465  W2        9002            0.0000000000
     27007      9003  TIP3      OH2           -12.4130466405      -26.6029022861      -11.8805496465  W2        9003            0.0000000000
     27008      9003  TIP3      H1            -12.7049166405      -25.8347322861      -12.3714196465  W2        9003            0.0000000000
     27009      9003  TIP3      H2            -13.0875266405      -27.2622822861      -12.0434096465  W2        9003            0.0000000000
     27010      9004  TIP3      OH2             0.7102433595      -21.0243822861      -15.4778496465  W2        9004            0.0000000000
     27011      9004  TIP3      H1              0.7835933595      -20.0853622861      -15.3073196465  W2        9004            0.0000000000
     27012      9004  TIP3      H2              1.6157533595      -21.3295222861      -15.5341196465  W2        9004            0.0000000000
     27013      9005  TIP3      OH2           -16.3200366405      -24.2399822861       -3.0655696465  W2        9005            0.0000000000
     27014      9005  TIP3      H1            -16.8211966405      -24.2680422861       -3.8805996465  W2        9005            0.0000000000
     27015      9005  TIP3      H2            -16.3146666405      -25.1456622861       -2.7558396465  W2        9005            0.0000000000
     27016      9006  TIP3      OH2           -16.5697666405      -21.4596022861       -6.1815496465  W2        9006            0.0000000000
     27017      9006  TIP3      H1            -15.6237066405      -21.6039022861       -6.2005996465  W2        9006            0.0000000000
     27018      9006  TIP3      H2            -16.6821366405      -20.6753222861       -5.6444296465  W2        9006            0.0000000000
     27019      9007  TIP3      OH2             1.6280833595      -20.7936322861       -0.4991796465  W2        9007            0.0000000000
     27020      9007  TIP3      H1              1.5787633595      -21.7488222861       -0.5364196465  W2        9007            0.0000000000
     27021      9007  TIP3      H2              0.8013133595      -20.5261022861       -0.0977996465  W2        9007            0.0000000000
     27022      9008  TIP3      OH2            -7.3935166405      -21.2197122861       -1.6230396465  W2        9008            0.0000000000
     27023      9008  TIP3      H1             -7.3060566405      -20.3932522861       -1.1481296465  W2        9008            0.0000000000
     27024      9008  TIP3      H2             -8.2570066405      -21.5493322861       -1.3741096465  W2        9008            0.0000000000
     27025      9009  TIP3      OH2            -6.9789366405      -17.4473422861      -11.8169796465  W2        9009            0.0000000000
     27026      9009  TIP3      H1             -7.0543366405      -17.5686222861      -12.7634596465  W2        9009            0.0000000000
     27027      9009  TIP3      H2             -6.9460666405      -16.4980722861      -11.6985196465  W2        9009            0.0000000000
     27028      9010  TIP3      OH2           -13.3255566405      -18.6586422861      -10.0360796465  W2        9010            0.0000000000
     27029      9010  TIP3      H1            -13.1735166405      -19.0066022861       -9.1574296465  W2        9010            0.0000000000
     27030      9010  TIP3      H2            -14.1765166405      -19.0149122861      -10.2913596465  W2        9010            0.0000000000
     27031      9011  TIP3      OH2            -3.8773366405      -18.2933222861      -14.8147396465  W2        9011            0.0000000000
     27032      9011  TIP3      H1             -3.5024966405      -19.0377122861      -15.2854796465  W2        9011            0.0000000000
     27033      9011  TIP3      H2             -3.8729666405      -18.5632622861      -13.8964096465  W2        9011            0.0000000000
     27034      9012  TIP3      OH2            -4.2085266405      -18.3676122861      -12.0655196465  W2        9012            0.0000000000
     27035      9012  TIP3      H1             -5.1435466405      -18.2674222861      -11.8868196465  W2        9012            0.0000000000
     27036      9012  TIP3      H2             -3.9283366405      -19.0770122861      -11.4871996465  W2        9012            0.0000000000
     27037      9013  TIP3      OH2            -1.2199366405      -29.3003822861       -0.0189596465  W2        9013            0.0000000000
     27038      9013  TIP3      H1             -1.6272566405      -28.8198222861       -0.7396296465  W2        9013            0.0000000000
     27039      9013  TIP3      H2             -1.1793666405      -30.2057822861       -0.3268796465  W2        9013            0.0000000000
     27040      9014  TIP3      OH2           -14.0709866405      -22.9164422861       -2.0222896465  W2        9014            0.0000000000
     27041      9014  TIP3      H1            -13.8548566405      -23.2778822861       -1.1627096465  W2        9014            0.0000000000
     27042      9014  TIP3      H2            -14.9265166405      -23.2910622861       -2.2319396465  W2        9014            0.0000000000
     27043      9015  TIP3      OH2           -11.4521866405      -34.4463922861       -6.0268696465  W2        9015            0.0000000000
     27044      9015  TIP3      H1            -12.3138166405      -34.5335722861       -6.4345796465  W2        9015            0.0000000000
     27045      9015  TIP3      H2            -11.4746166405      -33.5903822861       -5.5991096465  W2        9015            0.0000000000
     27046      9016  TIP3      OH2            -6.7894066405      -34.7243522861       -2.6521696465  W2        9016            0.0000000000
     27047      9016  TIP3      H1             -6.3690966405      -35.1396422861       -1.8991096465  W2        9016            0.0000000000
     27048      9016  TIP3      H2             -7.7224466405      -34.9030222861       -2.5349696465  W2        9016            0.0000000000
     27049      9017  TIP3      OH2            -3.4629166405      -30.9688322861       -1.7987196465  W2        9017            0.0000000000
     27050      9017  TIP3      H1             -3.9769666405      -31.0946122861       -1.0011196465  W2        9017            0.0000000000
     27051      9017  TIP3      H2             -3.6184466405      -30.0565222861       -2.0430996465  W2        9017            0.0000000000
     27052      9018  TIP3      OH2            -2.7004266405      -26.1078322861      -16.0374196465  W2        9018            0.0000000000
     27053      9018  TIP3      H1             -2.6583466405      -26.3304422861      -16.9674196465  W2        9018            0.0000000000
     27054      9018  TIP3      H2             -1.8512166405      -25.7091222861      -15.8474296465  W2        9018            0.0000000000
     27055      9019  TIP3      OH2            -7.1276766405      -32.2320122861      -15.3670896465  W2        9019            0.0000000000
     27056      9019  TIP3      H1             -7.3811966405      -32.2128522861      -14.4442796465  W2        9019            0.0000000000
     27057      9019  TIP3      H2             -7.3844666405      -33.1034722861      -15.6684696465  W2        9019            0.0000000000
     27058      9020  TIP3      OH2           -11.3611766405      -29.4809422861       -4.9318496465  W2        9020            0.0000000000
     27059      9020  TIP3      H1            -12.0029666405      -29.5212122861       -4.2228396465  W2        9020            0.0000000000
     27060      9020  TIP3      H2            -11.3239766405      -28.5544722861       -5.1695496465  W2        9020            0.0000000000
     27061      9021  TIP3      OH2           -11.3642666405      -29.2599322861      -10.0198496465  W2        9021            0.0000000000
     27062      9021  TIP3      H1            -12.2569766405      -29.6003222861      -10.0784696465  W2        9021            0.0000000000
     27063      9021  TIP3      H2            -10.9136066405      -29.6368422861      -10.7755296465  W2        9021            0.0000000000
     27064      9022  TIP3      OH2            -5.8287166405      -28.8439022861      -11.2027696465  W2        9022            0.0000000000
     27065      9022  TIP3      H1             -6.2376866405      -28.0290422861      -11.4942896465  W2        9022            0.0000000000
     27066      9022  TIP3      H2             -5.1080966405      -28.9838922861      -11.8170596465  W2        9022            0.0000000000
     27067      9023  TIP3      OH2            -6.7265566405      -28.6682622861        0.2853003535  W2        9023            0.0000000000
     27068      9023  TIP3      H1             -7.2891766405      -29.3731022861        0.6060803535  W2        9023            0.0000000000
     27069      9023  TIP3      H2             -5.9002166405      -28.7890722861        0.7530603535  W2        9023            0.0000000000
     27070      9024  TIP3      OH2            -4.8239466405      -29.3978622861       -8.3887996465  W2        9024            0.0000000000
     27071      9024  TIP3      H1             -5.0194966405      -28.7921822861       -9.1037396465  W2        9024            0.0000000000
     27072      9024  TIP3      H2             -4.6426866405      -30.2313422861       -8.8231696465  W2        9024            0.0000000000
     27073      9025  TIP3      OH2           -13.6111266405      -29.1605922861       -3.0646496465  W2        9025            0.0000000000
     27074      9025  TIP3      H1            -13.6491866405      -28.7604322861       -2.1959396465  W2        9025            0.0000000000
     27075      9025  TIP3      H2            -14.1020166405      -29.9773522861       -2.9743596465  W2        9025            0.0000000000
     27076      9026  TIP3      OH2           -10.2453866405      -31.7863622861      -16.2660496465  W2        9026            0.0000000000
     27077      9026  TIP3      H1            -10.6763166405      -32.2313522861      -15.5363096465  W2        9026            0.0000000000
     27078      9026  TIP3      H2            -10.9635166405      -31.4147322861      -16.7782996465  W2        9026            0.0000000000
     27079      9027  TIP3      OH2           -17.0030466405      -32.0444122861       -9.2141796465  W2        9027            0.0000000000
     27080      9027  TIP3      H1            -16.3722766405      -32.0732022861       -8.4947896465  W2        9027            0.0000000000
     27081      9027  TIP3      H2            -16.5536166405      -32.4695422861       -9.9445896465  W2        9027            0.0000000000
     27082      9028  TIP3      OH2           -15.7288366405      -31.2982122861      -13.7901396465  W2        9028            0.0000000000
     27083      9028  TIP3      H1            -15.2546666405      -30.7072222861      -14.3750496465  W2        9028            0.0000000000
     27084      9028  TIP3      H2            -16.4461966405      -30.7679222861      -13.4431296465  W2        9028            0.0000000000
     27085      9029  TIP3      OH2            -5.5600266405      -27.7597322861       -3.7175596465  W2        9029            0.0000000000
     27086      9029  TIP3      H1             -5.2365466405      -28.3907622861       -4.3605096465  W2        9029            0.0000000000
     27087      9029  TIP3      H2             -6.0000966405      -28.2945122861       -3.0568196465  W2        9029            0.0000000000
     27088      9030  TIP3      OH2            -8.7827366405      -31.8321822861       -8.9334396465  W2        9030            0.0000000000
     27089      9030  TIP3      H1             -9.6936266405      -31.7755022861       -8.6448396465  W2        9030            0.0000000000
     27090      9030  TIP3      H2             -8.2774466405      -31.8926322861       -8.1227196465  W2        9030            0.0000000000
     27091      9031  TIP3      OH2           -13.9543966405      -30.2035522861      -10.1066796465  W2        9031            0.0000000000
     27092      9031  TIP3      H1            -14.8435966405      -30.1040022861      -10.4467196465  W2        9031            0.0000000000
     27093      9031  TIP3      H2            -13.6579066405      -31.0452522861      -10.4528896465  W2        9031            0.0000000000
     27094      9032  TIP3      OH2           -10.3012166405      -30.2032922861      -12.4502196465  W2        9032            0.0000000000
     27095      9032  TIP3      H1             -9.3696666405      -30.0742922861      -12.2719096465  W2        9032            0.0000000000
     27096      9032  TIP3      H2            -10.5161866405      -29.5338622861      -13.0997496465  W2        9032            0.0000000000
     27097      9033  TIP3      OH2            -4.3775466405      -32.5975522861       -5.6692596465  W2        9033            0.0000000000
     27098      9033  TIP3      H1             -5.0543866405      -32.4662422861       -5.0052896465  W2        9033            0.0000000000
     27099      9033  TIP3      H2             -4.8630566405      -32.7526022861       -6.4794896465  W2        9033            0.0000000000
     27100      9034  TIP3      OH2           -11.6271966405      -29.0090722861      -14.8836096465  W2        9034            0.0000000000
     27101      9034  TIP3      H1            -12.1696866405      -29.3886922861      -15.5748496465  W2        9034            0.0000000000
     27102      9034  TIP3      H2            -10.7937066405      -28.8146022861      -15.3121996465  W2        9034            0.0000000000
     27103      9035  TIP3      OH2            -1.0900366405      -16.9260122861        0.6075003535  W2        9035            0.0000000000
     27104      9035  TIP3      H1             -0.8901666405      -16.5018222861       -0.2269696465  W2        9035            0.0000000000
     27105      9035  TIP3      H2             -0.4346666405      -16.5821922861        1.2145403535  W2        9035            0.0000000000
     27106      9036  TIP3      OH2           -13.4920566405      -24.4518822861        0.2155503535  W2        9036            0.0000000000
     27107      9036  TIP3      H1            -12.7598166405      -24.1972922861        0.7770003535  W2        9036            0.0000000000
     27108      9036  TIP3      H2            -14.2721866405      -24.2473422861        0.7310903535  W2        9036            0.0000000000
     27109      9037  TIP3      OH2            -7.4627666405      -29.0448822861       -7.0464796465  W2        9037            0.0000000000
     27110      9037  TIP3      H1             -6.8984266405      -29.5912222861       -7.5935196465  W2        9037            0.0000000000
     27111      9037  TIP3      H2             -7.6104266405      -29.5666922861       -6.2577196465  W2        9037            0.0000000000
     27112      9038  TIP3      OH2           -12.4607966405      -32.9082722861      -10.6279996465  W2        9038            0.0000000000
     27113      9038  TIP3      H1            -12.7778466405      -33.8107422861      -10.6634596465  W2        9038            0.0000000000
     27114      9038  TIP3      H2            -11.6793866405      -32.9065322861      -11.1808396465  W2        9038            0.0000000000
     27115      9039  TIP3      OH2            -8.8361766405      -30.6562722861       -4.6324396465  W2        9039            0.0000000000
     27116      9039  TIP3      H1             -9.6716466405      -30.2023222861       -4.5221996465  W2        9039            0.0000000000
     27117      9039  TIP3      H2             -8.3121166405      -30.3804222861       -3.8804496465  W2        9039            0.0000000000
     27118      9040  TIP3      OH2            -8.2919166405      -24.4435022861      -12.9477996465  W2        9040            0.0000000000
     27119      9040  TIP3      H1             -9.0368166405      -24.9509722861      -13.2700096465  W2        9040            0.0000000000
     27120      9040  TIP3      H2             -8.4261966405      -24.3947022861      -12.0013196465  W2        9040            0.0000000000
     27121      9041  TIP3      OH2            -1.1420266405      -25.3106822861       -4.1610396465  W2        9041            0.0000000000
     27122      9041  TIP3      H1             -0.5001466405      -24.8540522861       -4.7048196465  W2        9041            0.0000000000
     27123      9041  TIP3      H2             -1.9723366405      -25.1974422861       -4.6236296465  W2        9041            0.0000000000
     27124      9042  TIP3      OH2            -4.3942366405      -31.6295122861      -14.7485396465  W2        9042            0.0000000000
     27125      9042  TIP3      H1             -5.3328166405      -31.5179522861      -14.8996596465  W2        9042            0.0000000000
     27126      9042  TIP3      H2             -4.0970266405      -30.7728222861      -14.4419696465  W2        9042            0.0000000000
     27127      9043  TIP3      OH2            -6.7727066405      -24.2591722861       -1.7108896465  W2        9043            0.0000000000
     27128      9043  TIP3      H1             -7.1180966405      -24.6409322861       -0.9039296465  W2        9043            0.0000000000
     27129      9043  TIP3      H2             -6.9726966405      -23.3258122861       -1.6395996465  W2        9043            0.0000000000
     27130      9044  TIP3      OH2            -3.6758866405      -29.7622422861      -13.0877996465  W2        9044            0.0000000000
     27131      9044  TIP3      H1             -2.7839866405      -29.8997422861      -12.7686796465  W2        9044            0.0000000000
     27132      9044  TIP3      H2             -3.6195266405      -28.9716322861      -13.6244496465  W2        9044            0.0000000000
     27133      9045  TIP3      OH2           -13.1670866405      -25.1485022861       -7.1780096465  W2        9045            0.0000000000
     27134      9045  TIP3      H1            -12.4223666405      -25.1509322861       -7.7793596465  W2        9045            0.0000000000
     27135      9045  TIP3      H2            -13.0894266405      -25.9721222861       -6.6964996465  W2        9045            0.0000000000
     27136      9046  TIP3      OH2            -6.1665066405      -22.9850722861      -13.9223396465  W2        9046            0.0000000000
     27137      9046  TIP3      H1             -6.4616666405      -22.1582822861      -13.5408596465  W2        9046            0.0000000000
     27138      9046  TIP3      H2             -6.8695066405      -23.6043822861      -13.7261996465  W2        9046            0.0000000000
     27139      9047  TIP3      OH2           -16.1591166405      -26.6878122861       -1.8631596465  W2        9047            0.0000000000
     27140      9047  TIP3      H1            -15.9362566405      -27.1058522861       -1.0314096465  W2        9047            0.0000000000
     27141      9047  TIP3      H2            -16.7611066405      -27.3003122861       -2.2858796465  W2        9047            0.0000000000
     27142      9048  TIP3      OH2            -9.1426266405      -27.1708222861        0.3498103535  W2        9048            0.0000000000
     27143      9048  TIP3      H1             -9.4385466405      -27.3365222861       -0.5452796465  W2        9048            0.0000000000
     27144      9048  TIP3      H2             -8.2111066405      -27.3907922861        0.3392003535  W2        9048            0.0000000000
     27145      9049  TIP3      OH2            -4.5223466405      -21.7976222861       -1.7603896465  W2        9049            0.0000000000
     27146      9049  TIP3      H1             -5.4229166405      -21.6143622861       -2.0279996465  W2        9049            0.0000000000
     27147      9049  TIP3      H2             -4.4882366405      -21.5386922861       -0.8395096465  W2        9049            0.0000000000
     27148      9050  TIP3      OH2             1.2089833595      -29.5528322861      -13.3931296465  W2        9050            0.0000000000
     27149      9050  TIP3      H1              0.6546133595      -29.9490322861      -14.0653796465  W2        9050            0.0000000000
     27150      9050  TIP3      H2              1.3093433595      -28.6423122861      -13.6707996465  W2        9050            0.0000000000
     27151      9051  TIP3      OH2             1.1721833595      -23.7526622861       -0.5559796465  W2        9051            0.0000000000
     27152      9051  TIP3      H1              0.3210333595      -23.5142822861       -0.9233396465  W2        9051            0.0000000000
     27153      9051  TIP3      H2              1.7625233595      -23.7693422861       -1.3092696465  W2        9051            0.0000000000
     27154      9052  TIP3      OH2            -0.4958466405      -20.7667922861      -12.9279196465  W2        9052            0.0000000000
     27155      9052  TIP3      H1             -0.8687366405      -21.5924122861      -12.6188596465  W2        9052            0.0000000000
     27156      9052  TIP3      H2             -0.2184966405      -20.9498522861      -13.8255796465  W2        9052            0.0000000000
     27157      9053  TIP3      OH2            -3.3354566405      -25.9588422861       -5.9067296465  W2        9053            0.0000000000
     27158      9053  TIP3      H1             -4.2637666405      -26.1906522861       -5.9337996465  W2        9053            0.0000000000
     27159      9053  TIP3      H2             -2.8843466405      -26.7358622861       -6.2368496465  W2        9053            0.0000000000
     27160      9054  TIP3      OH2           -10.7921466405      -21.6306822861       -9.7738596465  W2        9054            0.0000000000
     27161      9054  TIP3      H1            -10.2649266405      -20.8572422861       -9.9739796465  W2        9054            0.0000000000
     27162      9054  TIP3      H2            -11.6722966405      -21.4057622861      -10.0754596465  W2        9054            0.0000000000
     27163      9055  TIP3      OH2           -15.0373766405      -26.7682722861      -15.1866196465  W2        9055            0.0000000000
     27164      9055  TIP3      H1            -14.4213866405      -26.1415522861      -14.8071396465  W2        9055            0.0000000000
     27165      9055  TIP3      H2            -15.8991166405      -26.4522922861      -14.9149696465  W2        9055            0.0000000000
     27166      9056  TIP3      OH2            -9.3649166405      -23.9676922861      -10.1974296465  W2        9056            0.0000000000
     27167      9056  TIP3      H1             -9.6059166405      -23.0422522861      -10.1558996465  W2        9056            0.0000000000
     27168      9056  TIP3      H2            -10.1055566405      -24.4265622861       -9.8010396465  W2        9056            0.0000000000
     27169      9057  TIP3      OH2            -8.8502566405      -19.8183322861       -3.8823196465  W2        9057            0.0000000000
     27170      9057  TIP3      H1             -8.4877866405      -18.9637722861       -4.1158796465  W2        9057            0.0000000000
     27171      9057  TIP3      H2             -8.3187366405      -20.1101722861       -3.1416896465  W2        9057            0.0000000000
     27172      9058  TIP3      OH2           -10.6818366405      -18.9459322861      -10.6522096465  W2        9058            0.0000000000
     27173      9058  TIP3      H1            -11.6317866405      -18.8401922861      -10.6008796465  W2        9058            0.0000000000
     27174      9058  TIP3      H2            -10.3300266405      -18.1251922861      -10.3074596465  W2        9058            0.0000000000
     27175      9059  TIP3      OH2            -5.3061766405      -23.7192622861       -4.1817596465  W2        9059            0.0000000000
     27176      9059  TIP3      H1             -5.7320466405      -23.9470922861       -3.3553596465  W2        9059            0.0000000000
     27177      9059  TIP3      H2             -4.7255966405      -24.4580822861       -4.3642296465  W2        9059            0.0000000000
     27178      9060  TIP3      OH2            -3.1032866405      -22.7902122861      -15.1078596465  W2        9060            0.0000000000
     27179      9060  TIP3      H1             -2.7499766405      -23.1702322861      -14.3035096465  W2        9060            0.0000000000
     27180      9060  TIP3      H2             -4.0519366405      -22.8837322861      -15.0209296465  W2        9060            0.0000000000
     27181      9061  TIP3      OH2            -2.6477566405      -19.1673122861       -1.7122796465  W2        9061            0.0000000000
     27182      9061  TIP3      H1             -3.2494366405      -19.7230222861       -2.2076496465  W2        9061            0.0000000000
     27183      9061  TIP3      H2             -2.3663866405      -18.5003322861       -2.3385396465  W2        9061            0.0000000000
     27184      9062  TIP3      OH2             1.4001533595      -18.3109622861      -14.9068396465  W2        9062            0.0000000000
     27185      9062  TIP3      H1              2.1439433595      -17.7249122861      -15.0466796465  W2        9062            0.0000000000
     27186      9062  TIP3      H2              0.7059633595      -17.7423822861      -14.5735996465  W2        9062            0.0000000000
     27187      9063  TIP3      OH2           -14.5251666405      -31.9345422861       -2.3050196465  W2        9063            0.0000000000
     27188      9063  TIP3      H1            -15.4179366405      -31.5960022861       -2.3726196465  W2        9063            0.0000000000
     27189      9063  TIP3      H2            -14.6238866405      -32.7899322861       -1.8869396465  W2        9063            0.0000000000
     27190      9064  TIP3      OH2            -2.2373566405      -24.1180122861      -12.8810696465  W2        9064            0.0000000000
     27191      9064  TIP3      H1             -2.5145966405      -24.8460822861      -12.3249596465  W2        9064            0.0000000000
     27192      9064  TIP3      H2             -1.3100566405      -23.9988122861      -12.6758096465  W2        9064            0.0000000000
     27193      9065  TIP3      OH2           -14.8739666405      -20.1301022861       -3.8700796465  W2        9065            0.0000000000
     27194      9065  TIP3      H1            -14.6569366405      -21.0618622861       -3.9011096465  W2        9065            0.0000000000
     27195      9065  TIP3      H2            -14.6276166405      -19.8556022861       -2.9867996465  W2        9065            0.0000000000
     27196      9066  TIP3      OH2            -9.0125066405      -21.6786022861      -16.6608596465  W2        9066            0.0000000000
     27197      9066  TIP3      H1             -8.7735266405      -22.4267922861      -17.2079696465  W2        9066            0.0000000000
     27198      9066  TIP3      H2             -9.2813766405      -22.0664322861      -15.8280796465  W2        9066            0.0000000000
     27199      9067  TIP3      OH2           -10.0754466405      -22.1082222861      -14.2045996465  W2        9067            0.0000000000
     27200      9067  TIP3      H1             -9.9286466405      -22.6282422861      -13.4145096465  W2        9067            0.0000000000
     27201      9067  TIP3      H2            -10.0782766405      -21.2014622861      -13.8980096465  W2        9067            0.0000000000
     27202      9068  TIP3      OH2           -13.6223366405      -24.8558922861      -13.6940596465  W2        9068            0.0000000000
     27203      9068  TIP3      H1            -14.3084066405      -24.5036422861      -13.1270896465  W2        9068            0.0000000000
     27204      9068  TIP3      H2            -13.0995466405      -24.0929322861      -13.9406296465  W2        9068            0.0000000000
     27205      9069  TIP3      OH2            -5.7908266405      -32.1935122861       -3.4151596465  W2        9069            0.0000000000
     27206      9069  TIP3      H1             -5.0920366405      -32.1196422861       -2.7651896465  W2        9069            0.0000000000
     27207      9069  TIP3      H2             -6.1716866405      -33.0580122861       -3.2608696465  W2        9069            0.0000000000
     27208      9070  TIP3      OH2            -5.0063366405      -32.5413422861      -12.3179296465  W2        9070            0.0000000000
     27209      9070  TIP3      H1             -4.7865066405      -32.0698022861      -13.1213896465  W2        9070            0.0000000000
     27210      9070  TIP3      H2             -4.4479366405      -32.1470822861      -11.6478696465  W2        9070            0.0000000000
     27211      9071  TIP3      OH2            -7.3377266405      -20.4108622861      -13.4551796465  W2        9071            0.0000000000
     27212      9071  TIP3      H1             -8.1541166405      -19.9138922861      -13.4027496465  W2        9071            0.0000000000
     27213      9071  TIP3      H2             -6.8080966405      -19.9355122861      -14.0952996465  W2        9071            0.0000000000
     27214      9072  TIP3      OH2            -7.8063466405      -30.8134622861      -11.4830896465  W2        9072            0.0000000000
     27215      9072  TIP3      H1             -6.9940866405      -30.3091422861      -11.4369196465  W2        9072            0.0000000000
     27216      9072  TIP3      H2             -8.0510466405      -30.9584922861      -10.5691296465  W2        9072            0.0000000000
     27217      9073  TIP3      OH2            -7.2707066405      -29.8271922861       -2.2984296465  W2        9073            0.0000000000
     27218      9073  TIP3      H1             -7.1516766405      -29.2536522861       -1.5413896465  W2        9073            0.0000000000
     27219      9073  TIP3      H2             -6.6152466405      -30.5152522861       -2.1836496465  W2        9073            0.0000000000
     27220      9074  TIP3      OH2            -6.9226766405      -33.7321622861      -10.5449796465  W2        9074            0.0000000000
     27221      9074  TIP3      H1             -7.2693266405      -33.1151022861       -9.9005496465  W2        9074            0.0000000000
     27222      9074  TIP3      H2             -6.2639866405      -33.2315922861      -11.0264296465  W2        9074            0.0000000000
     27223      9075  TIP3      OH2            -9.9994166405      -19.3671422861      -13.4734896465  W2        9075            0.0000000000
     27224      9075  TIP3      H1             -9.8385466405      -18.5673922861      -13.9742296465  W2        9075            0.0000000000
     27225      9075  TIP3      H2            -10.1966366405      -19.0605422861      -12.5884296465  W2        9075            0.0000000000
     27226      9076  TIP3      OH2           -11.2649766405      -32.6692222861      -13.8577296465  W2        9076            0.0000000000
     27227      9076  TIP3      H1            -11.3484966405      -31.7809122861      -13.5110896465  W2        9076            0.0000000000
     27228      9076  TIP3      H2            -10.3749466405      -32.9345522861      -13.6260496465  W2        9076            0.0000000000
     27229      9077  TIP3      OH2            -1.0661266405      -31.9201622861       -1.4634596465  W2        9077            0.0000000000
     27230      9077  TIP3      H1             -1.9825466405      -31.6579922861       -1.5510896465  W2        9077            0.0000000000
     27231      9077  TIP3      H2             -0.7306266405      -31.9232622861       -2.3599296465  W2        9077            0.0000000000
     27232      9078  TIP3      OH2            -2.4640266405      -28.1700622861       -7.3677296465  W2        9078            0.0000000000
     27233      9078  TIP3      H1             -3.2615866405      -28.5850422861       -7.6962296465  W2        9078            0.0000000000
     27234      9078  TIP3      H2             -2.0189166405      -28.8606922861       -6.8766796465  W2        9078            0.0000000000
     27235      9079  TIP3      OH2           -13.0064466405      -22.2420022861      -14.7972796465  W2        9079            0.0000000000
     27236      9079  TIP3      H1            -12.4142966405      -21.5425222861      -14.5210396465  W2        9079            0.0000000000
     27237      9079  TIP3      H2            -12.5471466405      -22.6750522861      -15.5168196465  W2        9079            0.0000000000
     27238      9080  TIP3      OH2           -14.6905266405      -29.5777022861      -15.6813396465  W2        9080            0.0000000000
     27239      9080  TIP3      H1            -14.7352666405      -28.6383922861      -15.5026396465  W2        9080            0.0000000000
     27240      9080  TIP3      H2            -15.5782066405      -29.8132122861      -15.9511296465  W2        9080            0.0000000000
     27241      9081  TIP3      OH2            -1.3775666405      -18.9138122861       -5.7453796465  W2        9081            0.0000000000
     27242      9081  TIP3      H1             -1.5331366405      -18.2353722861       -6.4024496465  W2        9081            0.0000000000
     27243      9081  TIP3      H2             -0.4449266405      -18.8418822861       -5.5423196465  W2        9081            0.0000000000
     27244      9082  TIP3      OH2           -13.8823266405      -34.7960422861       -7.0082396465  W2        9082            0.0000000000
     27245      9082  TIP3      H1            -14.1113466405      -34.7367922861       -7.9357396465  W2        9082            0.0000000000
     27246      9082  TIP3      H2            -14.3249866405      -35.5874922861       -6.7018296465  W2        9082            0.0000000000
     27247      9083  TIP3      OH2           -14.9519966405      -20.8553322861      -10.8476596465  W2        9083            0.0000000000
     27248      9083  TIP3      H1            -15.7841366405      -20.3830622861      -10.8205196465  W2        9083            0.0000000000
     27249      9083  TIP3      H2            -14.4061666405      -20.3455722861      -11.4463496465  W2        9083            0.0000000000
     27250      9084  TIP3      OH2           -15.6636266405      -18.2429622861        0.4821403535  W2        9084            0.0000000000
     27251      9084  TIP3      H1            -15.1234066405      -18.4595622861        1.2420603535  W2        9084            0.0000000000
     27252      9084  TIP3      H2            -16.1448266405      -19.0483622861        0.2923903535  W2        9084            0.0000000000
     27253      9085  TIP3      OH2           -11.0662866405      -19.3235222861        2.1025603535  W2        9085            0.0000000000
     27254      9085  TIP3      H1            -10.2985666405      -19.7824422861        2.4434803535  W2        9085            0.0000000000
     27255      9085  TIP3      H2            -11.0876666405      -19.5495422861        1.1726803535  W2        9085            0.0000000000
     27256      9086  TIP3      OH2            -6.9743266405      -19.8154622861      -16.5222596465  W2        9086            0.0000000000
     27257      9086  TIP3      H1             -7.6182266405      -20.4466022861      -16.2008896465  W2        9086            0.0000000000
     27258      9086  TIP3      H2             -6.2124966405      -20.3466622861      -16.7539096465  W2        9086            0.0000000000
     27259      9087  TIP3      OH2            -4.4894166405      -20.9434122861        0.8317103535  W2        9087            0.0000000000
     27260      9087  TIP3      H1             -4.8404666405      -21.8001122861        1.0747503535  W2        9087            0.0000000000
     27261      9087  TIP3      H2             -3.7630966405      -20.8007422861        1.4386103535  W2        9087            0.0000000000
     27262      9088  TIP3      OH2            -2.3700366405      -19.9984722861      -16.2884596465  W2        9088            0.0000000000
     27263      9088  TIP3      H1             -2.0869966405      -20.7929522861      -15.8357696465  W2        9088            0.0000000000
     27264      9088  TIP3      H2             -1.6302466405      -19.7653722861      -16.8493496465  W2        9088            0.0000000000
     27265      9089  TIP3      OH2           -15.7566766405      -24.4325522861        1.4365703535  W2        9089            0.0000000000
     27266      9089  TIP3      H1            -15.6126266405      -25.3344822861        1.1502403535  W2        9089            0.0000000000
     27267      9089  TIP3      H2            -16.5289366405      -24.1463422861        0.9488003535  W2        9089            0.0000000000
     27268      9090  TIP3      OH2           -11.4153066405      -24.0889822861      -16.4309696465  W2        9090            0.0000000000
     27269      9090  TIP3      H1            -11.3508966405      -24.8830222861      -15.9003296465  W2        9090            0.0000000000
     27270      9090  TIP3      H2            -10.7623866405      -24.2077022861      -17.1207696465  W2        9090            0.0000000000
     27271      9091  TIP3      OH2            -9.1010666405      -24.4627422861        0.8692103535  W2        9091            0.0000000000
     27272      9091  TIP3      H1             -9.4296866405      -24.1919322861        0.0119503535  W2        9091            0.0000000000
     27273      9091  TIP3      H2             -8.9492466405      -25.4037622861        0.7817103535  W2        9091            0.0000000000
     27274      9092  TIP3      OH2            -6.0629666405      -23.0418122861      -16.6951696465  W2        9092            0.0000000000
     27275      9092  TIP3      H1             -6.3315566405      -22.8616022861      -15.7942796465  W2        9092            0.0000000000
     27276      9092  TIP3      H2             -6.2694066405      -23.9671922861      -16.8265896465  W2        9092            0.0000000000
     27277      9093  TIP3      OH2            -3.3665466405      -24.5470122861       -1.7475596465  W2        9093            0.0000000000
     27278      9093  TIP3      H1             -2.6210666405      -23.9586422861       -1.8671596465  W2        9093            0.0000000000
     27279      9093  TIP3      H2             -4.1238666405      -23.9650422861       -1.6842496465  W2        9093            0.0000000000
     27280      9094  TIP3      OH2           -14.9240266405      -27.2322222861        0.8565003535  W2        9094            0.0000000000
     27281      9094  TIP3      H1            -14.5159066405      -28.0895622861        0.7355603535  W2        9094            0.0000000000
     27282      9094  TIP3      H2            -15.1842666405      -27.2180922861        1.7775303535  W2        9094            0.0000000000
     27283      9095  TIP3      OH2           -10.2659266405      -26.1163622861      -14.1251696465  W2        9095            0.0000000000
     27284      9095  TIP3      H1            -10.7257266405      -26.6005322861      -13.4393196465  W2        9095            0.0000000000
     27285      9095  TIP3      H2            -10.0110566405      -26.7848222861      -14.7611196465  W2        9095            0.0000000000
     27286      9096  TIP3      OH2           -10.9769966405      -28.2236522861       -1.7692096465  W2        9096            0.0000000000
     27287      9096  TIP3      H1            -11.5953866405      -27.5489922861       -1.4887396465  W2        9096            0.0000000000
     27288      9096  TIP3      H2            -10.6328766405      -27.9022622861       -2.6025896465  W2        9096            0.0000000000
     27289      9097  TIP3      OH2            -9.1948866405      -27.8731822861      -15.8628496465  W2        9097            0.0000000000
     27290      9097  TIP3      H1             -9.3753866405      -28.0280622861      -16.7900196465  W2        9097            0.0000000000
     27291      9097  TIP3      H2             -8.2448366405      -27.7653122861      -15.8180596465  W2        9097            0.0000000000
     27292      9098  TIP3      OH2            -5.9571766405      -25.7521222861        1.5082703535  W2        9098            0.0000000000
     27293      9098  TIP3      H1             -5.0040566405      -25.6682122861        1.4808703535  W2        9098            0.0000000000
     27294      9098  TIP3      H2             -6.1177166405      -26.4639422861        2.1277603535  W2        9098            0.0000000000
     27295      9099  TIP3      OH2             0.1949433595      -25.5187622861      -16.4170396465  W2        9099            0.0000000000
     27296      9099  TIP3      H1             -0.0785766405      -25.9432122861      -17.2302096465  W2        9099            0.0000000000
     27297      9099  TIP3      H2              0.2343533595      -24.5873122861      -16.6339996465  W2        9099            0.0000000000
     27298      9100  TIP3      OH2           -10.6376266405      -30.8685722861       -0.6868996465  W2        9100            0.0000000000
     27299      9100  TIP3      H1            -10.4875366405      -31.5974422861       -1.2889296465  W2        9100            0.0000000000
     27300      9100  TIP3      H2            -10.6353866405      -30.0914022861       -1.2456796465  W2        9100            0.0000000000
     27301      9101  TIP3      OH2           -10.2250566405      -32.4989922861       -3.1941596465  W2        9101            0.0000000000
     27302      9101  TIP3      H1             -9.6893066405      -32.0473222861       -3.8462296465  W2        9101            0.0000000000
     27303      9101  TIP3      H2            -11.0770966405      -32.6070122861       -3.6167496465  W2        9101            0.0000000000
     27304      9102  TIP3      OH2            -8.6432166405      -27.0593722861       -2.9546396465  W2        9102            0.0000000000
     27305      9102  TIP3      H1             -7.8927366405      -27.2156222861       -3.5278596465  W2        9102            0.0000000000
     27306      9102  TIP3      H2             -8.9823866405      -26.2077122861       -3.2300896465  W2        9102            0.0000000000
     27307      9103  TIP3      OH2            -4.2275966405      -29.2441922861        2.0738903535  W2        9103            0.0000000000
     27308      9103  TIP3      H1             -4.0354666405      -30.1752522861        1.9623403535  W2        9103            0.0000000000
     27309      9103  TIP3      H2             -3.3699666405      -28.8192422861        2.0634303535  W2        9103            0.0000000000
     27310      9104  TIP3      OH2            -2.9108766405      -26.4556722861        0.1511603535  W2        9104            0.0000000000
     27311      9104  TIP3      H1             -3.1923766405      -25.7462122861       -0.4264596465  W2        9104            0.0000000000
     27312      9104  TIP3      H2             -1.9684466405      -26.5283722861        0.0002803535  W2        9104            0.0000000000
     27313      9105  TIP3      OH2           -12.1589966405      -29.6702222861        1.2246603535  W2        9105            0.0000000000
     27314      9105  TIP3      H1            -12.9260966405      -30.2027422861        1.0144203535  W2        9105            0.0000000000
     27315      9105  TIP3      H2            -11.4800966405      -29.9801822861        0.6252903535  W2        9105            0.0000000000
     27316      9106  TIP3      OH2            -9.4195066405      -35.0424222861       -2.7627996465  W2        9106            0.0000000000
     27317      9106  TIP3      H1             -9.5175466405      -34.0961022861       -2.8681796465  W2        9106            0.0000000000
     27318      9106  TIP3      H2            -10.1618866405      -35.4150422861       -3.2384496465  W2        9106            0.0000000000
     27319      9107  TIP3      OH2            -8.1554566405      -30.7208822861        0.8010403535  W2        9107            0.0000000000
     27320      9107  TIP3      H1             -8.3909166405      -30.9402122861        1.7025303535  W2        9107            0.0000000000
     27321      9107  TIP3      H2             -8.9387666405      -30.9277622861        0.2912903535  W2        9107            0.0000000000
     27322      9108  TIP3      OH2            -5.4397966405      -31.5935322861       -0.1236096465  W2        9108            0.0000000000
     27323      9108  TIP3      H1             -6.3872566405      -31.5615622861        0.0087203535  W2        9108            0.0000000000
     27324      9108  TIP3      H2             -5.1271266405      -32.2188222861        0.5302103535  W2        9108            0.0000000000
     27325      9109  TIP3      OH2            -3.8056466405      -32.9594222861        1.8815803535  W2        9109            0.0000000000
     27326      9109  TIP3      H1             -3.9024666405      -33.9116922861        1.8757703535  W2        9109            0.0000000000
     27327      9109  TIP3      H2             -4.1273366405      -32.6907422861        2.7421303535  W2        9109            0.0000000000
     27328      9110  TIP3      OH2           -13.9787166405      -31.7498422861        0.9291303535  W2        9110            0.0000000000
     27329      9110  TIP3      H1            -13.7669766405      -32.4562322861        0.3188803535  W2        9110            0.0000000000
     27330      9110  TIP3      H2            -14.0899666405      -32.1872422861        1.7732503535  W2        9110            0.0000000000
     27331      9111  TIP3      OH2            -9.1976966405      -35.7486822861       -0.0915196465  W2        9111            0.0000000000
     27332      9111  TIP3      H1             -8.4858566405      -36.3884622861       -0.1056096465  W2        9111            0.0000000000
     27333      9111  TIP3      H2             -9.2986566405      -35.4818522861       -1.0052096465  W2        9111            0.0000000000
     27334      9112  TIP3      OH2            -8.8439466405      -34.0658422861        1.9621103535  W2        9112            0.0000000000
     27335      9112  TIP3      H1             -8.9757266405      -34.5414622861        1.1419603535  W2        9112            0.0000000000
     27336      9112  TIP3      H2             -9.4432066405      -33.3214822861        1.9068203535  W2        9112            0.0000000000
     27337      9113  TIP3      OH2            -9.2977166405      -17.1828122861      -14.8614896465  W2        9113            0.0000000000
     27338      9113  TIP3      H1             -8.3646466405      -17.0249422861      -14.7176496465  W2        9113            0.0000000000
     27339      9113  TIP3      H2             -9.5618366405      -16.5075122861      -15.4863396465  W2        9113            0.0000000000
     27340      9114  TIP3      OH2           -15.7292266405      -22.5464322861      -15.3786796465  W2        9114            0.0000000000
     27341      9114  TIP3      H1            -14.8153066405      -22.4675422861      -15.1052896465  W2        9114            0.0000000000
     27342      9114  TIP3      H2            -15.7219166405      -23.2334722861      -16.0451196465  W2        9114            0.0000000000
     27343      9115  TIP3      OH2           -17.0801666405      -17.1535822861      -10.3012896465  W2        9115            0.0000000000
     27344      9115  TIP3      H1            -17.7274566405      -17.6154122861      -10.8341696465  W2        9115            0.0000000000
     27345      9115  TIP3      H2            -16.7257066405      -17.8252522861       -9.7186696465  W2        9115            0.0000000000
     27346      9116  TIP3      OH2           -16.2102466405      -19.0728822861       -8.4966696465  W2        9116            0.0000000000
     27347      9116  TIP3      H1            -16.5445666405      -19.9531522861       -8.3246496465  W2        9116            0.0000000000
     27348      9116  TIP3      H2            -15.9880066405      -18.7273822861       -7.6321096465  W2        9116            0.0000000000
     27349      9117  TIP3      OH2             1.3382333595      -18.2632422861       -5.5161896465  W2        9117            0.0000000000
     27350      9117  TIP3      H1              1.3169033595      -18.0784022861       -4.5772496465  W2        9117            0.0000000000
     27351      9117  TIP3      H2              2.0288533595      -17.6948422861       -5.8570496465  W2        9117            0.0000000000
     27352      9118  TIP3      OH2             0.9015233595      -18.6961322861       -2.5942796465  W2        9118            0.0000000000
     27353      9118  TIP3      H1              0.4143933595      -19.4317222861       -2.9655396465  W2        9118            0.0000000000
     27354      9118  TIP3      H2              1.4507933595      -19.0897422861       -1.9163396465  W2        9118            0.0000000000
     27355      9119  TIP3      OH2            -0.6477466405      -22.9063222861        2.0437503535  W2        9119            0.0000000000
     27356      9119  TIP3      H1             -1.5136366405      -23.0113522861        2.4379803535  W2        9119            0.0000000000
     27357      9119  TIP3      H2             -0.2711566405      -22.1479922861        2.4902203535  W2        9119            0.0000000000
     27358      9120  TIP3      OH2             0.6532233595      -24.6499522861      -12.4419996465  W2        9120            0.0000000000
     27359      9120  TIP3      H1              1.5033633595      -24.2288622861      -12.3148396465  W2        9120            0.0000000000
     27360      9120  TIP3      H2              0.6587333595      -25.3899422861      -11.8348596465  W2        9120            0.0000000000
     27361      9121  TIP3      OH2             1.0477833595      -26.5962122861      -10.6184296465  W2        9121            0.0000000000
     27362      9121  TIP3      H1              0.3212433595      -27.0759522861      -10.2206696465  W2        9121            0.0000000000
     27363      9121  TIP3      H2              1.6291133595      -26.3907422861       -9.8862696465  W2        9121            0.0000000000
     27364      9122  TIP3      OH2             0.8069033595      -23.8114622861       -5.6706696465  W2        9122            0.0000000000
     27365      9122  TIP3      H1              1.6403233595      -24.1894622861       -5.9513096465  W2        9122            0.0000000000
     27366      9122  TIP3      H2              0.9189333595      -22.8683422861       -5.7897596465  W2        9122            0.0000000000
     27367      9123  TIP3      OH2            -0.7068666405      -20.9337122861       -3.3638296465  W2        9123            0.0000000000
     27368      9123  TIP3      H1             -1.3543366405      -20.6085622861       -2.7383096465  W2        9123            0.0000000000
     27369      9123  TIP3      H2             -1.2244666405      -21.3739422861       -4.0379996465  W2        9123            0.0000000000
     27370      9124  TIP3      OH2             1.3160933595      -26.6953622861      -14.2272996465  W2        9124            0.0000000000
     27371      9124  TIP3      H1              0.7942033595      -26.3389522861      -14.9462096465  W2        9124            0.0000000000
     27372      9124  TIP3      H2              1.2830133595      -26.0205822861      -13.5492096465  W2        9124            0.0000000000
     27373      9125  TIP3      OH2            -0.3350066405      -29.4558022861      -15.6765896465  W2        9125            0.0000000000
     27374      9125  TIP3      H1             -0.2385666405      -28.7891022861      -16.3566196465  W2        9125            0.0000000000
     27375      9125  TIP3      H2             -0.4750466405      -30.2711722861      -16.1580396465  W2        9125            0.0000000000
     27376      9126  TIP3      OH2            -1.1655366405      -28.0755622861      -10.0555596465  W2        9126            0.0000000000
     27377      9126  TIP3      H1             -1.3156566405      -29.0207022861      -10.0757796465  W2        9126            0.0000000000
     27378      9126  TIP3      H2             -1.5190866405      -27.7944222861       -9.2116496465  W2        9126            0.0000000000
     27379      9127  TIP3      OH2           -16.1302966405      -25.9973422861       -6.0451796465  W2        9127            0.0000000000
     27380      9127  TIP3      H1            -15.9460066405      -26.0791722861       -6.9808896465  W2        9127            0.0000000000
     27381      9127  TIP3      H2            -15.2810066405      -26.1216422861       -5.6215396465  W2        9127            0.0000000000
     27382      9128  TIP3      OH2            -0.3092466405      -26.1052322861       -0.4167296465  W2        9128            0.0000000000
     27383      9128  TIP3      H1              0.2734833595      -26.8400022861       -0.2250096465  W2        9128            0.0000000000
     27384      9128  TIP3      H2              0.2546833595      -25.3332022861       -0.3701496465  W2        9128            0.0000000000
     27385      9129  TIP3      OH2             1.1874633595      -28.2026522861        0.2678103535  W2        9129            0.0000000000
     27386      9129  TIP3      H1              0.3241333595      -28.5814422861        0.1022803535  W2        9129            0.0000000000
     27387      9129  TIP3      H2              1.7918333595      -28.9411722861        0.1933903535  W2        9129            0.0000000000
     27388      9130  TIP3      OH2            -1.0876266405      -32.0478222861      -16.5590396465  W2        9130            0.0000000000
     27389      9130  TIP3      H1             -0.4770466405      -32.4191422861      -15.9222196465  W2        9130            0.0000000000
     27390      9130  TIP3      H2             -1.9244766405      -32.4691322861      -16.3630396465  W2        9130            0.0000000000
     27391      9131  TIP3      OH2            -1.4550566405      -30.4929822861      -11.5930496465  W2        9131            0.0000000000
     27392      9131  TIP3      H1             -1.1753466405      -31.3999422861      -11.4688796465  W2        9131            0.0000000000
     27393      9131  TIP3      H2             -0.6958866405      -30.0588322861      -11.9821296465  W2        9131            0.0000000000
     27394      9132  TIP3      OH2            -0.8432266405      -29.9112422861       -6.1571596465  W2        9132            0.0000000000
     27395      9132  TIP3      H1              0.0895733595      -29.6992522861       -6.1915596465  W2        9132            0.0000000000
     27396      9132  TIP3      H2             -1.0784766405      -29.8100322861       -5.2348596465  W2        9132            0.0000000000
     27397      9133  TIP3      OH2            -0.8140366405      -29.1747122861       -3.3812196465  W2        9133            0.0000000000
     27398      9133  TIP3      H1             -1.6569066405      -28.9066722861       -3.0152396465  W2        9133            0.0000000000
     27399      9133  TIP3      H2             -0.3716066405      -28.3525222861       -3.5921096465  W2        9133            0.0000000000
     27400      9134  TIP3      OH2           -16.5328166405      -30.7268422861        0.0957003535  W2        9134            0.0000000000
     27401      9134  TIP3      H1            -15.6133266405      -30.8490122861        0.3320103535  W2        9134            0.0000000000
     27402      9134  TIP3      H2            -16.9823666405      -31.4768722861        0.4850503535  W2        9134            0.0000000000
     27403      9135  TIP3      OH2             1.4691233595      -35.1946922861        1.9722803535  W2        9135            0.0000000000
     27404      9135  TIP3      H1              1.8188233595      -35.8483422861        1.3667503535  W2        9135            0.0000000000
     27405      9135  TIP3      H2              1.6160733595      -34.3572822861        1.5325403535  W2        9135            0.0000000000
     27406      9136  TIP3      OH2            -0.8415766405      -33.2300522861      -11.5448496465  W2        9136            0.0000000000
     27407      9136  TIP3      H1             -0.6590766405      -33.6789022861      -10.7193496465  W2        9136            0.0000000000
     27408      9136  TIP3      H2             -1.4412866405      -33.8146122861      -12.0083896465  W2        9136            0.0000000000
     27409      9137  TIP3      OH2           -15.3115666405      -32.4146822861       -7.0130096465  W2        9137            0.0000000000
     27410      9137  TIP3      H1            -14.8664066405      -33.2064322861       -6.7110396465  W2        9137            0.0000000000
     27411      9137  TIP3      H2            -14.8452666405      -31.6981622861       -6.5824496465  W2        9137            0.0000000000
     27412      9138  TIP3      OH2           -17.0075366405      -29.4153822861       -5.9439896465  W2        9138            0.0000000000
     27413      9138  TIP3      H1            -16.5155566405      -29.6363322861       -6.7347896465  W2        9138            0.0000000000
     27414      9138  TIP3      H2            -16.6454466405      -28.5750422861       -5.6630396465  W2        9138            0.0000000000
     27415      9139  TIP3      OH2             0.9888433595      -33.0852322861        0.3214103535  W2        9139            0.0000000000
     27416      9139  TIP3      H1              0.0714133595      -32.8145222861        0.2857603535  W2        9139            0.0000000000
     27417      9139  TIP3      H2              1.1117833595      -33.6203922861       -0.4626196465  W2        9139            0.0000000000
     27418      9140  TIP3      OH2             1.0250433595      -33.1622422861      -15.0168196465  W2        9140            0.0000000000
     27419      9140  TIP3      H1              1.4373033595      -33.8836722861      -15.4920196465  W2        9140            0.0000000000
     27420      9140  TIP3      H2              1.7066933595      -32.4927822861      -14.9583896465  W2        9140            0.0000000000
     27421      9141  TIP3      OH2           -16.6938866405      -33.1574722861      -11.8897496465  W2        9141            0.0000000000
     27422      9141  TIP3      H1            -17.6190466405      -32.9488122861      -12.0191996465  W2        9141            0.0000000000
     27423      9141  TIP3      H2            -16.2398966405      -32.6733922861      -12.5795196465  W2        9141            0.0000000000
     27424      9142  TIP3      OH2            -1.9231666405      -18.1733022861       -9.9440096465  W2        9142            0.0000000000
     27425      9142  TIP3      H1             -1.2708766405      -18.5210922861      -10.5520996465  W2        9142            0.0000000000
     27426      9142  TIP3      H2             -1.4127866405      -17.6849822861       -9.2980396465  W2        9142            0.0000000000
     27427      9143  TIP3      OH2           -16.7303466405      -34.4195722861       -3.5454996465  W2        9143            0.0000000000
     27428      9143  TIP3      H1            -17.3952966405      -34.6655422861       -2.9024096465  W2        9143            0.0000000000
     27429      9143  TIP3      H2            -17.1732166405      -33.7975322861       -4.1226996465  W2        9143            0.0000000000
     27430      9144  TIP3      OH2           -14.5384166405      -21.2441622861        0.5990803535  W2        9144            0.0000000000
     27431      9144  TIP3      H1            -15.3591666405      -21.0695122861        0.1385503535  W2        9144            0.0000000000
     27432      9144  TIP3      H2            -14.7906366405      -21.3176922861        1.5195203535  W2        9144            0.0000000000
     27433      9145  TIP3      OH2           -11.5841266405      -20.2700422861       -3.1425196465  W2        9145            0.0000000000
     27434      9145  TIP3      H1            -12.0090166405      -19.4601922861       -3.4250596465  W2        9145            0.0000000000
     27435      9145  TIP3      H2            -10.6798466405      -20.1846322861       -3.4445396465  W2        9145            0.0000000000
     27436      9146  TIP3      OH2            -7.2729866405      -18.8710422861       -0.1831496465  W2        9146            0.0000000000
     27437      9146  TIP3      H1             -7.0882366405      -19.2044322861        0.6948803535  W2        9146            0.0000000000
     27438      9146  TIP3      H2             -6.4265366405      -18.5611822861       -0.5052296465  W2        9146            0.0000000000
     27439      9147  TIP3      OH2            -4.9279466405      -17.5851522861       -0.9390096465  W2        9147            0.0000000000
     27440      9147  TIP3      H1             -4.2510566405      -18.2179222861       -1.1790896465  W2        9147            0.0000000000
     27441      9147  TIP3      H2             -4.6060666405      -17.1841022861       -0.1316796465  W2        9147            0.0000000000
     27442      9148  TIP3      OH2            -0.0105666405      -34.9956022861       -1.8595096465  W2        9148            0.0000000000
     27443      9148  TIP3      H1             -0.8232166405      -34.6705722861       -2.2470396465  W2        9148            0.0000000000
     27444      9148  TIP3      H2              0.2222833595      -35.7557522861       -2.3925996465  W2        9148            0.0000000000
     27445      9149  TIP3      OH2           -14.1824566405      -17.0136522861       -3.0949896465  W2        9149            0.0000000000
     27446      9149  TIP3      H1            -14.9028166405      -16.5735522861       -3.5462196465  W2        9149            0.0000000000
     27447      9149  TIP3      H2            -14.5480566405      -17.2641822861       -2.2465896465  W2        9149            0.0000000000
     27448      9150  TIP3      OH2           -11.7151966405      -17.4132622861       -4.0652696465  W2        9150            0.0000000000
     27449      9150  TIP3      H1            -12.5799766405      -17.3414122861       -3.6612596465  W2        9150            0.0000000000
     27450      9150  TIP3      H2            -11.7702966405      -16.8665322861       -4.8490196465  W2        9150            0.0000000000
     27451      9151  TIP3      OH2            -7.0046366405      -17.5253722861       -4.8896696465  W2        9151            0.0000000000
     27452      9151  TIP3      H1             -7.4612366405      -16.9964022861       -5.5438296465  W2        9151            0.0000000000
     27453      9151  TIP3      H2             -6.8418366405      -16.9222322861       -4.1644396465  W2        9151            0.0000000000
     27454      9152  TIP3      OH2            -4.6770066405      -18.6474122861       -3.9446396465  W2        9152            0.0000000000
     27455      9152  TIP3      H1             -5.5816366405      -18.4823922861       -4.2104296465  W2        9152            0.0000000000
     27456      9152  TIP3      H2             -4.2481466405      -17.7941922861       -4.0102996465  W2        9152            0.0000000000
     27457      9153  TIP3      OH2            -2.0728166405      -17.0775022861       -3.6498596465  W2        9153            0.0000000000
     27458      9153  TIP3      H1             -2.2546166405      -16.1616122861       -3.8603696465  W2        9153            0.0000000000
     27459      9153  TIP3      H2             -1.8960366405      -17.4877922861       -4.4963996465  W2        9153            0.0000000000
     27460      9154  TIP3      OH2           -14.7676466405      -18.3904022861       -6.1848096465  W2        9154            0.0000000000
     27461      9154  TIP3      H1            -14.7860466405      -18.8158922861       -5.3275796465  W2        9154            0.0000000000
     27462      9154  TIP3      H2            -13.9628566405      -18.7089022861       -6.5935896465  W2        9154            0.0000000000
     27463      9155  TIP3      OH2           -12.6263366405      -19.6805322861       -7.5298196465  W2        9155            0.0000000000
     27464      9155  TIP3      H1            -12.8452666405      -20.5967922861       -7.3602196465  W2        9155            0.0000000000
     27465      9155  TIP3      H2            -11.8021166405      -19.5404922861       -7.0636796465  W2        9155            0.0000000000
     27466      9156  TIP3      OH2           -10.0890866405      -19.2106022861       -6.6810196465  W2        9156            0.0000000000
     27467      9156  TIP3      H1             -9.8765166405      -20.0987022861       -6.9679296465  W2        9156            0.0000000000
     27468      9156  TIP3      H2            -10.0245766405      -19.2448322861       -5.7266196465  W2        9156            0.0000000000
     27469      9157  TIP3      OH2            -6.5807166405      -33.5465422861       -7.5366896465  W2        9157            0.0000000000
     27470      9157  TIP3      H1             -7.2550366405      -34.1759822861       -7.2811096465  W2        9157            0.0000000000
     27471      9157  TIP3      H2             -6.0167966405      -34.0306522861       -8.1398996465  W2        9157            0.0000000000
     27472      9158  TIP3      OH2            -1.4379966405      -35.4391422861       -7.4239796465  W2        9158            0.0000000000
     27473      9158  TIP3      H1             -0.8342366405      -34.8916022861       -7.9258796465  W2        9158            0.0000000000
     27474      9158  TIP3      H2             -2.3077966405      -35.1201022861       -7.6645696465  W2        9158            0.0000000000
     27475      9159  TIP3      OH2             0.2890433595      -34.3002722861       -9.0908896465  W2        9159            0.0000000000
     27476      9159  TIP3      H1              0.9007933595      -34.8147022861       -9.6175296465  W2        9159            0.0000000000
     27477      9159  TIP3      H2              0.6713833595      -33.4230622861       -9.0674496465  W2        9159            0.0000000000
     27478      9160  TIP3      OH2           -14.2539666405      -34.9125122861       -9.7146996465  W2        9160            0.0000000000
     27479      9160  TIP3      H1            -15.0309866405      -35.1470222861      -10.2221096465  W2        9160            0.0000000000
     27480      9160  TIP3      H2            -13.7236066405      -35.7093022861       -9.7058996465  W2        9160            0.0000000000
     27481      9161  TIP3      OH2           -15.4176266405      -35.1147022861      -13.9110896465  W2        9161            0.0000000000
     27482      9161  TIP3      H1            -14.9785566405      -34.5036522861      -14.5027396465  W2        9161            0.0000000000
     27483      9161  TIP3      H2            -16.0513866405      -34.5762922861      -13.4370896465  W2        9161            0.0000000000
     27484      9162  TIP3      OH2            -9.6747066405      -34.9858022861       -9.9013896465  W2        9162            0.0000000000
     27485      9162  TIP3      H1             -8.8003666405      -34.5973722861       -9.9309596465  W2        9162            0.0000000000
     27486      9162  TIP3      H2             -9.8106266405      -35.2010222861       -8.9786696465  W2        9162            0.0000000000
     27487      9163  TIP3      OH2            -4.1178666405      -34.9558222861       -8.2522196465  W2        9163            0.0000000000
     27488      9163  TIP3      H1             -4.0417066405      -34.8606622861       -9.2016196465  W2        9163            0.0000000000
     27489      9163  TIP3      H2             -4.3929466405      -35.8635322861       -8.1233096465  W2        9163            0.0000000000
     27490      9164  TIP3      OH2            -2.7646066405      -34.9300422861      -12.5597196465  W2        9164            0.0000000000
     27491      9164  TIP3      H1             -3.4674966405      -34.3151222861      -12.7695796465  W2        9164            0.0000000000
     27492      9164  TIP3      H2             -3.2094666405      -35.7673722861      -12.4286296465  W2        9164            0.0000000000
     27493      9165  TIP3      OH2           -15.5166766405      -19.1664822861      -13.0135796465  W2        9165            0.0000000000
     27494      9165  TIP3      H1            -16.2016866405      -19.2045922861      -13.6810696465  W2        9165            0.0000000000
     27495      9165  TIP3      H2            -15.5129566405      -18.2537222861      -12.7253696465  W2        9165            0.0000000000
     27496      9166  TIP3      OH2           -13.5567166405      -33.1985522861      -15.4686796465  W2        9166            0.0000000000
     27497      9166  TIP3      H1            -13.0653766405      -33.8283122861      -15.9961296465  W2        9166            0.0000000000
     27498      9166  TIP3      H2            -12.9330866405      -32.9026122861      -14.8055596465  W2        9166            0.0000000000
     27499      9167  TIP3      OH2            -8.5307066405      -32.9054022861      -13.0116296465  W2        9167            0.0000000000
     27500      9167  TIP3      H1             -8.3525766405      -33.5520822861      -12.3287696465  W2        9167            0.0000000000
     27501      9167  TIP3      H2             -8.5840866405      -32.0716322861      -12.5445196465  W2        9167            0.0000000000
     27502      9168  TIP3      OH2            -6.6523266405      -17.9569922861      -14.6159596465  W2        9168            0.0000000000
     27503      9168  TIP3      H1             -5.7863066405      -17.5902522861      -14.7941396465  W2        9168            0.0000000000
     27504      9168  TIP3      H2             -6.8990466405      -18.3961922861      -15.4298796465  W2        9168            0.0000000000
     27505      9169  TIP3      OH2             0.0566333595      -18.3939622861      -11.9368496465  W2        9169            0.0000000000
     27506      9169  TIP3      H1             -0.1376566405      -19.1417522861      -12.5018896465  W2        9169            0.0000000000
     27507      9169  TIP3      H2              0.0176433595      -17.6359522861      -12.5200596465  W2        9169            0.0000000000
     27508      9170  TIP3      OH2           -14.2961666405      -34.3983222861       -0.1970796465  W2        9170            0.0000000000
     27509      9170  TIP3      H1            -14.6623466405      -35.1640622861        0.2453903535  W2        9170            0.0000000000
     27510      9170  TIP3      H2            -13.3833166405      -34.3693022861        0.0894303535  W2        9170            0.0000000000
     27511      9171  TIP3      OH2           -12.3230866405      -35.0478822861        1.3386303535  W2        9171            0.0000000000
     27512      9171  TIP3      H1            -11.4247266405      -35.3218622861        1.1539703535  W2        9171            0.0000000000
     27513      9171  TIP3      H2            -12.7097766405      -35.7902822861        1.8028903535  W2        9171            0.0000000000
     27514      9172  TIP3      OH2           -13.6985566405      -18.2464022861      -15.9883696465  W2        9172            0.0000000000
     27515      9172  TIP3      H1            -13.9660966405      -17.9601122861      -15.1150596465  W2        9172            0.0000000000
     27516      9172  TIP3      H2            -12.9272966405      -18.7924822861      -15.8361196465  W2        9172            0.0000000000
     27517      9173  TIP3      OH2            -3.9018566405      -35.7153522861        1.5209103535  W2        9173            0.0000000000
     27518      9173  TIP3      H1             -3.8251366405      -36.1412822861        2.3746803535  W2        9173            0.0000000000
     27519      9173  TIP3      H2             -3.0081966405      -35.7018822861        1.1782603535  W2        9173            0.0000000000
     27520      9174  TIP3      OH2            -0.7257466405      -19.6427222861        0.2133303535  W2        9174            0.0000000000
     27521      9174  TIP3      H1             -1.5075566405      -19.8289222861       -0.3066096465  W2        9174            0.0000000000
     27522      9174  TIP3      H2             -0.7977566405      -18.7132922861        0.4305803535  W2        9174            0.0000000000
     27523      9175  TIP3      OH2            13.6802933595      -25.7562822861       -9.7559496465  W2        9175            0.0000000000
     27524      9175  TIP3      H1             13.7694033595      -24.8124622861       -9.8882396465  W2        9175            0.0000000000
     27525      9175  TIP3      H2             13.0420533595      -26.0316422861      -10.4140096465  W2        9175            0.0000000000
     27526      9176  TIP3      OH2            12.6134233595      -26.5012122861       -6.3371296465  W2        9176            0.0000000000
     27527      9176  TIP3      H1             12.5751733595      -27.1475822861       -5.6321696465  W2        9176            0.0000000000
     27528      9176  TIP3      H2             12.2910733595      -26.9677722861       -7.1082596465  W2        9176            0.0000000000
     27529      9177  TIP3      OH2             4.9819233595      -26.8870022861       -4.7441396465  W2        9177            0.0000000000
     27530      9177  TIP3      H1              5.0231333595      -27.5126722861       -4.0208996465  W2        9177            0.0000000000
     27531      9177  TIP3      H2              5.6846933595      -26.2631422861       -4.5620996465  W2        9177            0.0000000000
     27532      9178  TIP3      OH2            16.3194433595      -23.5621722861       -8.0356196465  W2        9178            0.0000000000
     27533      9178  TIP3      H1             15.8787133595      -24.2825722861       -7.5850596465  W2        9178            0.0000000000
     27534      9178  TIP3      H2             16.3064133595      -22.8414522861       -7.4058496465  W2        9178            0.0000000000
     27535      9179  TIP3      OH2             5.9052333595      -22.4371122861       -6.2092296465  W2        9179            0.0000000000
     27536      9179  TIP3      H1              5.5357533595      -23.2390622861       -6.5787996465  W2        9179            0.0000000000
     27537      9179  TIP3      H2              6.8463433595      -22.6056222861       -6.1628896465  W2        9179            0.0000000000
     27538      9180  TIP3      OH2             2.5152833595      -28.7768522861      -10.8163496465  W2        9180            0.0000000000
     27539      9180  TIP3      H1              2.0676233595      -27.9309822861      -10.8346996465  W2        9180            0.0000000000
     27540      9180  TIP3      H2              1.9544033595      -29.3564322861      -11.3318396465  W2        9180            0.0000000000
     27541      9181  TIP3      OH2             3.2258933595      -26.6148922861       -8.6905496465  W2        9181            0.0000000000
     27542      9181  TIP3      H1              3.4392433595      -27.3847322861       -8.1632496465  W2        9181            0.0000000000
     27543      9181  TIP3      H2              3.9636533595      -26.5252222861       -9.2937896465  W2        9181            0.0000000000
     27544      9182  TIP3      OH2            13.4309933595      -18.4580022861       -7.8235796465  W2        9182            0.0000000000
     27545      9182  TIP3      H1             14.0506333595      -19.1345322861       -8.0966596465  W2        9182            0.0000000000
     27546      9182  TIP3      H2             13.2227333595      -18.6759222861       -6.9150896465  W2        9182            0.0000000000
     27547      9183  TIP3      OH2            11.0028633595      -24.0690722861       -5.9310296465  W2        9183            0.0000000000
     27548      9183  TIP3      H1             11.3066533595      -24.7549322861       -6.5256196465  W2        9183            0.0000000000
     27549      9183  TIP3      H2             11.7242633595      -23.9502022861       -5.3132296465  W2        9183            0.0000000000
     27550      9184  TIP3      OH2            19.6658433595      -32.4675422861       -5.0704096465  W2        9184            0.0000000000
     27551      9184  TIP3      H1             19.7150633595      -31.8574222861       -4.3344996465  W2        9184            0.0000000000
     27552      9184  TIP3      H2             20.0913533595      -32.0064522861       -5.7932996465  W2        9184            0.0000000000
     27553      9185  TIP3      OH2            14.1435633595      -29.6748322861       -5.6035496465  W2        9185            0.0000000000
     27554      9185  TIP3      H1             14.2861533595      -30.6211322861       -5.5833896465  W2        9185            0.0000000000
     27555      9185  TIP3      H2             14.0374633595      -29.4678522861       -6.5320596465  W2        9185            0.0000000000
     27556      9186  TIP3      OH2             7.2983933595      -31.5731922861       -8.3310696465  W2        9186            0.0000000000
     27557      9186  TIP3      H1              7.3415033595      -30.7133422861       -8.7494396465  W2        9186            0.0000000000
     27558      9186  TIP3      H2              6.8408033595      -32.1257222861       -8.9647496465  W2        9186            0.0000000000
     27559      9187  TIP3      OH2            15.0206633595      -31.4426322861       -9.9302396465  W2        9187            0.0000000000
     27560      9187  TIP3      H1             15.6670933595      -31.7713122861       -9.3054796465  W2        9187            0.0000000000
     27561      9187  TIP3      H2             15.5306033595      -30.9247322861      -10.5530996465  W2        9187            0.0000000000
     27562      9188  TIP3      OH2             3.9185433595      -29.1766122861       -7.5689296465  W2        9188            0.0000000000
     27563      9188  TIP3      H1              4.5722033595      -29.7264422861       -7.1369196465  W2        9188            0.0000000000
     27564      9188  TIP3      H2              3.9424733595      -29.4507122861       -8.4857296465  W2        9188            0.0000000000
     27565      9189  TIP3      OH2             9.0749933595      -27.6264822861       -8.3537796465  W2        9189            0.0000000000
     27566      9189  TIP3      H1              9.6910933595      -28.1529422861       -7.8443796465  W2        9189            0.0000000000
     27567      9189  TIP3      H2              8.4888733595      -28.2666122861       -8.7574196465  W2        9189            0.0000000000
     27568      9190  TIP3      OH2            20.0573033595      -30.9896222861       -2.8344296465  W2        9190            0.0000000000
     27569      9190  TIP3      H1             19.3687633595      -30.3315522861       -2.9297696465  W2        9190            0.0000000000
     27570      9190  TIP3      H2             20.0727633595      -31.1868322861       -1.8978896465  W2        9190            0.0000000000
     27571      9191  TIP3      OH2             6.1085833595      -32.6553522861       -4.2569896465  W2        9191            0.0000000000
     27572      9191  TIP3      H1              5.8897533595      -32.1252922861       -5.0233896465  W2        9191            0.0000000000
     27573      9191  TIP3      H2              5.4406733595      -32.4288022861       -3.6098496465  W2        9191            0.0000000000
     27574      9192  TIP3      OH2            13.4775633595      -23.1552422861      -10.7130796465  W2        9192            0.0000000000
     27575      9192  TIP3      H1             13.1820733595      -23.4780122861      -11.5643896465  W2        9192            0.0000000000
     27576      9192  TIP3      H2             13.1533433595      -22.2555722861      -10.6718196465  W2        9192            0.0000000000
     27577      9193  TIP3      OH2             8.6777233595      -24.9797822861       -3.9696196465  W2        9193            0.0000000000
     27578      9193  TIP3      H1              7.9376333595      -24.3816322861       -3.8660996465  W2        9193            0.0000000000
     27579      9193  TIP3      H2              9.3916733595      -24.4258222861       -4.2852596465  W2        9193            0.0000000000
     27580      9194  TIP3      OH2            16.7845033595      -32.1517022861       -7.9496496465  W2        9194            0.0000000000
     27581      9194  TIP3      H1             16.5693033595      -32.9173622861       -7.4170496465  W2        9194            0.0000000000
     27582      9194  TIP3      H2             17.4402433595      -31.6792422861       -7.4367996465  W2        9194            0.0000000000
     27583      9195  TIP3      OH2             5.7023133595      -30.7631722861       -6.3047696465  W2        9195            0.0000000000
     27584      9195  TIP3      H1              6.3159433595      -30.1304122861       -5.9315296465  W2        9195            0.0000000000
     27585      9195  TIP3      H2              6.2143833595      -31.2356722861       -6.9610796465  W2        9195            0.0000000000
     27586      9196  TIP3      OH2             7.0851533595      -23.0154822861       -3.1824696465  W2        9196            0.0000000000
     27587      9196  TIP3      H1              7.0799133595      -22.1361322861       -3.5605396465  W2        9196            0.0000000000
     27588      9196  TIP3      H2              6.2315633595      -23.0990722861       -2.7574796465  W2        9196            0.0000000000
     27589      9197  TIP3      OH2             3.2062433595      -23.3446922861      -12.4005396465  W2        9197            0.0000000000
     27590      9197  TIP3      H1              2.9343333595      -23.1155922861      -13.2892496465  W2        9197            0.0000000000
     27591      9197  TIP3      H2              3.2518133595      -22.5068122861      -11.9400096465  W2        9197            0.0000000000
     27592      9198  TIP3      OH2            16.8312133595      -21.7231022861       -5.6876896465  W2        9198            0.0000000000
     27593      9198  TIP3      H1             15.8895833595      -21.6647122861       -5.5259996465  W2        9198            0.0000000000
     27594      9198  TIP3      H2             17.1078233595      -20.8170522861       -5.8247196465  W2        9198            0.0000000000
     27595      9199  TIP3      OH2            17.1319133595      -33.4365722861       -4.2702996465  W2        9199            0.0000000000
     27596      9199  TIP3      H1             16.3958333595      -32.8258622861       -4.3081696465  W2        9199            0.0000000000
     27597      9199  TIP3      H2             17.8153133595      -33.0216722861       -4.7966596465  W2        9199            0.0000000000
     27598      9200  TIP3      OH2            10.1350533595      -35.3498422861       -6.8044996465  W2        9200            0.0000000000
     27599      9200  TIP3      H1             10.0174733595      -36.2982422861       -6.8586696465  W2        9200            0.0000000000
     27600      9200  TIP3      H2              9.2800633595      -35.0172322861       -6.5313896465  W2        9200            0.0000000000
     27601      9201  TIP3      OH2            15.0833333595      -19.9417522861       -9.0625296465  W2        9201            0.0000000000
     27602      9201  TIP3      H1             15.5085633595      -20.6489622861       -9.5475696465  W2        9201            0.0000000000
     27603      9201  TIP3      H2             15.4003333595      -19.1404822861       -9.4793096465  W2        9201            0.0000000000
     27604      9202  TIP3      OH2            16.2429833595      -22.0409022861      -10.5538696465  W2        9202            0.0000000000
     27605      9202  TIP3      H1             15.9854633595      -22.7308922861      -11.1652796465  W2        9202            0.0000000000
     27606      9202  TIP3      H2             16.3140633595      -22.4837822861       -9.7082796465  W2        9202            0.0000000000
     27607      9203  TIP3      OH2            17.9290033595      -23.4742322861       -2.0765196465  W2        9203            0.0000000000
     27608      9203  TIP3      H1             18.0686333595      -24.0659822861       -2.8158196465  W2        9203            0.0000000000
     27609      9203  TIP3      H2             18.0962833595      -22.6016422861       -2.4326396465  W2        9203            0.0000000000
     27610      9204  TIP3      OH2            12.4015433595      -26.5122822861      -12.3039196465  W2        9204            0.0000000000
     27611      9204  TIP3      H1             11.6900933595      -25.9773122861      -12.6558696465  W2        9204            0.0000000000
     27612      9204  TIP3      H2             13.0925033595      -26.4570722861      -12.9640296465  W2        9204            0.0000000000
     27613      9205  TIP3      OH2            12.4554633595      -28.0548522861      -15.2654196465  W2        9205            0.0000000000
     27614      9205  TIP3      H1             13.1564533595      -28.0321622861      -14.6140196465  W2        9205            0.0000000000
     27615      9205  TIP3      H2             12.7577533595      -28.6828822861      -15.9214896465  W2        9205            0.0000000000
     27616      9206  TIP3      OH2            19.7709333595      -27.1344322861       -4.0104796465  W2        9206            0.0000000000
     27617      9206  TIP3      H1             19.1183433595      -26.4398722861       -3.9213896465  W2        9206            0.0000000000
     27618      9206  TIP3      H2             20.2359633595      -26.9243422861       -4.8203196465  W2        9206            0.0000000000
     27619      9207  TIP3      OH2            15.8073133595      -26.3029522861      -11.3523296465  W2        9207            0.0000000000
     27620      9207  TIP3      H1             15.0754133595      -26.0745822861      -10.7792696465  W2        9207            0.0000000000
     27621      9207  TIP3      H2             16.2545333595      -27.0166822861      -10.8975796465  W2        9207            0.0000000000
     27622      9208  TIP3      OH2            15.7046633595      -28.1286922861       -2.2846296465  W2        9208            0.0000000000
     27623      9208  TIP3      H1             15.7845733595      -27.3652522861       -1.7127796465  W2        9208            0.0000000000
     27624      9208  TIP3      H2             15.1034333595      -27.8494522861       -2.9751196465  W2        9208            0.0000000000
     27625      9209  TIP3      OH2             7.4526833595      -25.6723322861       -9.4698296465  W2        9209            0.0000000000
     27626      9209  TIP3      H1              7.1222033595      -26.0429922861      -10.2881296465  W2        9209            0.0000000000
     27627      9209  TIP3      H2              8.0410933595      -26.3429322861       -9.1229996465  W2        9209            0.0000000000
     27628      9210  TIP3      OH2             8.8194333595      -22.2442722861       -6.7886096465  W2        9210            0.0000000000
     27629      9210  TIP3      H1              8.7245633595      -22.8229622861       -7.5451496465  W2        9210            0.0000000000
     27630      9210  TIP3      H2              9.5487933595      -22.6157022861       -6.2923296465  W2        9210            0.0000000000
     27631      9211  TIP3      OH2             7.8192333595      -26.9037722861       -5.8363296465  W2        9211            0.0000000000
     27632      9211  TIP3      H1              8.3844833595      -26.7823522861       -6.5992096465  W2        9211            0.0000000000
     27633      9211  TIP3      H2              8.1381233595      -26.2662722861       -5.1974796465  W2        9211            0.0000000000
     27634      9212  TIP3      OH2            14.1284533595      -21.4005822861       -5.1022796465  W2        9212            0.0000000000
     27635      9212  TIP3      H1             13.8881133595      -20.7382722861       -4.4543596465  W2        9212            0.0000000000
     27636      9212  TIP3      H2             13.9302733595      -22.2350622861       -4.6773196465  W2        9212            0.0000000000
     27637      9213  TIP3      OH2             8.6993033595      -22.5045022861       -1.1191396465  W2        9213            0.0000000000
     27638      9213  TIP3      H1              8.3880533595      -21.7221822861       -0.6638196465  W2        9213            0.0000000000
     27639      9213  TIP3      H2              8.0493233595      -22.6575922861       -1.8049396465  W2        9213            0.0000000000
     27640      9214  TIP3      OH2            14.6782633595      -27.1406622861      -13.6672096465  W2        9214            0.0000000000
     27641      9214  TIP3      H1             15.2578133595      -26.9906322861      -12.9203196465  W2        9214            0.0000000000
     27642      9214  TIP3      H2             15.0922633595      -26.6699222861      -14.3905696465  W2        9214            0.0000000000
     27643      9215  TIP3      OH2             5.6192933595      -26.3063922861       -1.8905696465  W2        9215            0.0000000000
     27644      9215  TIP3      H1              5.6896133595      -25.6557122861       -1.1920696465  W2        9215            0.0000000000
     27645      9215  TIP3      H2              4.7285133595      -26.2036422861       -2.2254796465  W2        9215            0.0000000000
     27646      9216  TIP3      OH2            12.4047533595      -20.4038122861      -10.2318996465  W2        9216            0.0000000000
     27647      9216  TIP3      H1             12.8785133595      -20.1081822861       -9.4544796465  W2        9216            0.0000000000
     27648      9216  TIP3      H2             11.8416833595      -19.6656522861      -10.4649396465  W2        9216            0.0000000000
     27649      9217  TIP3      OH2             6.9388933595      -20.4330022861       -0.3557596465  W2        9217            0.0000000000
     27650      9217  TIP3      H1              6.9464233595      -20.5690322861       -1.3032096465  W2        9217            0.0000000000
     27651      9217  TIP3      H2              6.0229333595      -20.5501922861       -0.1037596465  W2        9217            0.0000000000
     27652      9218  TIP3      OH2            18.3771033595      -35.3906222861      -13.8542396465  W2        9218            0.0000000000
     27653      9218  TIP3      H1             17.4771733595      -35.2517222861      -13.5591796465  W2        9218            0.0000000000
     27654      9218  TIP3      H2             18.6289433595      -34.5591622861      -14.2560696465  W2        9218            0.0000000000
     27655      9219  TIP3      OH2             6.4429533595      -26.6029022861      -11.8805496465  W2        9219            0.0000000000
     27656      9219  TIP3      H1              6.1510833595      -25.8347322861      -12.3714196465  W2        9219            0.0000000000
     27657      9219  TIP3      H2              5.7684733595      -27.2622822861      -12.0434096465  W2        9219            0.0000000000
     27658      9220  TIP3      OH2            19.5662433595      -21.0243822861      -15.4778496465  W2        9220            0.0000000000
     27659      9220  TIP3      H1             19.6395933595      -20.0853622861      -15.3073196465  W2        9220            0.0000000000
     27660      9220  TIP3      H2             20.4717533595      -21.3295222861      -15.5341196465  W2        9220            0.0000000000
     27661      9221  TIP3      OH2             2.5359633595      -24.2399822861       -3.0655696465  W2        9221            0.0000000000
     27662      9221  TIP3      H1              2.0348033595      -24.2680422861       -3.8805996465  W2        9221            0.0000000000
     27663      9221  TIP3      H2              2.5413333595      -25.1456622861       -2.7558396465  W2        9221            0.0000000000
     27664      9222  TIP3      OH2             2.2862333595      -21.4596022861       -6.1815496465  W2        9222            0.0000000000
     27665      9222  TIP3      H1              3.2322933595      -21.6039022861       -6.2005996465  W2        9222            0.0000000000
     27666      9222  TIP3      H2              2.1738633595      -20.6753222861       -5.6444296465  W2        9222            0.0000000000
     27667      9223  TIP3      OH2            20.4840833595      -20.7936322861       -0.4991796465  W2        9223            0.0000000000
     27668      9223  TIP3      H1             20.4347633595      -21.7488222861       -0.5364196465  W2        9223            0.0000000000
     27669      9223  TIP3      H2             19.6573133595      -20.5261022861       -0.0977996465  W2        9223            0.0000000000
     27670      9224  TIP3      OH2            11.4624833595      -21.2197122861       -1.6230396465  W2        9224            0.0000000000
     27671      9224  TIP3      H1             11.5499433595      -20.3932522861       -1.1481296465  W2        9224            0.0000000000
     27672      9224  TIP3      H2             10.5989933595      -21.5493322861       -1.3741096465  W2        9224            0.0000000000
     27673      9225  TIP3      OH2            11.8770633595      -17.4473422861      -11.8169796465  W2        9225            0.0000000000
     27674      9225  TIP3      H1             11.8016633595      -17.5686222861      -12.7634596465  W2        9225            0.0000000000
     27675      9225  TIP3      H2             11.9099333595      -16.4980722861      -11.6985196465  W2        9225            0.0000000000
     27676      9226  TIP3      OH2             5.5304433595      -18.6586422861      -10.0360796465  W2        9226            0.0000000000
     27677      9226  TIP3      H1              5.6824833595      -19.0066022861       -9.1574296465  W2        9226            0.0000000000
     27678      9226  TIP3      H2              4.6794833595      -19.0149122861      -10.2913596465  W2        9226            0.0000000000
     27679      9227  TIP3      OH2            14.9786633595      -18.2933222861      -14.8147396465  W2        9227            0.0000000000
     27680      9227  TIP3      H1             15.3535033595      -19.0377122861      -15.2854796465  W2        9227            0.0000000000
     27681      9227  TIP3      H2             14.9830333595      -18.5632622861      -13.8964096465  W2        9227            0.0000000000
     27682      9228  TIP3      OH2            14.6474733595      -18.3676122861      -12.0655196465  W2        9228            0.0000000000
     27683      9228  TIP3      H1             13.7124533595      -18.2674222861      -11.8868196465  W2        9228            0.0000000000
     27684      9228  TIP3      H2             14.9276633595      -19.0770122861      -11.4871996465  W2        9228            0.0000000000
     27685      9229  TIP3      OH2            17.6360633595      -29.3003822861       -0.0189596465  W2        9229            0.0000000000
     27686      9229  TIP3      H1             17.2287433595      -28.8198222861       -0.7396296465  W2        9229            0.0000000000
     27687      9229  TIP3      H2             17.6766333595      -30.2057822861       -0.3268796465  W2        9229            0.0000000000
     27688      9230  TIP3      OH2             4.7850133595      -22.9164422861       -2.0222896465  W2        9230            0.0000000000
     27689      9230  TIP3      H1              5.0011433595      -23.2778822861       -1.1627096465  W2        9230            0.0000000000
     27690      9230  TIP3      H2              3.9294833595      -23.2910622861       -2.2319396465  W2        9230            0.0000000000
     27691      9231  TIP3      OH2             7.4038133595      -34.4463922861       -6.0268696465  W2        9231            0.0000000000
     27692      9231  TIP3      H1              6.5421833595      -34.5335722861       -6.4345796465  W2        9231            0.0000000000
     27693      9231  TIP3      H2              7.3813833595      -33.5903822861       -5.5991096465  W2        9231            0.0000000000
     27694      9232  TIP3      OH2            12.0665933595      -34.7243522861       -2.6521696465  W2        9232            0.0000000000
     27695      9232  TIP3      H1             12.4869033595      -35.1396422861       -1.8991096465  W2        9232            0.0000000000
     27696      9232  TIP3      H2             11.1335533595      -34.9030222861       -2.5349696465  W2        9232            0.0000000000
     27697      9233  TIP3      OH2            15.3930833595      -30.9688322861       -1.7987196465  W2        9233            0.0000000000
     27698      9233  TIP3      H1             14.8790333595      -31.0946122861       -1.0011196465  W2        9233            0.0000000000
     27699      9233  TIP3      H2             15.2375533595      -30.0565222861       -2.0430996465  W2        9233            0.0000000000
     27700      9234  TIP3      OH2            16.1555733595      -26.1078322861      -16.0374196465  W2        9234            0.0000000000
     27701      9234  TIP3      H1             16.1976533595      -26.3304422861      -16.9674196465  W2        9234            0.0000000000
     27702      9234  TIP3      H2             17.0047833595      -25.7091222861      -15.8474296465  W2        9234            0.0000000000
     27703      9235  TIP3      OH2            11.7283233595      -32.2320122861      -15.3670896465  W2        9235            0.0000000000
     27704      9235  TIP3      H1             11.4748033595      -32.2128522861      -14.4442796465  W2        9235            0.0000000000
     27705      9235  TIP3      H2             11.4715333595      -33.1034722861      -15.6684696465  W2        9235            0.0000000000
     27706      9236  TIP3      OH2             7.4948233595      -29.4809422861       -4.9318496465  W2        9236            0.0000000000
     27707      9236  TIP3      H1              6.8530333595      -29.5212122861       -4.2228396465  W2        9236            0.0000000000
     27708      9236  TIP3      H2              7.5320233595      -28.5544722861       -5.1695496465  W2        9236            0.0000000000
     27709      9237  TIP3      OH2             7.4917333595      -29.2599322861      -10.0198496465  W2        9237            0.0000000000
     27710      9237  TIP3      H1              6.5990233595      -29.6003222861      -10.0784696465  W2        9237            0.0000000000
     27711      9237  TIP3      H2              7.9423933595      -29.6368422861      -10.7755296465  W2        9237            0.0000000000
     27712      9238  TIP3      OH2            13.0272833595      -28.8439022861      -11.2027696465  W2        9238            0.0000000000
     27713      9238  TIP3      H1             12.6183133595      -28.0290422861      -11.4942896465  W2        9238            0.0000000000
     27714      9238  TIP3      H2             13.7479033595      -28.9838922861      -11.8170596465  W2        9238            0.0000000000
     27715      9239  TIP3      OH2            12.1294433595      -28.6682622861        0.2853003535  W2        9239            0.0000000000
     27716      9239  TIP3      H1             11.5668233595      -29.3731022861        0.6060803535  W2        9239            0.0000000000
     27717      9239  TIP3      H2             12.9557833595      -28.7890722861        0.7530603535  W2        9239            0.0000000000
     27718      9240  TIP3      OH2            14.0320533595      -29.3978622861       -8.3887996465  W2        9240            0.0000000000
     27719      9240  TIP3      H1             13.8365033595      -28.7921822861       -9.1037396465  W2        9240            0.0000000000
     27720      9240  TIP3      H2             14.2133133595      -30.2313422861       -8.8231696465  W2        9240            0.0000000000
     27721      9241  TIP3      OH2             5.2448733595      -29.1605922861       -3.0646496465  W2        9241            0.0000000000
     27722      9241  TIP3      H1              5.2068133595      -28.7604322861       -2.1959396465  W2        9241            0.0000000000
     27723      9241  TIP3      H2              4.7539833595      -29.9773522861       -2.9743596465  W2        9241            0.0000000000
     27724      9242  TIP3      OH2             8.6106133595      -31.7863622861      -16.2660496465  W2        9242            0.0000000000
     27725      9242  TIP3      H1              8.1796833595      -32.2313522861      -15.5363096465  W2        9242            0.0000000000
     27726      9242  TIP3      H2              7.8924833595      -31.4147322861      -16.7782996465  W2        9242            0.0000000000
     27727      9243  TIP3      OH2             1.8529533595      -32.0444122861       -9.2141796465  W2        9243            0.0000000000
     27728      9243  TIP3      H1              2.4837233595      -32.0732022861       -8.4947896465  W2        9243            0.0000000000
     27729      9243  TIP3      H2              2.3023833595      -32.4695422861       -9.9445896465  W2        9243            0.0000000000
     27730      9244  TIP3      OH2             3.1271633595      -31.2982122861      -13.7901396465  W2        9244            0.0000000000
     27731      9244  TIP3      H1              3.6013333595      -30.7072222861      -14.3750496465  W2        9244            0.0000000000
     27732      9244  TIP3      H2              2.4098033595      -30.7679222861      -13.4431296465  W2        9244            0.0000000000
     27733      9245  TIP3      OH2            13.2959733595      -27.7597322861       -3.7175596465  W2        9245            0.0000000000
     27734      9245  TIP3      H1             13.6194533595      -28.3907622861       -4.3605096465  W2        9245            0.0000000000
     27735      9245  TIP3      H2             12.8559033595      -28.2945122861       -3.0568196465  W2        9245            0.0000000000
     27736      9246  TIP3      OH2            10.0732633595      -31.8321822861       -8.9334396465  W2        9246            0.0000000000
     27737      9246  TIP3      H1              9.1623733595      -31.7755022861       -8.6448396465  W2        9246            0.0000000000
     27738      9246  TIP3      H2             10.5785533595      -31.8926322861       -8.1227196465  W2        9246            0.0000000000
     27739      9247  TIP3      OH2             4.9016033595      -30.2035522861      -10.1066796465  W2        9247            0.0000000000
     27740      9247  TIP3      H1              4.0124033595      -30.1040022861      -10.4467196465  W2        9247            0.0000000000
     27741      9247  TIP3      H2              5.1980933595      -31.0452522861      -10.4528896465  W2        9247            0.0000000000
     27742      9248  TIP3      OH2             8.5547833595      -30.2032922861      -12.4502196465  W2        9248            0.0000000000
     27743      9248  TIP3      H1              9.4863333595      -30.0742922861      -12.2719096465  W2        9248            0.0000000000
     27744      9248  TIP3      H2              8.3398133595      -29.5338622861      -13.0997496465  W2        9248            0.0000000000
     27745      9249  TIP3      OH2            14.4784533595      -32.5975522861       -5.6692596465  W2        9249            0.0000000000
     27746      9249  TIP3      H1             13.8016133595      -32.4662422861       -5.0052896465  W2        9249            0.0000000000
     27747      9249  TIP3      H2             13.9929433595      -32.7526022861       -6.4794896465  W2        9249            0.0000000000
     27748      9250  TIP3      OH2             7.2288033595      -29.0090722861      -14.8836096465  W2        9250            0.0000000000
     27749      9250  TIP3      H1              6.6863133595      -29.3886922861      -15.5748496465  W2        9250            0.0000000000
     27750      9250  TIP3      H2              8.0622933595      -28.8146022861      -15.3121996465  W2        9250            0.0000000000
     27751      9251  TIP3      OH2            17.7659633595      -16.9260122861        0.6075003535  W2        9251            0.0000000000
     27752      9251  TIP3      H1             17.9658333595      -16.5018222861       -0.2269696465  W2        9251            0.0000000000
     27753      9251  TIP3      H2             18.4213333595      -16.5821922861        1.2145403535  W2        9251            0.0000000000
     27754      9252  TIP3      OH2             5.3639433595      -24.4518822861        0.2155503535  W2        9252            0.0000000000
     27755      9252  TIP3      H1              6.0961833595      -24.1972922861        0.7770003535  W2        9252            0.0000000000
     27756      9252  TIP3      H2              4.5838133595      -24.2473422861        0.7310903535  W2        9252            0.0000000000
     27757      9253  TIP3      OH2            11.3932333595      -29.0448822861       -7.0464796465  W2        9253            0.0000000000
     27758      9253  TIP3      H1             11.9575733595      -29.5912222861       -7.5935196465  W2        9253            0.0000000000
     27759      9253  TIP3      H2             11.2455733595      -29.5666922861       -6.2577196465  W2        9253            0.0000000000
     27760      9254  TIP3      OH2             6.3952033595      -32.9082722861      -10.6279996465  W2        9254            0.0000000000
     27761      9254  TIP3      H1              6.0781533595      -33.8107422861      -10.6634596465  W2        9254            0.0000000000
     27762      9254  TIP3      H2              7.1766133595      -32.9065322861      -11.1808396465  W2        9254            0.0000000000
     27763      9255  TIP3      OH2            10.0198233595      -30.6562722861       -4.6324396465  W2        9255            0.0000000000
     27764      9255  TIP3      H1              9.1843533595      -30.2023222861       -4.5221996465  W2        9255            0.0000000000
     27765      9255  TIP3      H2             10.5438833595      -30.3804222861       -3.8804496465  W2        9255            0.0000000000
     27766      9256  TIP3      OH2            10.5640833595      -24.4435022861      -12.9477996465  W2        9256            0.0000000000
     27767      9256  TIP3      H1              9.8191833595      -24.9509722861      -13.2700096465  W2        9256            0.0000000000
     27768      9256  TIP3      H2             10.4298033595      -24.3947022861      -12.0013196465  W2        9256            0.0000000000
     27769      9257  TIP3      OH2            17.7139733595      -25.3106822861       -4.1610396465  W2        9257            0.0000000000
     27770      9257  TIP3      H1             18.3558533595      -24.8540522861       -4.7048196465  W2        9257            0.0000000000
     27771      9257  TIP3      H2             16.8836633595      -25.1974422861       -4.6236296465  W2        9257            0.0000000000
     27772      9258  TIP3      OH2            14.4617633595      -31.6295122861      -14.7485396465  W2        9258            0.0000000000
     27773      9258  TIP3      H1             13.5231833595      -31.5179522861      -14.8996596465  W2        9258            0.0000000000
     27774      9258  TIP3      H2             14.7589733595      -30.7728222861      -14.4419696465  W2        9258            0.0000000000
     27775      9259  TIP3      OH2            12.0832933595      -24.2591722861       -1.7108896465  W2        9259            0.0000000000
     27776      9259  TIP3      H1             11.7379033595      -24.6409322861       -0.9039296465  W2        9259            0.0000000000
     27777      9259  TIP3      H2             11.8833033595      -23.3258122861       -1.6395996465  W2        9259            0.0000000000
     27778      9260  TIP3      OH2            15.1801133595      -29.7622422861      -13.0877996465  W2        9260            0.0000000000
     27779      9260  TIP3      H1             16.0720133595      -29.8997422861      -12.7686796465  W2        9260            0.0000000000
     27780      9260  TIP3      H2             15.2364733595      -28.9716322861      -13.6244496465  W2        9260            0.0000000000
     27781      9261  TIP3      OH2             5.6889133595      -25.1485022861       -7.1780096465  W2        9261            0.0000000000
     27782      9261  TIP3      H1              6.4336333595      -25.1509322861       -7.7793596465  W2        9261            0.0000000000
     27783      9261  TIP3      H2              5.7665733595      -25.9721222861       -6.6964996465  W2        9261            0.0000000000
     27784      9262  TIP3      OH2            12.6894933595      -22.9850722861      -13.9223396465  W2        9262            0.0000000000
     27785      9262  TIP3      H1             12.3943333595      -22.1582822861      -13.5408596465  W2        9262            0.0000000000
     27786      9262  TIP3      H2             11.9864933595      -23.6043822861      -13.7261996465  W2        9262            0.0000000000
     27787      9263  TIP3      OH2             2.6968833595      -26.6878122861       -1.8631596465  W2        9263            0.0000000000
     27788      9263  TIP3      H1              2.9197433595      -27.1058522861       -1.0314096465  W2        9263            0.0000000000
     27789      9263  TIP3      H2              2.0948933595      -27.3003122861       -2.2858796465  W2        9263            0.0000000000
     27790      9264  TIP3      OH2             9.7133733595      -27.1708222861        0.3498103535  W2        9264            0.0000000000
     27791      9264  TIP3      H1              9.4174533595      -27.3365222861       -0.5452796465  W2        9264            0.0000000000
     27792      9264  TIP3      H2             10.6448933595      -27.3907922861        0.3392003535  W2        9264            0.0000000000
     27793      9265  TIP3      OH2            14.3336533595      -21.7976222861       -1.7603896465  W2        9265            0.0000000000
     27794      9265  TIP3      H1             13.4330833595      -21.6143622861       -2.0279996465  W2        9265            0.0000000000
     27795      9265  TIP3      H2             14.3677633595      -21.5386922861       -0.8395096465  W2        9265            0.0000000000
     27796      9266  TIP3      OH2            20.0649833595      -29.5528322861      -13.3931296465  W2        9266            0.0000000000
     27797      9266  TIP3      H1             19.5106133595      -29.9490322861      -14.0653796465  W2        9266            0.0000000000
     27798      9266  TIP3      H2             20.1653433595      -28.6423122861      -13.6707996465  W2        9266            0.0000000000
     27799      9267  TIP3      OH2            20.0281833595      -23.7526622861       -0.5559796465  W2        9267            0.0000000000
     27800      9267  TIP3      H1             19.1770333595      -23.5142822861       -0.9233396465  W2        9267            0.0000000000
     27801      9267  TIP3      H2             20.6185233595      -23.7693422861       -1.3092696465  W2        9267            0.0000000000
     27802      9268  TIP3      OH2            18.3601533595      -20.7667922861      -12.9279196465  W2        9268            0.0000000000
     27803      9268  TIP3      H1             17.9872633595      -21.5924122861      -12.6188596465  W2        9268            0.0000000000
     27804      9268  TIP3      H2             18.6375033595      -20.9498522861      -13.8255796465  W2        9268            0.0000000000
     27805      9269  TIP3      OH2            15.5205433595      -25.9588422861       -5.9067296465  W2        9269            0.0000000000
     27806      9269  TIP3      H1             14.5922333595      -26.1906522861       -5.9337996465  W2        9269            0.0000000000
     27807      9269  TIP3      H2             15.9716533595      -26.7358622861       -6.2368496465  W2        9269            0.0000000000
     27808      9270  TIP3      OH2             8.0638533595      -21.6306822861       -9.7738596465  W2        9270            0.0000000000
     27809      9270  TIP3      H1              8.5910733595      -20.8572422861       -9.9739796465  W2        9270            0.0000000000
     27810      9270  TIP3      H2              7.1837033595      -21.4057622861      -10.0754596465  W2        9270            0.0000000000
     27811      9271  TIP3      OH2             3.8186233595      -26.7682722861      -15.1866196465  W2        9271            0.0000000000
     27812      9271  TIP3      H1              4.4346133595      -26.1415522861      -14.8071396465  W2        9271            0.0000000000
     27813      9271  TIP3      H2              2.9568833595      -26.4522922861      -14.9149696465  W2        9271            0.0000000000
     27814      9272  TIP3      OH2             9.4910833595      -23.9676922861      -10.1974296465  W2        9272            0.0000000000
     27815      9272  TIP3      H1              9.2500833595      -23.0422522861      -10.1558996465  W2        9272            0.0000000000
     27816      9272  TIP3      H2              8.7504433595      -24.4265622861       -9.8010396465  W2        9272            0.0000000000
     27817      9273  TIP3      OH2            10.0057433595      -19.8183322861       -3.8823196465  W2        9273            0.0000000000
     27818      9273  TIP3      H1             10.3682133595      -18.9637722861       -4.1158796465  W2        9273            0.0000000000
     27819      9273  TIP3      H2             10.5372633595      -20.1101722861       -3.1416896465  W2        9273            0.0000000000
     27820      9274  TIP3      OH2             8.1741633595      -18.9459322861      -10.6522096465  W2        9274            0.0000000000
     27821      9274  TIP3      H1              7.2242133595      -18.8401922861      -10.6008796465  W2        9274            0.0000000000
     27822      9274  TIP3      H2              8.5259733595      -18.1251922861      -10.3074596465  W2        9274            0.0000000000
     27823      9275  TIP3      OH2            13.5498233595      -23.7192622861       -4.1817596465  W2        9275            0.0000000000
     27824      9275  TIP3      H1             13.1239533595      -23.9470922861       -3.3553596465  W2        9275            0.0000000000
     27825      9275  TIP3      H2             14.1304033595      -24.4580822861       -4.3642296465  W2        9275            0.0000000000
     27826      9276  TIP3      OH2            15.7527133595      -22.7902122861      -15.1078596465  W2        9276            0.0000000000
     27827      9276  TIP3      H1             16.1060233595      -23.1702322861      -14.3035096465  W2        9276            0.0000000000
     27828      9276  TIP3      H2             14.8040633595      -22.8837322861      -15.0209296465  W2        9276            0.0000000000
     27829      9277  TIP3      OH2            16.2082433595      -19.1673122861       -1.7122796465  W2        9277            0.0000000000
     27830      9277  TIP3      H1             15.6065633595      -19.7230222861       -2.2076496465  W2        9277            0.0000000000
     27831      9277  TIP3      H2             16.4896133595      -18.5003322861       -2.3385396465  W2        9277            0.0000000000
     27832      9278  TIP3      OH2            20.2561533595      -18.3109622861      -14.9068396465  W2        9278            0.0000000000
     27833      9278  TIP3      H1             20.9999433595      -17.7249122861      -15.0466796465  W2        9278            0.0000000000
     27834      9278  TIP3      H2             19.5619633595      -17.7423822861      -14.5735996465  W2        9278            0.0000000000
     27835      9279  TIP3      OH2             4.3308333595      -31.9345422861       -2.3050196465  W2        9279            0.0000000000
     27836      9279  TIP3      H1              3.4380633595      -31.5960022861       -2.3726196465  W2        9279            0.0000000000
     27837      9279  TIP3      H2              4.2321133595      -32.7899322861       -1.8869396465  W2        9279            0.0000000000
     27838      9280  TIP3      OH2            16.6186433595      -24.1180122861      -12.8810696465  W2        9280            0.0000000000
     27839      9280  TIP3      H1             16.3414033595      -24.8460822861      -12.3249596465  W2        9280            0.0000000000
     27840      9280  TIP3      H2             17.5459433595      -23.9988122861      -12.6758096465  W2        9280            0.0000000000
     27841      9281  TIP3      OH2             3.9820333595      -20.1301022861       -3.8700796465  W2        9281            0.0000000000
     27842      9281  TIP3      H1              4.1990633595      -21.0618622861       -3.9011096465  W2        9281            0.0000000000
     27843      9281  TIP3      H2              4.2283833595      -19.8556022861       -2.9867996465  W2        9281            0.0000000000
     27844      9282  TIP3      OH2             9.8434933595      -21.6786022861      -16.6608596465  W2        9282            0.0000000000
     27845      9282  TIP3      H1             10.0824733595      -22.4267922861      -17.2079696465  W2        9282            0.0000000000
     27846      9282  TIP3      H2              9.5746233595      -22.0664322861      -15.8280796465  W2        9282            0.0000000000
     27847      9283  TIP3      OH2             8.7805533595      -22.1082222861      -14.2045996465  W2        9283            0.0000000000
     27848      9283  TIP3      H1              8.9273533595      -22.6282422861      -13.4145096465  W2        9283            0.0000000000
     27849      9283  TIP3      H2              8.7777233595      -21.2014622861      -13.8980096465  W2        9283            0.0000000000
     27850      9284  TIP3      OH2             5.2336633595      -24.8558922861      -13.6940596465  W2        9284            0.0000000000
     27851      9284  TIP3      H1              4.5475933595      -24.5036422861      -13.1270896465  W2        9284            0.0000000000
     27852      9284  TIP3      H2              5.7564533595      -24.0929322861      -13.9406296465  W2        9284            0.0000000000
     27853      9285  TIP3      OH2            13.0651733595      -32.1935122861       -3.4151596465  W2        9285            0.0000000000
     27854      9285  TIP3      H1             13.7639633595      -32.1196422861       -2.7651896465  W2        9285            0.0000000000
     27855      9285  TIP3      H2             12.6843133595      -33.0580122861       -3.2608696465  W2        9285            0.0000000000
     27856      9286  TIP3      OH2            13.8496633595      -32.5413422861      -12.3179296465  W2        9286            0.0000000000
     27857      9286  TIP3      H1             14.0694933595      -32.0698022861      -13.1213896465  W2        9286            0.0000000000
     27858      9286  TIP3      H2             14.4080633595      -32.1470822861      -11.6478696465  W2        9286            0.0000000000
     27859      9287  TIP3      OH2            11.5182733595      -20.4108622861      -13.4551796465  W2        9287            0.0000000000
     27860      9287  TIP3      H1             10.7018833595      -19.9138922861      -13.4027496465  W2        9287            0.0000000000
     27861      9287  TIP3      H2             12.0479033595      -19.9355122861      -14.0952996465  W2        9287            0.0000000000
     27862      9288  TIP3      OH2            11.0496533595      -30.8134622861      -11.4830896465  W2        9288            0.0000000000
     27863      9288  TIP3      H1             11.8619133595      -30.3091422861      -11.4369196465  W2        9288            0.0000000000
     27864      9288  TIP3      H2             10.8049533595      -30.9584922861      -10.5691296465  W2        9288            0.0000000000
     27865      9289  TIP3      OH2            11.5852933595      -29.8271922861       -2.2984296465  W2        9289            0.0000000000
     27866      9289  TIP3      H1             11.7043233595      -29.2536522861       -1.5413896465  W2        9289            0.0000000000
     27867      9289  TIP3      H2             12.2407533595      -30.5152522861       -2.1836496465  W2        9289            0.0000000000
     27868      9290  TIP3      OH2            11.9333233595      -33.7321622861      -10.5449796465  W2        9290            0.0000000000
     27869      9290  TIP3      H1             11.5866733595      -33.1151022861       -9.9005496465  W2        9290            0.0000000000
     27870      9290  TIP3      H2             12.5920133595      -33.2315922861      -11.0264296465  W2        9290            0.0000000000
     27871      9291  TIP3      OH2             8.8565833595      -19.3671422861      -13.4734896465  W2        9291            0.0000000000
     27872      9291  TIP3      H1              9.0174533595      -18.5673922861      -13.9742296465  W2        9291            0.0000000000
     27873      9291  TIP3      H2              8.6593633595      -19.0605422861      -12.5884296465  W2        9291            0.0000000000
     27874      9292  TIP3      OH2             7.5910233595      -32.6692222861      -13.8577296465  W2        9292            0.0000000000
     27875      9292  TIP3      H1              7.5075033595      -31.7809122861      -13.5110896465  W2        9292            0.0000000000
     27876      9292  TIP3      H2              8.4810533595      -32.9345522861      -13.6260496465  W2        9292            0.0000000000
     27877      9293  TIP3      OH2            17.7898733595      -31.9201622861       -1.4634596465  W2        9293            0.0000000000
     27878      9293  TIP3      H1             16.8734533595      -31.6579922861       -1.5510896465  W2        9293            0.0000000000
     27879      9293  TIP3      H2             18.1253733595      -31.9232622861       -2.3599296465  W2        9293            0.0000000000
     27880      9294  TIP3      OH2            16.3919733595      -28.1700622861       -7.3677296465  W2        9294            0.0000000000
     27881      9294  TIP3      H1             15.5944133595      -28.5850422861       -7.6962296465  W2        9294            0.0000000000
     27882      9294  TIP3      H2             16.8370833595      -28.8606922861       -6.8766796465  W2        9294            0.0000000000
     27883      9295  TIP3      OH2             5.8495533595      -22.2420022861      -14.7972796465  W2        9295            0.0000000000
     27884      9295  TIP3      H1              6.4417033595      -21.5425222861      -14.5210396465  W2        9295            0.0000000000
     27885      9295  TIP3      H2              6.3088533595      -22.6750522861      -15.5168196465  W2        9295            0.0000000000
     27886      9296  TIP3      OH2             4.1654733595      -29.5777022861      -15.6813396465  W2        9296            0.0000000000
     27887      9296  TIP3      H1              4.1207333595      -28.6383922861      -15.5026396465  W2        9296            0.0000000000
     27888      9296  TIP3      H2              3.2777933595      -29.8132122861      -15.9511296465  W2        9296            0.0000000000
     27889      9297  TIP3      OH2            17.4784333595      -18.9138122861       -5.7453796465  W2        9297            0.0000000000
     27890      9297  TIP3      H1             17.3228633595      -18.2353722861       -6.4024496465  W2        9297            0.0000000000
     27891      9297  TIP3      H2             18.4110733595      -18.8418822861       -5.5423196465  W2        9297            0.0000000000
     27892      9298  TIP3      OH2             4.9736733595      -34.7960422861       -7.0082396465  W2        9298            0.0000000000
     27893      9298  TIP3      H1              4.7446533595      -34.7367922861       -7.9357396465  W2        9298            0.0000000000
     27894      9298  TIP3      H2              4.5310133595      -35.5874922861       -6.7018296465  W2        9298            0.0000000000
     27895      9299  TIP3      OH2             3.9040033595      -20.8553322861      -10.8476596465  W2        9299            0.0000000000
     27896      9299  TIP3      H1              3.0718633595      -20.3830622861      -10.8205196465  W2        9299            0.0000000000
     27897      9299  TIP3      H2              4.4498333595      -20.3455722861      -11.4463496465  W2        9299            0.0000000000
     27898      9300  TIP3      OH2             3.1923733595      -18.2429622861        0.4821403535  W2        9300            0.0000000000
     27899      9300  TIP3      H1              3.7325933595      -18.4595622861        1.2420603535  W2        9300            0.0000000000
     27900      9300  TIP3      H2              2.7111733595      -19.0483622861        0.2923903535  W2        9300            0.0000000000
     27901      9301  TIP3      OH2             7.7897133595      -19.3235222861        2.1025603535  W2        9301            0.0000000000
     27902      9301  TIP3      H1              8.5574333595      -19.7824422861        2.4434803535  W2        9301            0.0000000000
     27903      9301  TIP3      H2              7.7683333595      -19.5495422861        1.1726803535  W2        9301            0.0000000000
     27904      9302  TIP3      OH2            11.8816733595      -19.8154622861      -16.5222596465  W2        9302            0.0000000000
     27905      9302  TIP3      H1             11.2377733595      -20.4466022861      -16.2008896465  W2        9302            0.0000000000
     27906      9302  TIP3      H2             12.6435033595      -20.3466622861      -16.7539096465  W2        9302            0.0000000000
     27907      9303  TIP3      OH2            14.3665833595      -20.9434122861        0.8317103535  W2        9303            0.0000000000
     27908      9303  TIP3      H1             14.0155333595      -21.8001122861        1.0747503535  W2        9303            0.0000000000
     27909      9303  TIP3      H2             15.0929033595      -20.8007422861        1.4386103535  W2        9303            0.0000000000
     27910      9304  TIP3      OH2            16.4859633595      -19.9984722861      -16.2884596465  W2        9304            0.0000000000
     27911      9304  TIP3      H1             16.7690033595      -20.7929522861      -15.8357696465  W2        9304            0.0000000000
     27912      9304  TIP3      H2             17.2257533595      -19.7653722861      -16.8493496465  W2        9304            0.0000000000
     27913      9305  TIP3      OH2             3.0993233595      -24.4325522861        1.4365703535  W2        9305            0.0000000000
     27914      9305  TIP3      H1              3.2433733595      -25.3344822861        1.1502403535  W2        9305            0.0000000000
     27915      9305  TIP3      H2              2.3270633595      -24.1463422861        0.9488003535  W2        9305            0.0000000000
     27916      9306  TIP3      OH2             7.4406933595      -24.0889822861      -16.4309696465  W2        9306            0.0000000000
     27917      9306  TIP3      H1              7.5051033595      -24.8830222861      -15.9003296465  W2        9306            0.0000000000
     27918      9306  TIP3      H2              8.0936133595      -24.2077022861      -17.1207696465  W2        9306            0.0000000000
     27919      9307  TIP3      OH2             9.7549333595      -24.4627422861        0.8692103535  W2        9307            0.0000000000
     27920      9307  TIP3      H1              9.4263133595      -24.1919322861        0.0119503535  W2        9307            0.0000000000
     27921      9307  TIP3      H2              9.9067533595      -25.4037622861        0.7817103535  W2        9307            0.0000000000
     27922      9308  TIP3      OH2            12.7930333595      -23.0418122861      -16.6951696465  W2        9308            0.0000000000
     27923      9308  TIP3      H1             12.5244433595      -22.8616022861      -15.7942796465  W2        9308            0.0000000000
     27924      9308  TIP3      H2             12.5865933595      -23.9671922861      -16.8265896465  W2        9308            0.0000000000
     27925      9309  TIP3      OH2            15.4894533595      -24.5470122861       -1.7475596465  W2        9309            0.0000000000
     27926      9309  TIP3      H1             16.2349333595      -23.9586422861       -1.8671596465  W2        9309            0.0000000000
     27927      9309  TIP3      H2             14.7321333595      -23.9650422861       -1.6842496465  W2        9309            0.0000000000
     27928      9310  TIP3      OH2             3.9319733595      -27.2322222861        0.8565003535  W2        9310            0.0000000000
     27929      9310  TIP3      H1              4.3400933595      -28.0895622861        0.7355603535  W2        9310            0.0000000000
     27930      9310  TIP3      H2              3.6717333595      -27.2180922861        1.7775303535  W2        9310            0.0000000000
     27931      9311  TIP3      OH2             8.5900733595      -26.1163622861      -14.1251696465  W2        9311            0.0000000000
     27932      9311  TIP3      H1              8.1302733595      -26.6005322861      -13.4393196465  W2        9311            0.0000000000
     27933      9311  TIP3      H2              8.8449433595      -26.7848222861      -14.7611196465  W2        9311            0.0000000000
     27934      9312  TIP3      OH2             7.8790033595      -28.2236522861       -1.7692096465  W2        9312            0.0000000000
     27935      9312  TIP3      H1              7.2606133595      -27.5489922861       -1.4887396465  W2        9312            0.0000000000
     27936      9312  TIP3      H2              8.2231233595      -27.9022622861       -2.6025896465  W2        9312            0.0000000000
     27937      9313  TIP3      OH2             9.6611133595      -27.8731822861      -15.8628496465  W2        9313            0.0000000000
     27938      9313  TIP3      H1              9.4806133595      -28.0280622861      -16.7900196465  W2        9313            0.0000000000
     27939      9313  TIP3      H2             10.6111633595      -27.7653122861      -15.8180596465  W2        9313            0.0000000000
     27940      9314  TIP3      OH2            12.8988233595      -25.7521222861        1.5082703535  W2        9314            0.0000000000
     27941      9314  TIP3      H1             13.8519433595      -25.6682122861        1.4808703535  W2        9314            0.0000000000
     27942      9314  TIP3      H2             12.7382833595      -26.4639422861        2.1277603535  W2        9314            0.0000000000
     27943      9315  TIP3      OH2            19.0509433595      -25.5187622861      -16.4170396465  W2        9315            0.0000000000
     27944      9315  TIP3      H1             18.7774233595      -25.9432122861      -17.2302096465  W2        9315            0.0000000000
     27945      9315  TIP3      H2             19.0903533595      -24.5873122861      -16.6339996465  W2        9315            0.0000000000
     27946      9316  TIP3      OH2             8.2183733595      -30.8685722861       -0.6868996465  W2        9316            0.0000000000
     27947      9316  TIP3      H1              8.3684633595      -31.5974422861       -1.2889296465  W2        9316            0.0000000000
     27948      9316  TIP3      H2              8.2206133595      -30.0914022861       -1.2456796465  W2        9316            0.0000000000
     27949      9317  TIP3      OH2             8.6309433595      -32.4989922861       -3.1941596465  W2        9317            0.0000000000
     27950      9317  TIP3      H1              9.1666933595      -32.0473222861       -3.8462296465  W2        9317            0.0000000000
     27951      9317  TIP3      H2              7.7789033595      -32.6070122861       -3.6167496465  W2        9317            0.0000000000
     27952      9318  TIP3      OH2            10.2127833595      -27.0593722861       -2.9546396465  W2        9318            0.0000000000
     27953      9318  TIP3      H1             10.9632633595      -27.2156222861       -3.5278596465  W2        9318            0.0000000000
     27954      9318  TIP3      H2              9.8736133595      -26.2077122861       -3.2300896465  W2        9318            0.0000000000
     27955      9319  TIP3      OH2            14.6284033595      -29.2441922861        2.0738903535  W2        9319            0.0000000000
     27956      9319  TIP3      H1             14.8205333595      -30.1752522861        1.9623403535  W2        9319            0.0000000000
     27957      9319  TIP3      H2             15.4860333595      -28.8192422861        2.0634303535  W2        9319            0.0000000000
     27958      9320  TIP3      OH2            15.9451233595      -26.4556722861        0.1511603535  W2        9320            0.0000000000
     27959      9320  TIP3      H1             15.6636233595      -25.7462122861       -0.4264596465  W2        9320            0.0000000000
     27960      9320  TIP3      H2             16.8875533595      -26.5283722861        0.0002803535  W2        9320            0.0000000000
     27961      9321  TIP3      OH2             6.6970033595      -29.6702222861        1.2246603535  W2        9321            0.0000000000
     27962      9321  TIP3      H1              5.9299033595      -30.2027422861        1.0144203535  W2        9321            0.0000000000
     27963      9321  TIP3      H2              7.3759033595      -29.9801822861        0.6252903535  W2        9321            0.0000000000
     27964      9322  TIP3      OH2             9.4364933595      -35.0424222861       -2.7627996465  W2        9322            0.0000000000
     27965      9322  TIP3      H1              9.3384533595      -34.0961022861       -2.8681796465  W2        9322            0.0000000000
     27966      9322  TIP3      H2              8.6941133595      -35.4150422861       -3.2384496465  W2        9322            0.0000000000
     27967      9323  TIP3      OH2            10.7005433595      -30.7208822861        0.8010403535  W2        9323            0.0000000000
     27968      9323  TIP3      H1             10.4650833595      -30.9402122861        1.7025303535  W2        9323            0.0000000000
     27969      9323  TIP3      H2              9.9172333595      -30.9277622861        0.2912903535  W2        9323            0.0000000000
     27970      9324  TIP3      OH2            13.4162033595      -31.5935322861       -0.1236096465  W2        9324            0.0000000000
     27971      9324  TIP3      H1             12.4687433595      -31.5615622861        0.0087203535  W2        9324            0.0000000000
     27972      9324  TIP3      H2             13.7288733595      -32.2188222861        0.5302103535  W2        9324            0.0000000000
     27973      9325  TIP3      OH2            15.0503533595      -32.9594222861        1.8815803535  W2        9325            0.0000000000
     27974      9325  TIP3      H1             14.9535333595      -33.9116922861        1.8757703535  W2        9325            0.0000000000
     27975      9325  TIP3      H2             14.7286633595      -32.6907422861        2.7421303535  W2        9325            0.0000000000
     27976      9326  TIP3      OH2             4.8772833595      -31.7498422861        0.9291303535  W2        9326            0.0000000000
     27977      9326  TIP3      H1              5.0890233595      -32.4562322861        0.3188803535  W2        9326            0.0000000000
     27978      9326  TIP3      H2              4.7660333595      -32.1872422861        1.7732503535  W2        9326            0.0000000000
     27979      9327  TIP3      OH2             9.6583033595      -35.7486822861       -0.0915196465  W2        9327            0.0000000000
     27980      9327  TIP3      H1             10.3701433595      -36.3884622861       -0.1056096465  W2        9327            0.0000000000
     27981      9327  TIP3      H2              9.5573433595      -35.4818522861       -1.0052096465  W2        9327            0.0000000000
     27982      9328  TIP3      OH2            10.0120533595      -34.0658422861        1.9621103535  W2        9328            0.0000000000
     27983      9328  TIP3      H1              9.8802733595      -34.5414622861        1.1419603535  W2        9328            0.0000000000
     27984      9328  TIP3      H2              9.4127933595      -33.3214822861        1.9068203535  W2        9328            0.0000000000
     27985      9329  TIP3      OH2             9.5582833595      -17.1828122861      -14.8614896465  W2        9329            0.0000000000
     27986      9329  TIP3      H1             10.4913533595      -17.0249422861      -14.7176496465  W2        9329            0.0000000000
     27987      9329  TIP3      H2              9.2941633595      -16.5075122861      -15.4863396465  W2        9329            0.0000000000
     27988      9330  TIP3      OH2             3.1267733595      -22.5464322861      -15.3786796465  W2        9330            0.0000000000
     27989      9330  TIP3      H1              4.0406933595      -22.4675422861      -15.1052896465  W2        9330            0.0000000000
     27990      9330  TIP3      H2              3.1340833595      -23.2334722861      -16.0451196465  W2        9330            0.0000000000
     27991      9331  TIP3      OH2             1.7758333595      -17.1535822861      -10.3012896465  W2        9331            0.0000000000
     27992      9331  TIP3      H1              1.1285433595      -17.6154122861      -10.8341696465  W2        9331            0.0000000000
     27993      9331  TIP3      H2              2.1302933595      -17.8252522861       -9.7186696465  W2        9331            0.0000000000
     27994      9332  TIP3      OH2             2.6457533595      -19.0728822861       -8.4966696465  W2        9332            0.0000000000
     27995      9332  TIP3      H1              2.3114333595      -19.9531522861       -8.3246496465  W2        9332            0.0000000000
     27996      9332  TIP3      H2              2.8679933595      -18.7273822861       -7.6321096465  W2        9332            0.0000000000
     27997      9333  TIP3      OH2            20.1942333595      -18.2632422861       -5.5161896465  W2        9333            0.0000000000
     27998      9333  TIP3      H1             20.1729033595      -18.0784022861       -4.5772496465  W2        9333            0.0000000000
     27999      9333  TIP3      H2             20.8848533595      -17.6948422861       -5.8570496465  W2        9333            0.0000000000
     28000      9334  TIP3      OH2            19.7575233595      -18.6961322861       -2.5942796465  W2        9334            0.0000000000
     28001      9334  TIP3      H1             19.2703933595      -19.4317222861       -2.9655396465  W2        9334            0.0000000000
     28002      9334  TIP3      H2             20.3067933595      -19.0897422861       -1.9163396465  W2        9334            0.0000000000
     28003      9335  TIP3      OH2            18.2082533595      -22.9063222861        2.0437503535  W2        9335            0.0000000000
     28004      9335  TIP3      H1             17.3423633595      -23.0113522861        2.4379803535  W2        9335            0.0000000000
     28005      9335  TIP3      H2             18.5848433595      -22.1479922861        2.4902203535  W2        9335            0.0000000000
     28006      9336  TIP3      OH2            19.5092233595      -24.6499522861      -12.4419996465  W2        9336            0.0000000000
     28007      9336  TIP3      H1             20.3593633595      -24.2288622861      -12.3148396465  W2        9336            0.0000000000
     28008      9336  TIP3      H2             19.5147333595      -25.3899422861      -11.8348596465  W2        9336            0.0000000000
     28009      9337  TIP3      OH2            19.9037833595      -26.5962122861      -10.6184296465  W2        9337            0.0000000000
     28010      9337  TIP3      H1             19.1772433595      -27.0759522861      -10.2206696465  W2        9337            0.0000000000
     28011      9337  TIP3      H2             20.4851133595      -26.3907422861       -9.8862696465  W2        9337            0.0000000000
     28012      9338  TIP3      OH2            19.6629033595      -23.8114622861       -5.6706696465  W2        9338            0.0000000000
     28013      9338  TIP3      H1             20.4963233595      -24.1894622861       -5.9513096465  W2        9338            0.0000000000
     28014      9338  TIP3      H2             19.7749333595      -22.8683422861       -5.7897596465  W2        9338            0.0000000000
     28015      9339  TIP3      OH2            18.1491333595      -20.9337122861       -3.3638296465  W2        9339            0.0000000000
     28016      9339  TIP3      H1             17.5016633595      -20.6085622861       -2.7383096465  W2        9339            0.0000000000
     28017      9339  TIP3      H2             17.6315333595      -21.3739422861       -4.0379996465  W2        9339            0.0000000000
     28018      9340  TIP3      OH2            20.1720933595      -26.6953622861      -14.2272996465  W2        9340            0.0000000000
     28019      9340  TIP3      H1             19.6502033595      -26.3389522861      -14.9462096465  W2        9340            0.0000000000
     28020      9340  TIP3      H2             20.1390133595      -26.0205822861      -13.5492096465  W2        9340            0.0000000000
     28021      9341  TIP3      OH2            18.5209933595      -29.4558022861      -15.6765896465  W2        9341            0.0000000000
     28022      9341  TIP3      H1             18.6174333595      -28.7891022861      -16.3566196465  W2        9341            0.0000000000
     28023      9341  TIP3      H2             18.3809533595      -30.2711722861      -16.1580396465  W2        9341            0.0000000000
     28024      9342  TIP3      OH2            17.6904633595      -28.0755622861      -10.0555596465  W2        9342            0.0000000000
     28025      9342  TIP3      H1             17.5403433595      -29.0207022861      -10.0757796465  W2        9342            0.0000000000
     28026      9342  TIP3      H2             17.3369133595      -27.7944222861       -9.2116496465  W2        9342            0.0000000000
     28027      9343  TIP3      OH2             2.7257033595      -25.9973422861       -6.0451796465  W2        9343            0.0000000000
     28028      9343  TIP3      H1              2.9099933595      -26.0791722861       -6.9808896465  W2        9343            0.0000000000
     28029      9343  TIP3      H2              3.5749933595      -26.1216422861       -5.6215396465  W2        9343            0.0000000000
     28030      9344  TIP3      OH2            18.5467533595      -26.1052322861       -0.4167296465  W2        9344            0.0000000000
     28031      9344  TIP3      H1             19.1294833595      -26.8400022861       -0.2250096465  W2        9344            0.0000000000
     28032      9344  TIP3      H2             19.1106833595      -25.3332022861       -0.3701496465  W2        9344            0.0000000000
     28033      9345  TIP3      OH2            20.0434633595      -28.2026522861        0.2678103535  W2        9345            0.0000000000
     28034      9345  TIP3      H1             19.1801333595      -28.5814422861        0.1022803535  W2        9345            0.0000000000
     28035      9345  TIP3      H2             20.6478333595      -28.9411722861        0.1933903535  W2        9345            0.0000000000
     28036      9346  TIP3      OH2            17.7683733595      -32.0478222861      -16.5590396465  W2        9346            0.0000000000
     28037      9346  TIP3      H1             18.3789533595      -32.4191422861      -15.9222196465  W2        9346            0.0000000000
     28038      9346  TIP3      H2             16.9315233595      -32.4691322861      -16.3630396465  W2        9346            0.0000000000
     28039      9347  TIP3      OH2            17.4009433595      -30.4929822861      -11.5930496465  W2        9347            0.0000000000
     28040      9347  TIP3      H1             17.6806533595      -31.3999422861      -11.4688796465  W2        9347            0.0000000000
     28041      9347  TIP3      H2             18.1601133595      -30.0588322861      -11.9821296465  W2        9347            0.0000000000
     28042      9348  TIP3      OH2            18.0127733595      -29.9112422861       -6.1571596465  W2        9348            0.0000000000
     28043      9348  TIP3      H1             18.9455733595      -29.6992522861       -6.1915596465  W2        9348            0.0000000000
     28044      9348  TIP3      H2             17.7775233595      -29.8100322861       -5.2348596465  W2        9348            0.0000000000
     28045      9349  TIP3      OH2            18.0419633595      -29.1747122861       -3.3812196465  W2        9349            0.0000000000
     28046      9349  TIP3      H1             17.1990933595      -28.9066722861       -3.0152396465  W2        9349            0.0000000000
     28047      9349  TIP3      H2             18.4843933595      -28.3525222861       -3.5921096465  W2        9349            0.0000000000
     28048      9350  TIP3      OH2             2.3231833595      -30.7268422861        0.0957003535  W2        9350            0.0000000000
     28049      9350  TIP3      H1              3.2426733595      -30.8490122861        0.3320103535  W2        9350            0.0000000000
     28050      9350  TIP3      H2              1.8736333595      -31.4768722861        0.4850503535  W2        9350            0.0000000000
     28051      9351  TIP3      OH2            20.3251233595      -35.1946922861        1.9722803535  W2        9351            0.0000000000
     28052      9351  TIP3      H1             20.6748233595      -35.8483422861        1.3667503535  W2        9351            0.0000000000
     28053      9351  TIP3      H2             20.4720733595      -34.3572822861        1.5325403535  W2        9351            0.0000000000
     28054      9352  TIP3      OH2            18.0144233595      -33.2300522861      -11.5448496465  W2        9352            0.0000000000
     28055      9352  TIP3      H1             18.1969233595      -33.6789022861      -10.7193496465  W2        9352            0.0000000000
     28056      9352  TIP3      H2             17.4147133595      -33.8146122861      -12.0083896465  W2        9352            0.0000000000
     28057      9353  TIP3      OH2             3.5444333595      -32.4146822861       -7.0130096465  W2        9353            0.0000000000
     28058      9353  TIP3      H1              3.9895933595      -33.2064322861       -6.7110396465  W2        9353            0.0000000000
     28059      9353  TIP3      H2              4.0107333595      -31.6981622861       -6.5824496465  W2        9353            0.0000000000
     28060      9354  TIP3      OH2             1.8484633595      -29.4153822861       -5.9439896465  W2        9354            0.0000000000
     28061      9354  TIP3      H1              2.3404433595      -29.6363322861       -6.7347896465  W2        9354            0.0000000000
     28062      9354  TIP3      H2              2.2105533595      -28.5750422861       -5.6630396465  W2        9354            0.0000000000
     28063      9355  TIP3      OH2            19.8448433595      -33.0852322861        0.3214103535  W2        9355            0.0000000000
     28064      9355  TIP3      H1             18.9274133595      -32.8145222861        0.2857603535  W2        9355            0.0000000000
     28065      9355  TIP3      H2             19.9677833595      -33.6203922861       -0.4626196465  W2        9355            0.0000000000
     28066      9356  TIP3      OH2            19.8810433595      -33.1622422861      -15.0168196465  W2        9356            0.0000000000
     28067      9356  TIP3      H1             20.2933033595      -33.8836722861      -15.4920196465  W2        9356            0.0000000000
     28068      9356  TIP3      H2             20.5626933595      -32.4927822861      -14.9583896465  W2        9356            0.0000000000
     28069      9357  TIP3      OH2             2.1621133595      -33.1574722861      -11.8897496465  W2        9357            0.0000000000
     28070      9357  TIP3      H1              1.2369533595      -32.9488122861      -12.0191996465  W2        9357            0.0000000000
     28071      9357  TIP3      H2              2.6161033595      -32.6733922861      -12.5795196465  W2        9357            0.0000000000
     28072      9358  TIP3      OH2            16.9328333595      -18.1733022861       -9.9440096465  W2        9358            0.0000000000
     28073      9358  TIP3      H1             17.5851233595      -18.5210922861      -10.5520996465  W2        9358            0.0000000000
     28074      9358  TIP3      H2             17.4432133595      -17.6849822861       -9.2980396465  W2        9358            0.0000000000
     28075      9359  TIP3      OH2             2.1256533595      -34.4195722861       -3.5454996465  W2        9359            0.0000000000
     28076      9359  TIP3      H1              1.4607033595      -34.6655422861       -2.9024096465  W2        9359            0.0000000000
     28077      9359  TIP3      H2              1.6827833595      -33.7975322861       -4.1226996465  W2        9359            0.0000000000
     28078      9360  TIP3      OH2             4.3175833595      -21.2441622861        0.5990803535  W2        9360            0.0000000000
     28079      9360  TIP3      H1              3.4968333595      -21.0695122861        0.1385503535  W2        9360            0.0000000000
     28080      9360  TIP3      H2              4.0653633595      -21.3176922861        1.5195203535  W2        9360            0.0000000000
     28081      9361  TIP3      OH2             7.2718733595      -20.2700422861       -3.1425196465  W2        9361            0.0000000000
     28082      9361  TIP3      H1              6.8469833595      -19.4601922861       -3.4250596465  W2        9361            0.0000000000
     28083      9361  TIP3      H2              8.1761533595      -20.1846322861       -3.4445396465  W2        9361            0.0000000000
     28084      9362  TIP3      OH2            11.5830133595      -18.8710422861       -0.1831496465  W2        9362            0.0000000000
     28085      9362  TIP3      H1             11.7677633595      -19.2044322861        0.6948803535  W2        9362            0.0000000000
     28086      9362  TIP3      H2             12.4294633595      -18.5611822861       -0.5052296465  W2        9362            0.0000000000
     28087      9363  TIP3      OH2            13.9280533595      -17.5851522861       -0.9390096465  W2        9363            0.0000000000
     28088      9363  TIP3      H1             14.6049433595      -18.2179222861       -1.1790896465  W2        9363            0.0000000000
     28089      9363  TIP3      H2             14.2499333595      -17.1841022861       -0.1316796465  W2        9363            0.0000000000
     28090      9364  TIP3      OH2            18.8454333595      -34.9956022861       -1.8595096465  W2        9364            0.0000000000
     28091      9364  TIP3      H1             18.0327833595      -34.6705722861       -2.2470396465  W2        9364            0.0000000000
     28092      9364  TIP3      H2             19.0782833595      -35.7557522861       -2.3925996465  W2        9364            0.0000000000
     28093      9365  TIP3      OH2             4.6735433595      -17.0136522861       -3.0949896465  W2        9365            0.0000000000
     28094      9365  TIP3      H1              3.9531833595      -16.5735522861       -3.5462196465  W2        9365            0.0000000000
     28095      9365  TIP3      H2              4.3079433595      -17.2641822861       -2.2465896465  W2        9365            0.0000000000
     28096      9366  TIP3      OH2             7.1408033595      -17.4132622861       -4.0652696465  W2        9366            0.0000000000
     28097      9366  TIP3      H1              6.2760233595      -17.3414122861       -3.6612596465  W2        9366            0.0000000000
     28098      9366  TIP3      H2              7.0857033595      -16.8665322861       -4.8490196465  W2        9366            0.0000000000
     28099      9367  TIP3      OH2            11.8513633595      -17.5253722861       -4.8896696465  W2        9367            0.0000000000
     28100      9367  TIP3      H1             11.3947633595      -16.9964022861       -5.5438296465  W2        9367            0.0000000000
     28101      9367  TIP3      H2             12.0141633595      -16.9222322861       -4.1644396465  W2        9367            0.0000000000
     28102      9368  TIP3      OH2            14.1789933595      -18.6474122861       -3.9446396465  W2        9368            0.0000000000
     28103      9368  TIP3      H1             13.2743633595      -18.4823922861       -4.2104296465  W2        9368            0.0000000000
     28104      9368  TIP3      H2             14.6078533595      -17.7941922861       -4.0102996465  W2        9368            0.0000000000
     28105      9369  TIP3      OH2            16.7831833595      -17.0775022861       -3.6498596465  W2        9369            0.0000000000
     28106      9369  TIP3      H1             16.6013833595      -16.1616122861       -3.8603696465  W2        9369            0.0000000000
     28107      9369  TIP3      H2             16.9599633595      -17.4877922861       -4.4963996465  W2        9369            0.0000000000
     28108      9370  TIP3      OH2             4.0883533595      -18.3904022861       -6.1848096465  W2        9370            0.0000000000
     28109      9370  TIP3      H1              4.0699533595      -18.8158922861       -5.3275796465  W2        9370            0.0000000000
     28110      9370  TIP3      H2              4.8931433595      -18.7089022861       -6.5935896465  W2        9370            0.0000000000
     28111      9371  TIP3      OH2             6.2296633595      -19.6805322861       -7.5298196465  W2        9371            0.0000000000
     28112      9371  TIP3      H1              6.0107333595      -20.5967922861       -7.3602196465  W2        9371            0.0000000000
     28113      9371  TIP3      H2              7.0538833595      -19.5404922861       -7.0636796465  W2        9371            0.0000000000
     28114      9372  TIP3      OH2             8.7669133595      -19.2106022861       -6.6810196465  W2        9372            0.0000000000
     28115      9372  TIP3      H1              8.9794833595      -20.0987022861       -6.9679296465  W2        9372            0.0000000000
     28116      9372  TIP3      H2              8.8314233595      -19.2448322861       -5.7266196465  W2        9372            0.0000000000
     28117      9373  TIP3      OH2            12.2752833595      -33.5465422861       -7.5366896465  W2        9373            0.0000000000
     28118      9373  TIP3      H1             11.6009633595      -34.1759822861       -7.2811096465  W2        9373            0.0000000000
     28119      9373  TIP3      H2             12.8392033595      -34.0306522861       -8.1398996465  W2        9373            0.0000000000
     28120      9374  TIP3      OH2            17.4180033595      -35.4391422861       -7.4239796465  W2        9374            0.0000000000
     28121      9374  TIP3      H1             18.0217633595      -34.8916022861       -7.9258796465  W2        9374            0.0000000000
     28122      9374  TIP3      H2             16.5482033595      -35.1201022861       -7.6645696465  W2        9374            0.0000000000
     28123      9375  TIP3      OH2            19.1450433595      -34.3002722861       -9.0908896465  W2        9375            0.0000000000
     28124      9375  TIP3      H1             19.7567933595      -34.8147022861       -9.6175296465  W2        9375            0.0000000000
     28125      9375  TIP3      H2             19.5273833595      -33.4230622861       -9.0674496465  W2        9375            0.0000000000
     28126      9376  TIP3      OH2             4.6020333595      -34.9125122861       -9.7146996465  W2        9376            0.0000000000
     28127      9376  TIP3      H1              3.8250133595      -35.1470222861      -10.2221096465  W2        9376            0.0000000000
     28128      9376  TIP3      H2              5.1323933595      -35.7093022861       -9.7058996465  W2        9376            0.0000000000
     28129      9377  TIP3      OH2             3.4383733595      -35.1147022861      -13.9110896465  W2        9377            0.0000000000
     28130      9377  TIP3      H1              3.8774433595      -34.5036522861      -14.5027396465  W2        9377            0.0000000000
     28131      9377  TIP3      H2              2.8046133595      -34.5762922861      -13.4370896465  W2        9377            0.0000000000
     28132      9378  TIP3      OH2             9.1812933595      -34.9858022861       -9.9013896465  W2        9378            0.0000000000
     28133      9378  TIP3      H1             10.0556333595      -34.5973722861       -9.9309596465  W2        9378            0.0000000000
     28134      9378  TIP3      H2              9.0453733595      -35.2010222861       -8.9786696465  W2        9378            0.0000000000
     28135      9379  TIP3      OH2            14.7381333595      -34.9558222861       -8.2522196465  W2        9379            0.0000000000
     28136      9379  TIP3      H1             14.8142933595      -34.8606622861       -9.2016196465  W2        9379            0.0000000000
     28137      9379  TIP3      H2             14.4630533595      -35.8635322861       -8.1233096465  W2        9379            0.0000000000
     28138      9380  TIP3      OH2            16.0913933595      -34.9300422861      -12.5597196465  W2        9380            0.0000000000
     28139      9380  TIP3      H1             15.3885033595      -34.3151222861      -12.7695796465  W2        9380            0.0000000000
     28140      9380  TIP3      H2             15.6465333595      -35.7673722861      -12.4286296465  W2        9380            0.0000000000
     28141      9381  TIP3      OH2             3.3393233595      -19.1664822861      -13.0135796465  W2        9381            0.0000000000
     28142      9381  TIP3      H1              2.6543133595      -19.2045922861      -13.6810696465  W2        9381            0.0000000000
     28143      9381  TIP3      H2              3.3430433595      -18.2537222861      -12.7253696465  W2        9381            0.0000000000
     28144      9382  TIP3      OH2             5.2992833595      -33.1985522861      -15.4686796465  W2        9382            0.0000000000
     28145      9382  TIP3      H1              5.7906233595      -33.8283122861      -15.9961296465  W2        9382            0.0000000000
     28146      9382  TIP3      H2              5.9229133595      -32.9026122861      -14.8055596465  W2        9382            0.0000000000
     28147      9383  TIP3      OH2            10.3252933595      -32.9054022861      -13.0116296465  W2        9383            0.0000000000
     28148      9383  TIP3      H1             10.5034233595      -33.5520822861      -12.3287696465  W2        9383            0.0000000000
     28149      9383  TIP3      H2             10.2719133595      -32.0716322861      -12.5445196465  W2        9383            0.0000000000
     28150      9384  TIP3      OH2            12.2036733595      -17.9569922861      -14.6159596465  W2        9384            0.0000000000
     28151      9384  TIP3      H1             13.0696933595      -17.5902522861      -14.7941396465  W2        9384            0.0000000000
     28152      9384  TIP3      H2             11.9569533595      -18.3961922861      -15.4298796465  W2        9384            0.0000000000
     28153      9385  TIP3      OH2            18.9126333595      -18.3939622861      -11.9368496465  W2        9385            0.0000000000
     28154      9385  TIP3      H1             18.7183433595      -19.1417522861      -12.5018896465  W2        9385            0.0000000000
     28155      9385  TIP3      H2             18.8736433595      -17.6359522861      -12.5200596465  W2        9385            0.0000000000
     28156      9386  TIP3      OH2             4.5598333595      -34.3983222861       -0.1970796465  W2        9386            0.0000000000
     28157      9386  TIP3      H1              4.1936533595      -35.1640622861        0.2453903535  W2        9386            0.0000000000
     28158      9386  TIP3      H2              5.4726833595      -34.3693022861        0.0894303535  W2        9386            0.0000000000
     28159      9387  TIP3      OH2             6.5329133595      -35.0478822861        1.3386303535  W2        9387            0.0000000000
     28160      9387  TIP3      H1              7.4312733595      -35.3218622861        1.1539703535  W2        9387            0.0000000000
     28161      9387  TIP3      H2              6.1462233595      -35.7902822861        1.8028903535  W2        9387            0.0000000000
     28162      9388  TIP3      OH2             5.1574433595      -18.2464022861      -15.9883696465  W2        9388            0.0000000000
     28163      9388  TIP3      H1              4.8899033595      -17.9601122861      -15.1150596465  W2        9388            0.0000000000
     28164      9388  TIP3      H2              5.9287033595      -18.7924822861      -15.8361196465  W2        9388            0.0000000000
     28165      9389  TIP3      OH2            14.9541433595      -35.7153522861        1.5209103535  W2        9389            0.0000000000
     28166      9389  TIP3      H1             15.0308633595      -36.1412822861        2.3746803535  W2        9389            0.0000000000
     28167      9389  TIP3      H2             15.8478033595      -35.7018822861        1.1782603535  W2        9389            0.0000000000
     28168      9390  TIP3      OH2            18.1302533595      -19.6427222861        0.2133303535  W2        9390            0.0000000000
     28169      9390  TIP3      H1             17.3484433595      -19.8289222861       -0.3066096465  W2        9390            0.0000000000
     28170      9390  TIP3      H2             18.0582433595      -18.7132922861        0.4305803535  W2        9390            0.0000000000
     28171      9391  TIP3      OH2            32.5362933595      -25.7562822861       -9.7559496465  W2        9391            0.0000000000
     28172      9391  TIP3      H1             32.6254033595      -24.8124622861       -9.8882396465  W2        9391            0.0000000000
     28173      9391  TIP3      H2             31.8980533595      -26.0316422861      -10.4140096465  W2        9391            0.0000000000
     28174      9392  TIP3      OH2            31.4694233595      -26.5012122861       -6.3371296465  W2        9392            0.0000000000
     28175      9392  TIP3      H1             31.4311733595      -27.1475822861       -5.6321696465  W2        9392            0.0000000000
     28176      9392  TIP3      H2             31.1470733595      -26.9677722861       -7.1082596465  W2        9392            0.0000000000
     28177      9393  TIP3      OH2            23.8379233595      -26.8870022861       -4.7441396465  W2        9393            0.0000000000
     28178      9393  TIP3      H1             23.8791333595      -27.5126722861       -4.0208996465  W2        9393            0.0000000000
     28179      9393  TIP3      H2             24.5406933595      -26.2631422861       -4.5620996465  W2        9393            0.0000000000
     28180      9394  TIP3      OH2            35.1754433595      -23.5621722861       -8.0356196465  W2        9394            0.0000000000
     28181      9394  TIP3      H1             34.7347133595      -24.2825722861       -7.5850596465  W2        9394            0.0000000000
     28182      9394  TIP3      H2             35.1624133595      -22.8414522861       -7.4058496465  W2        9394            0.0000000000
     28183      9395  TIP3      OH2            24.7612333595      -22.4371122861       -6.2092296465  W2        9395            0.0000000000
     28184      9395  TIP3      H1             24.3917533595      -23.2390622861       -6.5787996465  W2        9395            0.0000000000
     28185      9395  TIP3      H2             25.7023433595      -22.6056222861       -6.1628896465  W2        9395            0.0000000000
     28186      9396  TIP3      OH2            21.3712833595      -28.7768522861      -10.8163496465  W2        9396            0.0000000000
     28187      9396  TIP3      H1             20.9236233595      -27.9309822861      -10.8346996465  W2        9396            0.0000000000
     28188      9396  TIP3      H2             20.8104033595      -29.3564322861      -11.3318396465  W2        9396            0.0000000000
     28189      9397  TIP3      OH2            22.0818933595      -26.6148922861       -8.6905496465  W2        9397            0.0000000000
     28190      9397  TIP3      H1             22.2952433595      -27.3847322861       -8.1632496465  W2        9397            0.0000000000
     28191      9397  TIP3      H2             22.8196533595      -26.5252222861       -9.2937896465  W2        9397            0.0000000000
     28192      9398  TIP3      OH2            32.2869933595      -18.4580022861       -7.8235796465  W2        9398            0.0000000000
     28193      9398  TIP3      H1             32.9066333595      -19.1345322861       -8.0966596465  W2        9398            0.0000000000
     28194      9398  TIP3      H2             32.0787333595      -18.6759222861       -6.9150896465  W2        9398            0.0000000000
     28195      9399  TIP3      OH2            29.8588633595      -24.0690722861       -5.9310296465  W2        9399            0.0000000000
     28196      9399  TIP3      H1             30.1626533595      -24.7549322861       -6.5256196465  W2        9399            0.0000000000
     28197      9399  TIP3      H2             30.5802633595      -23.9502022861       -5.3132296465  W2        9399            0.0000000000
     28198      9400  TIP3      OH2            38.5218433595      -32.4675422861       -5.0704096465  W2        9400            0.0000000000
     28199      9400  TIP3      H1             38.5710633595      -31.8574222861       -4.3344996465  W2        9400            0.0000000000
     28200      9400  TIP3      H2             38.9473533595      -32.0064522861       -5.7932996465  W2        9400            0.0000000000
     28201      9401  TIP3      OH2            32.9995633595      -29.6748322861       -5.6035496465  W2        9401            0.0000000000
     28202      9401  TIP3      H1             33.1421533595      -30.6211322861       -5.5833896465  W2        9401            0.0000000000
     28203      9401  TIP3      H2             32.8934633595      -29.4678522861       -6.5320596465  W2        9401            0.0000000000
     28204      9402  TIP3      OH2            26.1543933595      -31.5731922861       -8.3310696465  W2        9402            0.0000000000
     28205      9402  TIP3      H1             26.1975033595      -30.7133422861       -8.7494396465  W2        9402            0.0000000000
     28206      9402  TIP3      H2             25.6968033595      -32.1257222861       -8.9647496465  W2        9402            0.0000000000
     28207      9403  TIP3      OH2            33.8766633595      -31.4426322861       -9.9302396465  W2        9403            0.0000000000
     28208      9403  TIP3      H1             34.5230933595      -31.7713122861       -9.3054796465  W2        9403            0.0000000000
     28209      9403  TIP3      H2             34.3866033595      -30.9247322861      -10.5530996465  W2        9403            0.0000000000
     28210      9404  TIP3      OH2            22.7745433595      -29.1766122861       -7.5689296465  W2        9404            0.0000000000
     28211      9404  TIP3      H1             23.4282033595      -29.7264422861       -7.1369196465  W2        9404            0.0000000000
     28212      9404  TIP3      H2             22.7984733595      -29.4507122861       -8.4857296465  W2        9404            0.0000000000
     28213      9405  TIP3      OH2            27.9309933595      -27.6264822861       -8.3537796465  W2        9405            0.0000000000
     28214      9405  TIP3      H1             28.5470933595      -28.1529422861       -7.8443796465  W2        9405            0.0000000000
     28215      9405  TIP3      H2             27.3448733595      -28.2666122861       -8.7574196465  W2        9405            0.0000000000
     28216      9406  TIP3      OH2            38.9133033595      -30.9896222861       -2.8344296465  W2        9406            0.0000000000
     28217      9406  TIP3      H1             38.2247633595      -30.3315522861       -2.9297696465  W2        9406            0.0000000000
     28218      9406  TIP3      H2             38.9287633595      -31.1868322861       -1.8978896465  W2        9406            0.0000000000
     28219      9407  TIP3      OH2            24.9645833595      -32.6553522861       -4.2569896465  W2        9407            0.0000000000
     28220      9407  TIP3      H1             24.7457533595      -32.1252922861       -5.0233896465  W2        9407            0.0000000000
     28221      9407  TIP3      H2             24.2966733595      -32.4288022861       -3.6098496465  W2        9407            0.0000000000
     28222      9408  TIP3      OH2            32.3335633595      -23.1552422861      -10.7130796465  W2        9408            0.0000000000
     28223      9408  TIP3      H1             32.0380733595      -23.4780122861      -11.5643896465  W2        9408            0.0000000000
     28224      9408  TIP3      H2             32.0093433595      -22.2555722861      -10.6718196465  W2        9408            0.0000000000
     28225      9409  TIP3      OH2            27.5337233595      -24.9797822861       -3.9696196465  W2        9409            0.0000000000
     28226      9409  TIP3      H1             26.7936333595      -24.3816322861       -3.8660996465  W2        9409            0.0000000000
     28227      9409  TIP3      H2             28.2476733595      -24.4258222861       -4.2852596465  W2        9409            0.0000000000
     28228      9410  TIP3      OH2            35.6405033595      -32.1517022861       -7.9496496465  W2        9410            0.0000000000
     28229      9410  TIP3      H1             35.4253033595      -32.9173622861       -7.4170496465  W2        9410            0.0000000000
     28230      9410  TIP3      H2             36.2962433595      -31.6792422861       -7.4367996465  W2        9410            0.0000000000
     28231      9411  TIP3      OH2            24.5583133595      -30.7631722861       -6.3047696465  W2        9411            0.0000000000
     28232      9411  TIP3      H1             25.1719433595      -30.1304122861       -5.9315296465  W2        9411            0.0000000000
     28233      9411  TIP3      H2             25.0703833595      -31.2356722861       -6.9610796465  W2        9411            0.0000000000
     28234      9412  TIP3      OH2            25.9411533595      -23.0154822861       -3.1824696465  W2        9412            0.0000000000
     28235      9412  TIP3      H1             25.9359133595      -22.1361322861       -3.5605396465  W2        9412            0.0000000000
     28236      9412  TIP3      H2             25.0875633595      -23.0990722861       -2.7574796465  W2        9412            0.0000000000
     28237      9413  TIP3      OH2            22.0622433595      -23.3446922861      -12.4005396465  W2        9413            0.0000000000
     28238      9413  TIP3      H1             21.7903333595      -23.1155922861      -13.2892496465  W2        9413            0.0000000000
     28239      9413  TIP3      H2             22.1078133595      -22.5068122861      -11.9400096465  W2        9413            0.0000000000
     28240      9414  TIP3      OH2            35.6872133595      -21.7231022861       -5.6876896465  W2        9414            0.0000000000
     28241      9414  TIP3      H1             34.7455833595      -21.6647122861       -5.5259996465  W2        9414            0.0000000000
     28242      9414  TIP3      H2             35.9638233595      -20.8170522861       -5.8247196465  W2        9414            0.0000000000
     28243      9415  TIP3      OH2            35.9879133595      -33.4365722861       -4.2702996465  W2        9415            0.0000000000
     28244      9415  TIP3      H1             35.2518333595      -32.8258622861       -4.3081696465  W2        9415            0.0000000000
     28245      9415  TIP3      H2             36.6713133595      -33.0216722861       -4.7966596465  W2        9415            0.0000000000
     28246      9416  TIP3      OH2            28.9910533595      -35.3498422861       -6.8044996465  W2        9416            0.0000000000
     28247      9416  TIP3      H1             28.8734733595      -36.2982422861       -6.8586696465  W2        9416            0.0000000000
     28248      9416  TIP3      H2             28.1360633595      -35.0172322861       -6.5313896465  W2        9416            0.0000000000
     28249      9417  TIP3      OH2            33.9393333595      -19.9417522861       -9.0625296465  W2        9417            0.0000000000
     28250      9417  TIP3      H1             34.3645633595      -20.6489622861       -9.5475696465  W2        9417            0.0000000000
     28251      9417  TIP3      H2             34.2563333595      -19.1404822861       -9.4793096465  W2        9417            0.0000000000
     28252      9418  TIP3      OH2            35.0989833595      -22.0409022861      -10.5538696465  W2        9418            0.0000000000
     28253      9418  TIP3      H1             34.8414633595      -22.7308922861      -11.1652796465  W2        9418            0.0000000000
     28254      9418  TIP3      H2             35.1700633595      -22.4837822861       -9.7082796465  W2        9418            0.0000000000
     28255      9419  TIP3      OH2            36.7850033595      -23.4742322861       -2.0765196465  W2        9419            0.0000000000
     28256      9419  TIP3      H1             36.9246333595      -24.0659822861       -2.8158196465  W2        9419            0.0000000000
     28257      9419  TIP3      H2             36.9522833595      -22.6016422861       -2.4326396465  W2        9419            0.0000000000
     28258      9420  TIP3      OH2            31.2575433595      -26.5122822861      -12.3039196465  W2        9420            0.0000000000
     28259      9420  TIP3      H1             30.5460933595      -25.9773122861      -12.6558696465  W2        9420            0.0000000000
     28260      9420  TIP3      H2             31.9485033595      -26.4570722861      -12.9640296465  W2        9420            0.0000000000
     28261      9421  TIP3      OH2            31.3114633595      -28.0548522861      -15.2654196465  W2        9421            0.0000000000
     28262      9421  TIP3      H1             32.0124533595      -28.0321622861      -14.6140196465  W2        9421            0.0000000000
     28263      9421  TIP3      H2             31.6137533595      -28.6828822861      -15.9214896465  W2        9421            0.0000000000
     28264      9422  TIP3      OH2            38.6269333595      -27.1344322861       -4.0104796465  W2        9422            0.0000000000
     28265      9422  TIP3      H1             37.9743433595      -26.4398722861       -3.9213896465  W2        9422            0.0000000000
     28266      9422  TIP3      H2             39.0919633595      -26.9243422861       -4.8203196465  W2        9422            0.0000000000
     28267      9423  TIP3      OH2            34.6633133595      -26.3029522861      -11.3523296465  W2        9423            0.0000000000
     28268      9423  TIP3      H1             33.9314133595      -26.0745822861      -10.7792696465  W2        9423            0.0000000000
     28269      9423  TIP3      H2             35.1105333595      -27.0166822861      -10.8975796465  W2        9423            0.0000000000
     28270      9424  TIP3      OH2            34.5606633595      -28.1286922861       -2.2846296465  W2        9424            0.0000000000
     28271      9424  TIP3      H1             34.6405733595      -27.3652522861       -1.7127796465  W2        9424            0.0000000000
     28272      9424  TIP3      H2             33.9594333595      -27.8494522861       -2.9751196465  W2        9424            0.0000000000
     28273      9425  TIP3      OH2            26.3086833595      -25.6723322861       -9.4698296465  W2        9425            0.0000000000
     28274      9425  TIP3      H1             25.9782033595      -26.0429922861      -10.2881296465  W2        9425            0.0000000000
     28275      9425  TIP3      H2             26.8970933595      -26.3429322861       -9.1229996465  W2        9425            0.0000000000
     28276      9426  TIP3      OH2            27.6754333595      -22.2442722861       -6.7886096465  W2        9426            0.0000000000
     28277      9426  TIP3      H1             27.5805633595      -22.8229622861       -7.5451496465  W2        9426            0.0000000000
     28278      9426  TIP3      H2             28.4047933595      -22.6157022861       -6.2923296465  W2        9426            0.0000000000
     28279      9427  TIP3      OH2            26.6752333595      -26.9037722861       -5.8363296465  W2        9427            0.0000000000
     28280      9427  TIP3      H1             27.2404833595      -26.7823522861       -6.5992096465  W2        9427            0.0000000000
     28281      9427  TIP3      H2             26.9941233595      -26.2662722861       -5.1974796465  W2        9427            0.0000000000
     28282      9428  TIP3      OH2            32.9844533595      -21.4005822861       -5.1022796465  W2        9428            0.0000000000
     28283      9428  TIP3      H1             32.7441133595      -20.7382722861       -4.4543596465  W2        9428            0.0000000000
     28284      9428  TIP3      H2             32.7862733595      -22.2350622861       -4.6773196465  W2        9428            0.0000000000
     28285      9429  TIP3      OH2            27.5553033595      -22.5045022861       -1.1191396465  W2        9429            0.0000000000
     28286      9429  TIP3      H1             27.2440533595      -21.7221822861       -0.6638196465  W2        9429            0.0000000000
     28287      9429  TIP3      H2             26.9053233595      -22.6575922861       -1.8049396465  W2        9429            0.0000000000
     28288      9430  TIP3      OH2            33.5342633595      -27.1406622861      -13.6672096465  W2        9430            0.0000000000
     28289      9430  TIP3      H1             34.1138133595      -26.9906322861      -12.9203196465  W2        9430            0.0000000000
     28290      9430  TIP3      H2             33.9482633595      -26.6699222861      -14.3905696465  W2        9430            0.0000000000
     28291      9431  TIP3      OH2            24.4752933595      -26.3063922861       -1.8905696465  W2        9431            0.0000000000
     28292      9431  TIP3      H1             24.5456133595      -25.6557122861       -1.1920696465  W2        9431            0.0000000000
     28293      9431  TIP3      H2             23.5845133595      -26.2036422861       -2.2254796465  W2        9431            0.0000000000
     28294      9432  TIP3      OH2            31.2607533595      -20.4038122861      -10.2318996465  W2        9432            0.0000000000
     28295      9432  TIP3      H1             31.7345133595      -20.1081822861       -9.4544796465  W2        9432            0.0000000000
     28296      9432  TIP3      H2             30.6976833595      -19.6656522861      -10.4649396465  W2        9432            0.0000000000
     28297      9433  TIP3      OH2            25.7948933595      -20.4330022861       -0.3557596465  W2        9433            0.0000000000
     28298      9433  TIP3      H1             25.8024233595      -20.5690322861       -1.3032096465  W2        9433            0.0000000000
     28299      9433  TIP3      H2             24.8789333595      -20.5501922861       -0.1037596465  W2        9433            0.0000000000
     28300      9434  TIP3      OH2            37.2331033595      -35.3906222861      -13.8542396465  W2        9434            0.0000000000
     28301      9434  TIP3      H1             36.3331733595      -35.2517222861      -13.5591796465  W2        9434            0.0000000000
     28302      9434  TIP3      H2             37.4849433595      -34.5591622861      -14.2560696465  W2        9434            0.0000000000
     28303      9435  TIP3      OH2            25.2989533595      -26.6029022861      -11.8805496465  W2        9435            0.0000000000
     28304      9435  TIP3      H1             25.0070833595      -25.8347322861      -12.3714196465  W2        9435            0.0000000000
     28305      9435  TIP3      H2             24.6244733595      -27.2622822861      -12.0434096465  W2        9435            0.0000000000
     28306      9436  TIP3      OH2            38.4222433595      -21.0243822861      -15.4778496465  W2        9436            0.0000000000
     28307      9436  TIP3      H1             38.4955933595      -20.0853622861      -15.3073196465  W2        9436            0.0000000000
     28308      9436  TIP3      H2             39.3277533595      -21.3295222861      -15.5341196465  W2        9436            0.0000000000
     28309      9437  TIP3      OH2            21.3919633595      -24.2399822861       -3.0655696465  W2        9437            0.0000000000
     28310      9437  TIP3      H1             20.8908033595      -24.2680422861       -3.8805996465  W2        9437            0.0000000000
     28311      9437  TIP3      H2             21.3973333595      -25.1456622861       -2.7558396465  W2        9437            0.0000000000
     28312      9438  TIP3      OH2            21.1422333595      -21.4596022861       -6.1815496465  W2        9438            0.0000000000
     28313      9438  TIP3      H1             22.0882933595      -21.6039022861       -6.2005996465  W2        9438            0.0000000000
     28314      9438  TIP3      H2             21.0298633595      -20.6753222861       -5.6444296465  W2        9438            0.0000000000
     28315      9439  TIP3      OH2            39.3400833595      -20.7936322861       -0.4991796465  W2        9439            0.0000000000
     28316      9439  TIP3      H1             39.2907633595      -21.7488222861       -0.5364196465  W2        9439            0.0000000000
     28317      9439  TIP3      H2             38.5133133595      -20.5261022861       -0.0977996465  W2        9439            0.0000000000
     28318      9440  TIP3      OH2            30.3184833595      -21.2197122861       -1.6230396465  W2        9440            0.0000000000
     28319      9440  TIP3      H1             30.4059433595      -20.3932522861       -1.1481296465  W2        9440            0.0000000000
     28320      9440  TIP3      H2             29.4549933595      -21.5493322861       -1.3741096465  W2        9440            0.0000000000
     28321      9441  TIP3      OH2            30.7330633595      -17.4473422861      -11.8169796465  W2        9441            0.0000000000
     28322      9441  TIP3      H1             30.6576633595      -17.5686222861      -12.7634596465  W2        9441            0.0000000000
     28323      9441  TIP3      H2             30.7659333595      -16.4980722861      -11.6985196465  W2        9441            0.0000000000
     28324      9442  TIP3      OH2            24.3864433595      -18.6586422861      -10.0360796465  W2        9442            0.0000000000
     28325      9442  TIP3      H1             24.5384833595      -19.0066022861       -9.1574296465  W2        9442            0.0000000000
     28326      9442  TIP3      H2             23.5354833595      -19.0149122861      -10.2913596465  W2        9442            0.0000000000
     28327      9443  TIP3      OH2            33.8346633595      -18.2933222861      -14.8147396465  W2        9443            0.0000000000
     28328      9443  TIP3      H1             34.2095033595      -19.0377122861      -15.2854796465  W2        9443            0.0000000000
     28329      9443  TIP3      H2             33.8390333595      -18.5632622861      -13.8964096465  W2        9443            0.0000000000
     28330      9444  TIP3      OH2            33.5034733595      -18.3676122861      -12.0655196465  W2        9444            0.0000000000
     28331      9444  TIP3      H1             32.5684533595      -18.2674222861      -11.8868196465  W2        9444            0.0000000000
     28332      9444  TIP3      H2             33.7836633595      -19.0770122861      -11.4871996465  W2        9444            0.0000000000
     28333      9445  TIP3      OH2            36.4920633595      -29.3003822861       -0.0189596465  W2        9445            0.0000000000
     28334      9445  TIP3      H1             36.0847433595      -28.8198222861       -0.7396296465  W2        9445            0.0000000000
     28335      9445  TIP3      H2             36.5326333595      -30.2057822861       -0.3268796465  W2        9445            0.0000000000
     28336      9446  TIP3      OH2            23.6410133595      -22.9164422861       -2.0222896465  W2        9446            0.0000000000
     28337      9446  TIP3      H1             23.8571433595      -23.2778822861       -1.1627096465  W2        9446            0.0000000000
     28338      9446  TIP3      H2             22.7854833595      -23.2910622861       -2.2319396465  W2        9446            0.0000000000
     28339      9447  TIP3      OH2            26.2598133595      -34.4463922861       -6.0268696465  W2        9447            0.0000000000
     28340      9447  TIP3      H1             25.3981833595      -34.5335722861       -6.4345796465  W2        9447            0.0000000000
     28341      9447  TIP3      H2             26.2373833595      -33.5903822861       -5.5991096465  W2        9447            0.0000000000
     28342      9448  TIP3      OH2            30.9225933595      -34.7243522861       -2.6521696465  W2        9448            0.0000000000
     28343      9448  TIP3      H1             31.3429033595      -35.1396422861       -1.8991096465  W2        9448            0.0000000000
     28344      9448  TIP3      H2             29.9895533595      -34.9030222861       -2.5349696465  W2        9448            0.0000000000
     28345      9449  TIP3      OH2            34.2490833595      -30.9688322861       -1.7987196465  W2        9449            0.0000000000
     28346      9449  TIP3      H1             33.7350333595      -31.0946122861       -1.0011196465  W2        9449            0.0000000000
     28347      9449  TIP3      H2             34.0935533595      -30.0565222861       -2.0430996465  W2        9449            0.0000000000
     28348      9450  TIP3      OH2            35.0115733595      -26.1078322861      -16.0374196465  W2        9450            0.0000000000
     28349      9450  TIP3      H1             35.0536533595      -26.3304422861      -16.9674196465  W2        9450            0.0000000000
     28350      9450  TIP3      H2             35.8607833595      -25.7091222861      -15.8474296465  W2        9450            0.0000000000
     28351      9451  TIP3      OH2            30.5843233595      -32.2320122861      -15.3670896465  W2        9451            0.0000000000
     28352      9451  TIP3      H1             30.3308033595      -32.2128522861      -14.4442796465  W2        9451            0.0000000000
     28353      9451  TIP3      H2             30.3275333595      -33.1034722861      -15.6684696465  W2        9451            0.0000000000
     28354      9452  TIP3      OH2            26.3508233595      -29.4809422861       -4.9318496465  W2        9452            0.0000000000
     28355      9452  TIP3      H1             25.7090333595      -29.5212122861       -4.2228396465  W2        9452            0.0000000000
     28356      9452  TIP3      H2             26.3880233595      -28.5544722861       -5.1695496465  W2        9452            0.0000000000
     28357      9453  TIP3      OH2            26.3477333595      -29.2599322861      -10.0198496465  W2        9453            0.0000000000
     28358      9453  TIP3      H1             25.4550233595      -29.6003222861      -10.0784696465  W2        9453            0.0000000000
     28359      9453  TIP3      H2             26.7983933595      -29.6368422861      -10.7755296465  W2        9453            0.0000000000
     28360      9454  TIP3      OH2            31.8832833595      -28.8439022861      -11.2027696465  W2        9454            0.0000000000
     28361      9454  TIP3      H1             31.4743133595      -28.0290422861      -11.4942896465  W2        9454            0.0000000000
     28362      9454  TIP3      H2             32.6039033595      -28.9838922861      -11.8170596465  W2        9454            0.0000000000
     28363      9455  TIP3      OH2            30.9854433595      -28.6682622861        0.2853003535  W2        9455            0.0000000000
     28364      9455  TIP3      H1             30.4228233595      -29.3731022861        0.6060803535  W2        9455            0.0000000000
     28365      9455  TIP3      H2             31.8117833595      -28.7890722861        0.7530603535  W2        9455            0.0000000000
     28366      9456  TIP3      OH2            32.8880533595      -29.3978622861       -8.3887996465  W2        9456            0.0000000000
     28367      9456  TIP3      H1             32.6925033595      -28.7921822861       -9.1037396465  W2        9456            0.0000000000
     28368      9456  TIP3      H2             33.0693133595      -30.2313422861       -8.8231696465  W2        9456            0.0000000000
     28369      9457  TIP3      OH2            24.1008733595      -29.1605922861       -3.0646496465  W2        9457            0.0000000000
     28370      9457  TIP3      H1             24.0628133595      -28.7604322861       -2.1959396465  W2        9457            0.0000000000
     28371      9457  TIP3      H2             23.6099833595      -29.9773522861       -2.9743596465  W2        9457            0.0000000000
     28372      9458  TIP3      OH2            27.4666133595      -31.7863622861      -16.2660496465  W2        9458            0.0000000000
     28373      9458  TIP3      H1             27.0356833595      -32.2313522861      -15.5363096465  W2        9458            0.0000000000
     28374      9458  TIP3      H2             26.7484833595      -31.4147322861      -16.7782996465  W2        9458            0.0000000000
     28375      9459  TIP3      OH2            20.7089533595      -32.0444122861       -9.2141796465  W2        9459            0.0000000000
     28376      9459  TIP3      H1             21.3397233595      -32.0732022861       -8.4947896465  W2        9459            0.0000000000
     28377      9459  TIP3      H2             21.1583833595      -32.4695422861       -9.9445896465  W2        9459            0.0000000000
     28378      9460  TIP3      OH2            21.9831633595      -31.2982122861      -13.7901396465  W2        9460            0.0000000000
     28379      9460  TIP3      H1             22.4573333595      -30.7072222861      -14.3750496465  W2        9460            0.0000000000
     28380      9460  TIP3      H2             21.2658033595      -30.7679222861      -13.4431296465  W2        9460            0.0000000000
     28381      9461  TIP3      OH2            32.1519733595      -27.7597322861       -3.7175596465  W2        9461            0.0000000000
     28382      9461  TIP3      H1             32.4754533595      -28.3907622861       -4.3605096465  W2        9461            0.0000000000
     28383      9461  TIP3      H2             31.7119033595      -28.2945122861       -3.0568196465  W2        9461            0.0000000000
     28384      9462  TIP3      OH2            28.9292633595      -31.8321822861       -8.9334396465  W2        9462            0.0000000000
     28385      9462  TIP3      H1             28.0183733595      -31.7755022861       -8.6448396465  W2        9462            0.0000000000
     28386      9462  TIP3      H2             29.4345533595      -31.8926322861       -8.1227196465  W2        9462            0.0000000000
     28387      9463  TIP3      OH2            23.7576033595      -30.2035522861      -10.1066796465  W2        9463            0.0000000000
     28388      9463  TIP3      H1             22.8684033595      -30.1040022861      -10.4467196465  W2        9463            0.0000000000
     28389      9463  TIP3      H2             24.0540933595      -31.0452522861      -10.4528896465  W2        9463            0.0000000000
     28390      9464  TIP3      OH2            27.4107833595      -30.2032922861      -12.4502196465  W2        9464            0.0000000000
     28391      9464  TIP3      H1             28.3423333595      -30.0742922861      -12.2719096465  W2        9464            0.0000000000
     28392      9464  TIP3      H2             27.1958133595      -29.5338622861      -13.0997496465  W2        9464            0.0000000000
     28393      9465  TIP3      OH2            33.3344533595      -32.5975522861       -5.6692596465  W2        9465            0.0000000000
     28394      9465  TIP3      H1             32.6576133595      -32.4662422861       -5.0052896465  W2        9465            0.0000000000
     28395      9465  TIP3      H2             32.8489433595      -32.7526022861       -6.4794896465  W2        9465            0.0000000000
     28396      9466  TIP3      OH2            26.0848033595      -29.0090722861      -14.8836096465  W2        9466            0.0000000000
     28397      9466  TIP3      H1             25.5423133595      -29.3886922861      -15.5748496465  W2        9466            0.0000000000
     28398      9466  TIP3      H2             26.9182933595      -28.8146022861      -15.3121996465  W2        9466            0.0000000000
     28399      9467  TIP3      OH2            36.6219633595      -16.9260122861        0.6075003535  W2        9467            0.0000000000
     28400      9467  TIP3      H1             36.8218333595      -16.5018222861       -0.2269696465  W2        9467            0.0000000000
     28401      9467  TIP3      H2             37.2773333595      -16.5821922861        1.2145403535  W2        9467            0.0000000000
     28402      9468  TIP3      OH2            24.2199433595      -24.4518822861        0.2155503535  W2        9468            0.0000000000
     28403      9468  TIP3      H1             24.9521833595      -24.1972922861        0.7770003535  W2        9468            0.0000000000
     28404      9468  TIP3      H2             23.4398133595      -24.2473422861        0.7310903535  W2        9468            0.0000000000
     28405      9469  TIP3      OH2            30.2492333595      -29.0448822861       -7.0464796465  W2        9469            0.0000000000
     28406      9469  TIP3      H1             30.8135733595      -29.5912222861       -7.5935196465  W2        9469            0.0000000000
     28407      9469  TIP3      H2             30.1015733595      -29.5666922861       -6.2577196465  W2        9469            0.0000000000
     28408      9470  TIP3      OH2            25.2512033595      -32.9082722861      -10.6279996465  W2        9470            0.0000000000
     28409      9470  TIP3      H1             24.9341533595      -33.8107422861      -10.6634596465  W2        9470            0.0000000000
     28410      9470  TIP3      H2             26.0326133595      -32.9065322861      -11.1808396465  W2        9470            0.0000000000
     28411      9471  TIP3      OH2            28.8758233595      -30.6562722861       -4.6324396465  W2        9471            0.0000000000
     28412      9471  TIP3      H1             28.0403533595      -30.2023222861       -4.5221996465  W2        9471            0.0000000000
     28413      9471  TIP3      H2             29.3998833595      -30.3804222861       -3.8804496465  W2        9471            0.0000000000
     28414      9472  TIP3      OH2            29.4200833595      -24.4435022861      -12.9477996465  W2        9472            0.0000000000
     28415      9472  TIP3      H1             28.6751833595      -24.9509722861      -13.2700096465  W2        9472            0.0000000000
     28416      9472  TIP3      H2             29.2858033595      -24.3947022861      -12.0013196465  W2        9472            0.0000000000
     28417      9473  TIP3      OH2            36.5699733595      -25.3106822861       -4.1610396465  W2        9473            0.0000000000
     28418      9473  TIP3      H1             37.2118533595      -24.8540522861       -4.7048196465  W2        9473            0.0000000000
     28419      9473  TIP3      H2             35.7396633595      -25.1974422861       -4.6236296465  W2        9473            0.0000000000
     28420      9474  TIP3      OH2            33.3177633595      -31.6295122861      -14.7485396465  W2        9474            0.0000000000
     28421      9474  TIP3      H1             32.3791833595      -31.5179522861      -14.8996596465  W2        9474            0.0000000000
     28422      9474  TIP3      H2             33.6149733595      -30.7728222861      -14.4419696465  W2        9474            0.0000000000
     28423      9475  TIP3      OH2            30.9392933595      -24.2591722861       -1.7108896465  W2        9475            0.0000000000
     28424      9475  TIP3      H1             30.5939033595      -24.6409322861       -0.9039296465  W2        9475            0.0000000000
     28425      9475  TIP3      H2             30.7393033595      -23.3258122861       -1.6395996465  W2        9475            0.0000000000
     28426      9476  TIP3      OH2            34.0361133595      -29.7622422861      -13.0877996465  W2        9476            0.0000000000
     28427      9476  TIP3      H1             34.9280133595      -29.8997422861      -12.7686796465  W2        9476            0.0000000000
     28428      9476  TIP3      H2             34.0924733595      -28.9716322861      -13.6244496465  W2        9476            0.0000000000
     28429      9477  TIP3      OH2            24.5449133595      -25.1485022861       -7.1780096465  W2        9477            0.0000000000
     28430      9477  TIP3      H1             25.2896333595      -25.1509322861       -7.7793596465  W2        9477            0.0000000000
     28431      9477  TIP3      H2             24.6225733595      -25.9721222861       -6.6964996465  W2        9477            0.0000000000
     28432      9478  TIP3      OH2            31.5454933595      -22.9850722861      -13.9223396465  W2        9478            0.0000000000
     28433      9478  TIP3      H1             31.2503333595      -22.1582822861      -13.5408596465  W2        9478            0.0000000000
     28434      9478  TIP3      H2             30.8424933595      -23.6043822861      -13.7261996465  W2        9478            0.0000000000
     28435      9479  TIP3      OH2            21.5528833595      -26.6878122861       -1.8631596465  W2        9479            0.0000000000
     28436      9479  TIP3      H1             21.7757433595      -27.1058522861       -1.0314096465  W2        9479            0.0000000000
     28437      9479  TIP3      H2             20.9508933595      -27.3003122861       -2.2858796465  W2        9479            0.0000000000
     28438      9480  TIP3      OH2            28.5693733595      -27.1708222861        0.3498103535  W2        9480            0.0000000000
     28439      9480  TIP3      H1             28.2734533595      -27.3365222861       -0.5452796465  W2        9480            0.0000000000
     28440      9480  TIP3      H2             29.5008933595      -27.3907922861        0.3392003535  W2        9480            0.0000000000
     28441      9481  TIP3      OH2            33.1896533595      -21.7976222861       -1.7603896465  W2        9481            0.0000000000
     28442      9481  TIP3      H1             32.2890833595      -21.6143622861       -2.0279996465  W2        9481            0.0000000000
     28443      9481  TIP3      H2             33.2237633595      -21.5386922861       -0.8395096465  W2        9481            0.0000000000
     28444      9482  TIP3      OH2            38.9209833595      -29.5528322861      -13.3931296465  W2        9482            0.0000000000
     28445      9482  TIP3      H1             38.3666133595      -29.9490322861      -14.0653796465  W2        9482            0.0000000000
     28446      9482  TIP3      H2             39.0213433595      -28.6423122861      -13.6707996465  W2        9482            0.0000000000
     28447      9483  TIP3      OH2            38.8841833595      -23.7526622861       -0.5559796465  W2        9483            0.0000000000
     28448      9483  TIP3      H1             38.0330333595      -23.5142822861       -0.9233396465  W2        9483            0.0000000000
     28449      9483  TIP3      H2             39.4745233595      -23.7693422861       -1.3092696465  W2        9483            0.0000000000
     28450      9484  TIP3      OH2            37.2161533595      -20.7667922861      -12.9279196465  W2        9484            0.0000000000
     28451      9484  TIP3      H1             36.8432633595      -21.5924122861      -12.6188596465  W2        9484            0.0000000000
     28452      9484  TIP3      H2             37.4935033595      -20.9498522861      -13.8255796465  W2        9484            0.0000000000
     28453      9485  TIP3      OH2            34.3765433595      -25.9588422861       -5.9067296465  W2        9485            0.0000000000
     28454      9485  TIP3      H1             33.4482333595      -26.1906522861       -5.9337996465  W2        9485            0.0000000000
     28455      9485  TIP3      H2             34.8276533595      -26.7358622861       -6.2368496465  W2        9485            0.0000000000
     28456      9486  TIP3      OH2            26.9198533595      -21.6306822861       -9.7738596465  W2        9486            0.0000000000
     28457      9486  TIP3      H1             27.4470733595      -20.8572422861       -9.9739796465  W2        9486            0.0000000000
     28458      9486  TIP3      H2             26.0397033595      -21.4057622861      -10.0754596465  W2        9486            0.0000000000
     28459      9487  TIP3      OH2            22.6746233595      -26.7682722861      -15.1866196465  W2        9487            0.0000000000
     28460      9487  TIP3      H1             23.2906133595      -26.1415522861      -14.8071396465  W2        9487            0.0000000000
     28461      9487  TIP3      H2             21.8128833595      -26.4522922861      -14.9149696465  W2        9487            0.0000000000
     28462      9488  TIP3      OH2            28.3470833595      -23.9676922861      -10.1974296465  W2        9488            0.0000000000
     28463      9488  TIP3      H1             28.1060833595      -23.0422522861      -10.1558996465  W2        9488            0.0000000000
     28464      9488  TIP3      H2             27.6064433595      -24.4265622861       -9.8010396465  W2        9488            0.0000000000
     28465      9489  TIP3      OH2            28.8617433595      -19.8183322861       -3.8823196465  W2        9489            0.0000000000
     28466      9489  TIP3      H1             29.2242133595      -18.9637722861       -4.1158796465  W2        9489            0.0000000000
     28467      9489  TIP3      H2             29.3932633595      -20.1101722861       -3.1416896465  W2        9489            0.0000000000
     28468      9490  TIP3      OH2            27.0301633595      -18.9459322861      -10.6522096465  W2        9490            0.0000000000
     28469      9490  TIP3      H1             26.0802133595      -18.8401922861      -10.6008796465  W2        9490            0.0000000000
     28470      9490  TIP3      H2             27.3819733595      -18.1251922861      -10.3074596465  W2        9490            0.0000000000
     28471      9491  TIP3      OH2            32.4058233595      -23.7192622861       -4.1817596465  W2        9491            0.0000000000
     28472      9491  TIP3      H1             31.9799533595      -23.9470922861       -3.3553596465  W2        9491            0.0000000000
     28473      9491  TIP3      H2             32.9864033595      -24.4580822861       -4.3642296465  W2        9491            0.0000000000
     28474      9492  TIP3      OH2            34.6087133595      -22.7902122861      -15.1078596465  W2        9492            0.0000000000
     28475      9492  TIP3      H1             34.9620233595      -23.1702322861      -14.3035096465  W2        9492            0.0000000000
     28476      9492  TIP3      H2             33.6600633595      -22.8837322861      -15.0209296465  W2        9492            0.0000000000
     28477      9493  TIP3      OH2            35.0642433595      -19.1673122861       -1.7122796465  W2        9493            0.0000000000
     28478      9493  TIP3      H1             34.4625633595      -19.7230222861       -2.2076496465  W2        9493            0.0000000000
     28479      9493  TIP3      H2             35.3456133595      -18.5003322861       -2.3385396465  W2        9493            0.0000000000
     28480      9494  TIP3      OH2            39.1121533595      -18.3109622861      -14.9068396465  W2        9494            0.0000000000
     28481      9494  TIP3      H1             39.8559433595      -17.7249122861      -15.0466796465  W2        9494            0.0000000000
     28482      9494  TIP3      H2             38.4179633595      -17.7423822861      -14.5735996465  W2        9494            0.0000000000
     28483      9495  TIP3      OH2            23.1868333595      -31.9345422861       -2.3050196465  W2        9495            0.0000000000
     28484      9495  TIP3      H1             22.2940633595      -31.5960022861       -2.3726196465  W2        9495            0.0000000000
     28485      9495  TIP3      H2             23.0881133595      -32.7899322861       -1.8869396465  W2        9495            0.0000000000
     28486      9496  TIP3      OH2            35.4746433595      -24.1180122861      -12.8810696465  W2        9496            0.0000000000
     28487      9496  TIP3      H1             35.1974033595      -24.8460822861      -12.3249596465  W2        9496            0.0000000000
     28488      9496  TIP3      H2             36.4019433595      -23.9988122861      -12.6758096465  W2        9496            0.0000000000
     28489      9497  TIP3      OH2            22.8380333595      -20.1301022861       -3.8700796465  W2        9497            0.0000000000
     28490      9497  TIP3      H1             23.0550633595      -21.0618622861       -3.9011096465  W2        9497            0.0000000000
     28491      9497  TIP3      H2             23.0843833595      -19.8556022861       -2.9867996465  W2        9497            0.0000000000
     28492      9498  TIP3      OH2            28.6994933595      -21.6786022861      -16.6608596465  W2        9498            0.0000000000
     28493      9498  TIP3      H1             28.9384733595      -22.4267922861      -17.2079696465  W2        9498            0.0000000000
     28494      9498  TIP3      H2             28.4306233595      -22.0664322861      -15.8280796465  W2        9498            0.0000000000
     28495      9499  TIP3      OH2            27.6365533595      -22.1082222861      -14.2045996465  W2        9499            0.0000000000
     28496      9499  TIP3      H1             27.7833533595      -22.6282422861      -13.4145096465  W2        9499            0.0000000000
     28497      9499  TIP3      H2             27.6337233595      -21.2014622861      -13.8980096465  W2        9499            0.0000000000
     28498      9500  TIP3      OH2            24.0896633595      -24.8558922861      -13.6940596465  W2        9500            0.0000000000
     28499      9500  TIP3      H1             23.4035933595      -24.5036422861      -13.1270896465  W2        9500            0.0000000000
     28500      9500  TIP3      H2             24.6124533595      -24.0929322861      -13.9406296465  W2        9500            0.0000000000
     28501      9501  TIP3      OH2            31.9211733595      -32.1935122861       -3.4151596465  W2        9501            0.0000000000
     28502      9501  TIP3      H1             32.6199633595      -32.1196422861       -2.7651896465  W2        9501            0.0000000000
     28503      9501  TIP3      H2             31.5403133595      -33.0580122861       -3.2608696465  W2        9501            0.0000000000
     28504      9502  TIP3      OH2            32.7056633595      -32.5413422861      -12.3179296465  W2        9502            0.0000000000
     28505      9502  TIP3      H1             32.9254933595      -32.0698022861      -13.1213896465  W2        9502            0.0000000000
     28506      9502  TIP3      H2             33.2640633595      -32.1470822861      -11.6478696465  W2        9502            0.0000000000
     28507      9503  TIP3      OH2            30.3742733595      -20.4108622861      -13.4551796465  W2        9503            0.0000000000
     28508      9503  TIP3      H1             29.5578833595      -19.9138922861      -13.4027496465  W2        9503            0.0000000000
     28509      9503  TIP3      H2             30.9039033595      -19.9355122861      -14.0952996465  W2        9503            0.0000000000
     28510      9504  TIP3      OH2            29.9056533595      -30.8134622861      -11.4830896465  W2        9504            0.0000000000
     28511      9504  TIP3      H1             30.7179133595      -30.3091422861      -11.4369196465  W2        9504            0.0000000000
     28512      9504  TIP3      H2             29.6609533595      -30.9584922861      -10.5691296465  W2        9504            0.0000000000
     28513      9505  TIP3      OH2            30.4412933595      -29.8271922861       -2.2984296465  W2        9505            0.0000000000
     28514      9505  TIP3      H1             30.5603233595      -29.2536522861       -1.5413896465  W2        9505            0.0000000000
     28515      9505  TIP3      H2             31.0967533595      -30.5152522861       -2.1836496465  W2        9505            0.0000000000
     28516      9506  TIP3      OH2            30.7893233595      -33.7321622861      -10.5449796465  W2        9506            0.0000000000
     28517      9506  TIP3      H1             30.4426733595      -33.1151022861       -9.9005496465  W2        9506            0.0000000000
     28518      9506  TIP3      H2             31.4480133595      -33.2315922861      -11.0264296465  W2        9506            0.0000000000
     28519      9507  TIP3      OH2            27.7125833595      -19.3671422861      -13.4734896465  W2        9507            0.0000000000
     28520      9507  TIP3      H1             27.8734533595      -18.5673922861      -13.9742296465  W2        9507            0.0000000000
     28521      9507  TIP3      H2             27.5153633595      -19.0605422861      -12.5884296465  W2        9507            0.0000000000
     28522      9508  TIP3      OH2            26.4470233595      -32.6692222861      -13.8577296465  W2        9508            0.0000000000
     28523      9508  TIP3      H1             26.3635033595      -31.7809122861      -13.5110896465  W2        9508            0.0000000000
     28524      9508  TIP3      H2             27.3370533595      -32.9345522861      -13.6260496465  W2        9508            0.0000000000
     28525      9509  TIP3      OH2            36.6458733595      -31.9201622861       -1.4634596465  W2        9509            0.0000000000
     28526      9509  TIP3      H1             35.7294533595      -31.6579922861       -1.5510896465  W2        9509            0.0000000000
     28527      9509  TIP3      H2             36.9813733595      -31.9232622861       -2.3599296465  W2        9509            0.0000000000
     28528      9510  TIP3      OH2            35.2479733595      -28.1700622861       -7.3677296465  W2        9510            0.0000000000
     28529      9510  TIP3      H1             34.4504133595      -28.5850422861       -7.6962296465  W2        9510            0.0000000000
     28530      9510  TIP3      H2             35.6930833595      -28.8606922861       -6.8766796465  W2        9510            0.0000000000
     28531      9511  TIP3      OH2            24.7055533595      -22.2420022861      -14.7972796465  W2        9511            0.0000000000
     28532      9511  TIP3      H1             25.2977033595      -21.5425222861      -14.5210396465  W2        9511            0.0000000000
     28533      9511  TIP3      H2             25.1648533595      -22.6750522861      -15.5168196465  W2        9511            0.0000000000
     28534      9512  TIP3      OH2            23.0214733595      -29.5777022861      -15.6813396465  W2        9512            0.0000000000
     28535      9512  TIP3      H1             22.9767333595      -28.6383922861      -15.5026396465  W2        9512            0.0000000000
     28536      9512  TIP3      H2             22.1337933595      -29.8132122861      -15.9511296465  W2        9512            0.0000000000
     28537      9513  TIP3      OH2            36.3344333595      -18.9138122861       -5.7453796465  W2        9513            0.0000000000
     28538      9513  TIP3      H1             36.1788633595      -18.2353722861       -6.4024496465  W2        9513            0.0000000000
     28539      9513  TIP3      H2             37.2670733595      -18.8418822861       -5.5423196465  W2        9513            0.0000000000
     28540      9514  TIP3      OH2            23.8296733595      -34.7960422861       -7.0082396465  W2        9514            0.0000000000
     28541      9514  TIP3      H1             23.6006533595      -34.7367922861       -7.9357396465  W2        9514            0.0000000000
     28542      9514  TIP3      H2             23.3870133595      -35.5874922861       -6.7018296465  W2        9514            0.0000000000
     28543      9515  TIP3      OH2            22.7600033595      -20.8553322861      -10.8476596465  W2        9515            0.0000000000
     28544      9515  TIP3      H1             21.9278633595      -20.3830622861      -10.8205196465  W2        9515            0.0000000000
     28545      9515  TIP3      H2             23.3058333595      -20.3455722861      -11.4463496465  W2        9515            0.0000000000
     28546      9516  TIP3      OH2            22.0483733595      -18.2429622861        0.4821403535  W2        9516            0.0000000000
     28547      9516  TIP3      H1             22.5885933595      -18.4595622861        1.2420603535  W2        9516            0.0000000000
     28548      9516  TIP3      H2             21.5671733595      -19.0483622861        0.2923903535  W2        9516            0.0000000000
     28549      9517  TIP3      OH2            26.6457133595      -19.3235222861        2.1025603535  W2        9517            0.0000000000
     28550      9517  TIP3      H1             27.4134333595      -19.7824422861        2.4434803535  W2        9517            0.0000000000
     28551      9517  TIP3      H2             26.6243333595      -19.5495422861        1.1726803535  W2        9517            0.0000000000
     28552      9518  TIP3      OH2            30.7376733595      -19.8154622861      -16.5222596465  W2        9518            0.0000000000
     28553      9518  TIP3      H1             30.0937733595      -20.4466022861      -16.2008896465  W2        9518            0.0000000000
     28554      9518  TIP3      H2             31.4995033595      -20.3466622861      -16.7539096465  W2        9518            0.0000000000
     28555      9519  TIP3      OH2            33.2225833595      -20.9434122861        0.8317103535  W2        9519            0.0000000000
     28556      9519  TIP3      H1             32.8715333595      -21.8001122861        1.0747503535  W2        9519            0.0000000000
     28557      9519  TIP3      H2             33.9489033595      -20.8007422861        1.4386103535  W2        9519            0.0000000000
     28558      9520  TIP3      OH2            35.3419633595      -19.9984722861      -16.2884596465  W2        9520            0.0000000000
     28559      9520  TIP3      H1             35.6250033595      -20.7929522861      -15.8357696465  W2        9520            0.0000000000
     28560      9520  TIP3      H2             36.0817533595      -19.7653722861      -16.8493496465  W2        9520            0.0000000000
     28561      9521  TIP3      OH2            21.9553233595      -24.4325522861        1.4365703535  W2        9521            0.0000000000
     28562      9521  TIP3      H1             22.0993733595      -25.3344822861        1.1502403535  W2        9521            0.0000000000
     28563      9521  TIP3      H2             21.1830633595      -24.1463422861        0.9488003535  W2        9521            0.0000000000
     28564      9522  TIP3      OH2            26.2966933595      -24.0889822861      -16.4309696465  W2        9522            0.0000000000
     28565      9522  TIP3      H1             26.3611033595      -24.8830222861      -15.9003296465  W2        9522            0.0000000000
     28566      9522  TIP3      H2             26.9496133595      -24.2077022861      -17.1207696465  W2        9522            0.0000000000
     28567      9523  TIP3      OH2            28.6109333595      -24.4627422861        0.8692103535  W2        9523            0.0000000000
     28568      9523  TIP3      H1             28.2823133595      -24.1919322861        0.0119503535  W2        9523            0.0000000000
     28569      9523  TIP3      H2             28.7627533595      -25.4037622861        0.7817103535  W2        9523            0.0000000000
     28570      9524  TIP3      OH2            31.6490333595      -23.0418122861      -16.6951696465  W2        9524            0.0000000000
     28571      9524  TIP3      H1             31.3804433595      -22.8616022861      -15.7942796465  W2        9524            0.0000000000
     28572      9524  TIP3      H2             31.4425933595      -23.9671922861      -16.8265896465  W2        9524            0.0000000000
     28573      9525  TIP3      OH2            34.3454533595      -24.5470122861       -1.7475596465  W2        9525            0.0000000000
     28574      9525  TIP3      H1             35.0909333595      -23.9586422861       -1.8671596465  W2        9525            0.0000000000
     28575      9525  TIP3      H2             33.5881333595      -23.9650422861       -1.6842496465  W2        9525            0.0000000000
     28576      9526  TIP3      OH2            22.7879733595      -27.2322222861        0.8565003535  W2        9526            0.0000000000
     28577      9526  TIP3      H1             23.1960933595      -28.0895622861        0.7355603535  W2        9526            0.0000000000
     28578      9526  TIP3      H2             22.5277333595      -27.2180922861        1.7775303535  W2        9526            0.0000000000
     28579      9527  TIP3      OH2            27.4460733595      -26.1163622861      -14.1251696465  W2        9527            0.0000000000
     28580      9527  TIP3      H1             26.9862733595      -26.6005322861      -13.4393196465  W2        9527            0.0000000000
     28581      9527  TIP3      H2             27.7009433595      -26.7848222861      -14.7611196465  W2        9527            0.0000000000
     28582      9528  TIP3      OH2            26.7350033595      -28.2236522861       -1.7692096465  W2        9528            0.0000000000
     28583      9528  TIP3      H1             26.1166133595      -27.5489922861       -1.4887396465  W2        9528            0.0000000000
     28584      9528  TIP3      H2             27.0791233595      -27.9022622861       -2.6025896465  W2        9528            0.0000000000
     28585      9529  TIP3      OH2            28.5171133595      -27.8731822861      -15.8628496465  W2        9529            0.0000000000
     28586      9529  TIP3      H1             28.3366133595      -28.0280622861      -16.7900196465  W2        9529            0.0000000000
     28587      9529  TIP3      H2             29.4671633595      -27.7653122861      -15.8180596465  W2        9529            0.0000000000
     28588      9530  TIP3      OH2            31.7548233595      -25.7521222861        1.5082703535  W2        9530            0.0000000000
     28589      9530  TIP3      H1             32.7079433595      -25.6682122861        1.4808703535  W2        9530            0.0000000000
     28590      9530  TIP3      H2             31.5942833595      -26.4639422861        2.1277603535  W2        9530            0.0000000000
     28591      9531  TIP3      OH2            37.9069433595      -25.5187622861      -16.4170396465  W2        9531            0.0000000000
     28592      9531  TIP3      H1             37.6334233595      -25.9432122861      -17.2302096465  W2        9531            0.0000000000
     28593      9531  TIP3      H2             37.9463533595      -24.5873122861      -16.6339996465  W2        9531            0.0000000000
     28594      9532  TIP3      OH2            27.0743733595      -30.8685722861       -0.6868996465  W2        9532            0.0000000000
     28595      9532  TIP3      H1             27.2244633595      -31.5974422861       -1.2889296465  W2        9532            0.0000000000
     28596      9532  TIP3      H2             27.0766133595      -30.0914022861       -1.2456796465  W2        9532            0.0000000000
     28597      9533  TIP3      OH2            27.4869433595      -32.4989922861       -3.1941596465  W2        9533            0.0000000000
     28598      9533  TIP3      H1             28.0226933595      -32.0473222861       -3.8462296465  W2        9533            0.0000000000
     28599      9533  TIP3      H2             26.6349033595      -32.6070122861       -3.6167496465  W2        9533            0.0000000000
     28600      9534  TIP3      OH2            29.0687833595      -27.0593722861       -2.9546396465  W2        9534            0.0000000000
     28601      9534  TIP3      H1             29.8192633595      -27.2156222861       -3.5278596465  W2        9534            0.0000000000
     28602      9534  TIP3      H2             28.7296133595      -26.2077122861       -3.2300896465  W2        9534            0.0000000000
     28603      9535  TIP3      OH2            33.4844033595      -29.2441922861        2.0738903535  W2        9535            0.0000000000
     28604      9535  TIP3      H1             33.6765333595      -30.1752522861        1.9623403535  W2        9535            0.0000000000
     28605      9535  TIP3      H2             34.3420333595      -28.8192422861        2.0634303535  W2        9535            0.0000000000
     28606      9536  TIP3      OH2            34.8011233595      -26.4556722861        0.1511603535  W2        9536            0.0000000000
     28607      9536  TIP3      H1             34.5196233595      -25.7462122861       -0.4264596465  W2        9536            0.0000000000
     28608      9536  TIP3      H2             35.7435533595      -26.5283722861        0.0002803535  W2        9536            0.0000000000
     28609      9537  TIP3      OH2            25.5530033595      -29.6702222861        1.2246603535  W2        9537            0.0000000000
     28610      9537  TIP3      H1             24.7859033595      -30.2027422861        1.0144203535  W2        9537            0.0000000000
     28611      9537  TIP3      H2             26.2319033595      -29.9801822861        0.6252903535  W2        9537            0.0000000000
     28612      9538  TIP3      OH2            28.2924933595      -35.0424222861       -2.7627996465  W2        9538            0.0000000000
     28613      9538  TIP3      H1             28.1944533595      -34.0961022861       -2.8681796465  W2        9538            0.0000000000
     28614      9538  TIP3      H2             27.5501133595      -35.4150422861       -3.2384496465  W2        9538            0.0000000000
     28615      9539  TIP3      OH2            29.5565433595      -30.7208822861        0.8010403535  W2        9539            0.0000000000
     28616      9539  TIP3      H1             29.3210833595      -30.9402122861        1.7025303535  W2        9539            0.0000000000
     28617      9539  TIP3      H2             28.7732333595      -30.9277622861        0.2912903535  W2        9539            0.0000000000
     28618      9540  TIP3      OH2            32.2722033595      -31.5935322861       -0.1236096465  W2        9540            0.0000000000
     28619      9540  TIP3      H1             31.3247433595      -31.5615622861        0.0087203535  W2        9540            0.0000000000
     28620      9540  TIP3      H2             32.5848733595      -32.2188222861        0.5302103535  W2        9540            0.0000000000
     28621      9541  TIP3      OH2            33.9063533595      -32.9594222861        1.8815803535  W2        9541            0.0000000000
     28622      9541  TIP3      H1             33.8095333595      -33.9116922861        1.8757703535  W2        9541            0.0000000000
     28623      9541  TIP3      H2             33.5846633595      -32.6907422861        2.7421303535  W2        9541            0.0000000000
     28624      9542  TIP3      OH2            23.7332833595      -31.7498422861        0.9291303535  W2        9542            0.0000000000
     28625      9542  TIP3      H1             23.9450233595      -32.4562322861        0.3188803535  W2        9542            0.0000000000
     28626      9542  TIP3      H2             23.6220333595      -32.1872422861        1.7732503535  W2        9542            0.0000000000
     28627      9543  TIP3      OH2            28.5143033595      -35.7486822861       -0.0915196465  W2        9543            0.0000000000
     28628      9543  TIP3      H1             29.2261433595      -36.3884622861       -0.1056096465  W2        9543            0.0000000000
     28629      9543  TIP3      H2             28.4133433595      -35.4818522861       -1.0052096465  W2        9543            0.0000000000
     28630      9544  TIP3      OH2            28.8680533595      -34.0658422861        1.9621103535  W2        9544            0.0000000000
     28631      9544  TIP3      H1             28.7362733595      -34.5414622861        1.1419603535  W2        9544            0.0000000000
     28632      9544  TIP3      H2             28.2687933595      -33.3214822861        1.9068203535  W2        9544            0.0000000000
     28633      9545  TIP3      OH2            28.4142833595      -17.1828122861      -14.8614896465  W2        9545            0.0000000000
     28634      9545  TIP3      H1             29.3473533595      -17.0249422861      -14.7176496465  W2        9545            0.0000000000
     28635      9545  TIP3      H2             28.1501633595      -16.5075122861      -15.4863396465  W2        9545            0.0000000000
     28636      9546  TIP3      OH2            21.9827733595      -22.5464322861      -15.3786796465  W2        9546            0.0000000000
     28637      9546  TIP3      H1             22.8966933595      -22.4675422861      -15.1052896465  W2        9546            0.0000000000
     28638      9546  TIP3      H2             21.9900833595      -23.2334722861      -16.0451196465  W2        9546            0.0000000000
     28639      9547  TIP3      OH2            20.6318333595      -17.1535822861      -10.3012896465  W2        9547            0.0000000000
     28640      9547  TIP3      H1             19.9845433595      -17.6154122861      -10.8341696465  W2        9547            0.0000000000
     28641      9547  TIP3      H2             20.9862933595      -17.8252522861       -9.7186696465  W2        9547            0.0000000000
     28642      9548  TIP3      OH2            21.5017533595      -19.0728822861       -8.4966696465  W2        9548            0.0000000000
     28643      9548  TIP3      H1             21.1674333595      -19.9531522861       -8.3246496465  W2        9548            0.0000000000
     28644      9548  TIP3      H2             21.7239933595      -18.7273822861       -7.6321096465  W2        9548            0.0000000000
     28645      9549  TIP3      OH2            39.0502333595      -18.2632422861       -5.5161896465  W2        9549            0.0000000000
     28646      9549  TIP3      H1             39.0289033595      -18.0784022861       -4.5772496465  W2        9549            0.0000000000
     28647      9549  TIP3      H2             39.7408533595      -17.6948422861       -5.8570496465  W2        9549            0.0000000000
     28648      9550  TIP3      OH2            38.6135233595      -18.6961322861       -2.5942796465  W2        9550            0.0000000000
     28649      9550  TIP3      H1             38.1263933595      -19.4317222861       -2.9655396465  W2        9550            0.0000000000
     28650      9550  TIP3      H2             39.1627933595      -19.0897422861       -1.9163396465  W2        9550            0.0000000000
     28651      9551  TIP3      OH2            37.0642533595      -22.9063222861        2.0437503535  W2        9551            0.0000000000
     28652      9551  TIP3      H1             36.1983633595      -23.0113522861        2.4379803535  W2        9551            0.0000000000
     28653      9551  TIP3      H2             37.4408433595      -22.1479922861        2.4902203535  W2        9551            0.0000000000
     28654      9552  TIP3      OH2            38.3652233595      -24.6499522861      -12.4419996465  W2        9552            0.0000000000
     28655      9552  TIP3      H1             39.2153633595      -24.2288622861      -12.3148396465  W2        9552            0.0000000000
     28656      9552  TIP3      H2             38.3707333595      -25.3899422861      -11.8348596465  W2        9552            0.0000000000
     28657      9553  TIP3      OH2            38.7597833595      -26.5962122861      -10.6184296465  W2        9553            0.0000000000
     28658      9553  TIP3      H1             38.0332433595      -27.0759522861      -10.2206696465  W2        9553            0.0000000000
     28659      9553  TIP3      H2             39.3411133595      -26.3907422861       -9.8862696465  W2        9553            0.0000000000
     28660      9554  TIP3      OH2            38.5189033595      -23.8114622861       -5.6706696465  W2        9554            0.0000000000
     28661      9554  TIP3      H1             39.3523233595      -24.1894622861       -5.9513096465  W2        9554            0.0000000000
     28662      9554  TIP3      H2             38.6309333595      -22.8683422861       -5.7897596465  W2        9554            0.0000000000
     28663      9555  TIP3      OH2            37.0051333595      -20.9337122861       -3.3638296465  W2        9555            0.0000000000
     28664      9555  TIP3      H1             36.3576633595      -20.6085622861       -2.7383096465  W2        9555            0.0000000000
     28665      9555  TIP3      H2             36.4875333595      -21.3739422861       -4.0379996465  W2        9555            0.0000000000
     28666      9556  TIP3      OH2            39.0280933595      -26.6953622861      -14.2272996465  W2        9556            0.0000000000
     28667      9556  TIP3      H1             38.5062033595      -26.3389522861      -14.9462096465  W2        9556            0.0000000000
     28668      9556  TIP3      H2             38.9950133595      -26.0205822861      -13.5492096465  W2        9556            0.0000000000
     28669      9557  TIP3      OH2            37.3769933595      -29.4558022861      -15.6765896465  W2        9557            0.0000000000
     28670      9557  TIP3      H1             37.4734333595      -28.7891022861      -16.3566196465  W2        9557            0.0000000000
     28671      9557  TIP3      H2             37.2369533595      -30.2711722861      -16.1580396465  W2        9557            0.0000000000
     28672      9558  TIP3      OH2            36.5464633595      -28.0755622861      -10.0555596465  W2        9558            0.0000000000
     28673      9558  TIP3      H1             36.3963433595      -29.0207022861      -10.0757796465  W2        9558            0.0000000000
     28674      9558  TIP3      H2             36.1929133595      -27.7944222861       -9.2116496465  W2        9558            0.0000000000
     28675      9559  TIP3      OH2            21.5817033595      -25.9973422861       -6.0451796465  W2        9559            0.0000000000
     28676      9559  TIP3      H1             21.7659933595      -26.0791722861       -6.9808896465  W2        9559            0.0000000000
     28677      9559  TIP3      H2             22.4309933595      -26.1216422861       -5.6215396465  W2        9559            0.0000000000
     28678      9560  TIP3      OH2            37.4027533595      -26.1052322861       -0.4167296465  W2        9560            0.0000000000
     28679      9560  TIP3      H1             37.9854833595      -26.8400022861       -0.2250096465  W2        9560            0.0000000000
     28680      9560  TIP3      H2             37.9666833595      -25.3332022861       -0.3701496465  W2        9560            0.0000000000
     28681      9561  TIP3      OH2            38.8994633595      -28.2026522861        0.2678103535  W2        9561            0.0000000000
     28682      9561  TIP3      H1             38.0361333595      -28.5814422861        0.1022803535  W2        9561            0.0000000000
     28683      9561  TIP3      H2             39.5038333595      -28.9411722861        0.1933903535  W2        9561            0.0000000000
     28684      9562  TIP3      OH2            36.6243733595      -32.0478222861      -16.5590396465  W2        9562            0.0000000000
     28685      9562  TIP3      H1             37.2349533595      -32.4191422861      -15.9222196465  W2        9562            0.0000000000
     28686      9562  TIP3      H2             35.7875233595      -32.4691322861      -16.3630396465  W2        9562            0.0000000000
     28687      9563  TIP3      OH2            36.2569433595      -30.4929822861      -11.5930496465  W2        9563            0.0000000000
     28688      9563  TIP3      H1             36.5366533595      -31.3999422861      -11.4688796465  W2        9563            0.0000000000
     28689      9563  TIP3      H2             37.0161133595      -30.0588322861      -11.9821296465  W2        9563            0.0000000000
     28690      9564  TIP3      OH2            36.8687733595      -29.9112422861       -6.1571596465  W2        9564            0.0000000000
     28691      9564  TIP3      H1             37.8015733595      -29.6992522861       -6.1915596465  W2        9564            0.0000000000
     28692      9564  TIP3      H2             36.6335233595      -29.8100322861       -5.2348596465  W2        9564            0.0000000000
     28693      9565  TIP3      OH2            36.8979633595      -29.1747122861       -3.3812196465  W2        9565            0.0000000000
     28694      9565  TIP3      H1             36.0550933595      -28.9066722861       -3.0152396465  W2        9565            0.0000000000
     28695      9565  TIP3      H2             37.3403933595      -28.3525222861       -3.5921096465  W2        9565            0.0000000000
     28696      9566  TIP3      OH2            21.1791833595      -30.7268422861        0.0957003535  W2        9566            0.0000000000
     28697      9566  TIP3      H1             22.0986733595      -30.8490122861        0.3320103535  W2        9566            0.0000000000
     28698      9566  TIP3      H2             20.7296333595      -31.4768722861        0.4850503535  W2        9566            0.0000000000
     28699      9567  TIP3      OH2            39.1811233595      -35.1946922861        1.9722803535  W2        9567            0.0000000000
     28700      9567  TIP3      H1             39.5308233595      -35.8483422861        1.3667503535  W2        9567            0.0000000000
     28701      9567  TIP3      H2             39.3280733595      -34.3572822861        1.5325403535  W2        9567            0.0000000000
     28702      9568  TIP3      OH2            36.8704233595      -33.2300522861      -11.5448496465  W2        9568            0.0000000000
     28703      9568  TIP3      H1             37.0529233595      -33.6789022861      -10.7193496465  W2        9568            0.0000000000
     28704      9568  TIP3      H2             36.2707133595      -33.8146122861      -12.0083896465  W2        9568            0.0000000000
     28705      9569  TIP3      OH2            22.4004333595      -32.4146822861       -7.0130096465  W2        9569            0.0000000000
     28706      9569  TIP3      H1             22.8455933595      -33.2064322861       -6.7110396465  W2        9569            0.0000000000
     28707      9569  TIP3      H2             22.8667333595      -31.6981622861       -6.5824496465  W2        9569            0.0000000000
     28708      9570  TIP3      OH2            20.7044633595      -29.4153822861       -5.9439896465  W2        9570            0.0000000000
     28709      9570  TIP3      H1             21.1964433595      -29.6363322861       -6.7347896465  W2        9570            0.0000000000
     28710      9570  TIP3      H2             21.0665533595      -28.5750422861       -5.6630396465  W2        9570            0.0000000000
     28711      9571  TIP3      OH2            38.7008433595      -33.0852322861        0.3214103535  W2        9571            0.0000000000
     28712      9571  TIP3      H1             37.7834133595      -32.8145222861        0.2857603535  W2        9571            0.0000000000
     28713      9571  TIP3      H2             38.8237833595      -33.6203922861       -0.4626196465  W2        9571            0.0000000000
     28714      9572  TIP3      OH2            38.7370433595      -33.1622422861      -15.0168196465  W2        9572            0.0000000000
     28715      9572  TIP3      H1             39.1493033595      -33.8836722861      -15.4920196465  W2        9572            0.0000000000
     28716      9572  TIP3      H2             39.4186933595      -32.4927822861      -14.9583896465  W2        9572            0.0000000000
     28717      9573  TIP3      OH2            21.0181133595      -33.1574722861      -11.8897496465  W2        9573            0.0000000000
     28718      9573  TIP3      H1             20.0929533595      -32.9488122861      -12.0191996465  W2        9573            0.0000000000
     28719      9573  TIP3      H2             21.4721033595      -32.6733922861      -12.5795196465  W2        9573            0.0000000000
     28720      9574  TIP3      OH2            35.7888333595      -18.1733022861       -9.9440096465  W2        9574            0.0000000000
     28721      9574  TIP3      H1             36.4411233595      -18.5210922861      -10.5520996465  W2        9574            0.0000000000
     28722      9574  TIP3      H2             36.2992133595      -17.6849822861       -9.2980396465  W2        9574            0.0000000000
     28723      9575  TIP3      OH2            20.9816533595      -34.4195722861       -3.5454996465  W2        9575            0.0000000000
     28724      9575  TIP3      H1             20.3167033595      -34.6655422861       -2.9024096465  W2        9575            0.0000000000
     28725      9575  TIP3      H2             20.5387833595      -33.7975322861       -4.1226996465  W2        9575            0.0000000000
     28726      9576  TIP3      OH2            23.1735833595      -21.2441622861        0.5990803535  W2        9576            0.0000000000
     28727      9576  TIP3      H1             22.3528333595      -21.0695122861        0.1385503535  W2        9576            0.0000000000
     28728      9576  TIP3      H2             22.9213633595      -21.3176922861        1.5195203535  W2        9576            0.0000000000
     28729      9577  TIP3      OH2            26.1278733595      -20.2700422861       -3.1425196465  W2        9577            0.0000000000
     28730      9577  TIP3      H1             25.7029833595      -19.4601922861       -3.4250596465  W2        9577            0.0000000000
     28731      9577  TIP3      H2             27.0321533595      -20.1846322861       -3.4445396465  W2        9577            0.0000000000
     28732      9578  TIP3      OH2            30.4390133595      -18.8710422861       -0.1831496465  W2        9578            0.0000000000
     28733      9578  TIP3      H1             30.6237633595      -19.2044322861        0.6948803535  W2        9578            0.0000000000
     28734      9578  TIP3      H2             31.2854633595      -18.5611822861       -0.5052296465  W2        9578            0.0000000000
     28735      9579  TIP3      OH2            32.7840533595      -17.5851522861       -0.9390096465  W2        9579            0.0000000000
     28736      9579  TIP3      H1             33.4609433595      -18.2179222861       -1.1790896465  W2        9579            0.0000000000
     28737      9579  TIP3      H2             33.1059333595      -17.1841022861       -0.1316796465  W2        9579            0.0000000000
     28738      9580  TIP3      OH2            37.7014333595      -34.9956022861       -1.8595096465  W2        9580            0.0000000000
     28739      9580  TIP3      H1             36.8887833595      -34.6705722861       -2.2470396465  W2        9580            0.0000000000
     28740      9580  TIP3      H2             37.9342833595      -35.7557522861       -2.3925996465  W2        9580            0.0000000000
     28741      9581  TIP3      OH2            23.5295433595      -17.0136522861       -3.0949896465  W2        9581            0.0000000000
     28742      9581  TIP3      H1             22.8091833595      -16.5735522861       -3.5462196465  W2        9581            0.0000000000
     28743      9581  TIP3      H2             23.1639433595      -17.2641822861       -2.2465896465  W2        9581            0.0000000000
     28744      9582  TIP3      OH2            25.9968033595      -17.4132622861       -4.0652696465  W2        9582            0.0000000000
     28745      9582  TIP3      H1             25.1320233595      -17.3414122861       -3.6612596465  W2        9582            0.0000000000
     28746      9582  TIP3      H2             25.9417033595      -16.8665322861       -4.8490196465  W2        9582            0.0000000000
     28747      9583  TIP3      OH2            30.7073633595      -17.5253722861       -4.8896696465  W2        9583            0.0000000000
     28748      9583  TIP3      H1             30.2507633595      -16.9964022861       -5.5438296465  W2        9583            0.0000000000
     28749      9583  TIP3      H2             30.8701633595      -16.9222322861       -4.1644396465  W2        9583            0.0000000000
     28750      9584  TIP3      OH2            33.0349933595      -18.6474122861       -3.9446396465  W2        9584            0.0000000000
     28751      9584  TIP3      H1             32.1303633595      -18.4823922861       -4.2104296465  W2        9584            0.0000000000
     28752      9584  TIP3      H2             33.4638533595      -17.7941922861       -4.0102996465  W2        9584            0.0000000000
     28753      9585  TIP3      OH2            35.6391833595      -17.0775022861       -3.6498596465  W2        9585            0.0000000000
     28754      9585  TIP3      H1             35.4573833595      -16.1616122861       -3.8603696465  W2        9585            0.0000000000
     28755      9585  TIP3      H2             35.8159633595      -17.4877922861       -4.4963996465  W2        9585            0.0000000000
     28756      9586  TIP3      OH2            22.9443533595      -18.3904022861       -6.1848096465  W2        9586            0.0000000000
     28757      9586  TIP3      H1             22.9259533595      -18.8158922861       -5.3275796465  W2        9586            0.0000000000
     28758      9586  TIP3      H2             23.7491433595      -18.7089022861       -6.5935896465  W2        9586            0.0000000000
     28759      9587  TIP3      OH2            25.0856633595      -19.6805322861       -7.5298196465  W2        9587            0.0000000000
     28760      9587  TIP3      H1             24.8667333595      -20.5967922861       -7.3602196465  W2        9587            0.0000000000
     28761      9587  TIP3      H2             25.9098833595      -19.5404922861       -7.0636796465  W2        9587            0.0000000000
     28762      9588  TIP3      OH2            27.6229133595      -19.2106022861       -6.6810196465  W2        9588            0.0000000000
     28763      9588  TIP3      H1             27.8354833595      -20.0987022861       -6.9679296465  W2        9588            0.0000000000
     28764      9588  TIP3      H2             27.6874233595      -19.2448322861       -5.7266196465  W2        9588            0.0000000000
     28765      9589  TIP3      OH2            31.1312833595      -33.5465422861       -7.5366896465  W2        9589            0.0000000000
     28766      9589  TIP3      H1             30.4569633595      -34.1759822861       -7.2811096465  W2        9589            0.0000000000
     28767      9589  TIP3      H2             31.6952033595      -34.0306522861       -8.1398996465  W2        9589            0.0000000000
     28768      9590  TIP3      OH2            36.2740033595      -35.4391422861       -7.4239796465  W2        9590            0.0000000000
     28769      9590  TIP3      H1             36.8777633595      -34.8916022861       -7.9258796465  W2        9590            0.0000000000
     28770      9590  TIP3      H2             35.4042033595      -35.1201022861       -7.6645696465  W2        9590            0.0000000000
     28771      9591  TIP3      OH2            38.0010433595      -34.3002722861       -9.0908896465  W2        9591            0.0000000000
     28772      9591  TIP3      H1             38.6127933595      -34.8147022861       -9.6175296465  W2        9591            0.0000000000
     28773      9591  TIP3      H2             38.3833833595      -33.4230622861       -9.0674496465  W2        9591            0.0000000000
     28774      9592  TIP3      OH2            23.4580333595      -34.9125122861       -9.7146996465  W2        9592            0.0000000000
     28775      9592  TIP3      H1             22.6810133595      -35.1470222861      -10.2221096465  W2        9592            0.0000000000
     28776      9592  TIP3      H2             23.9883933595      -35.7093022861       -9.7058996465  W2        9592            0.0000000000
     28777      9593  TIP3      OH2            22.2943733595      -35.1147022861      -13.9110896465  W2        9593            0.0000000000
     28778      9593  TIP3      H1             22.7334433595      -34.5036522861      -14.5027396465  W2        9593            0.0000000000
     28779      9593  TIP3      H2             21.6606133595      -34.5762922861      -13.4370896465  W2        9593            0.0000000000
     28780      9594  TIP3      OH2            28.0372933595      -34.9858022861       -9.9013896465  W2        9594            0.0000000000
     28781      9594  TIP3      H1             28.9116333595      -34.5973722861       -9.9309596465  W2        9594            0.0000000000
     28782      9594  TIP3      H2             27.9013733595      -35.2010222861       -8.9786696465  W2        9594            0.0000000000
     28783      9595  TIP3      OH2            33.5941333595      -34.9558222861       -8.2522196465  W2        9595            0.0000000000
     28784      9595  TIP3      H1             33.6702933595      -34.8606622861       -9.2016196465  W2        9595            0.0000000000
     28785      9595  TIP3      H2             33.3190533595      -35.8635322861       -8.1233096465  W2        9595            0.0000000000
     28786      9596  TIP3      OH2            34.9473933595      -34.9300422861      -12.5597196465  W2        9596            0.0000000000
     28787      9596  TIP3      H1             34.2445033595      -34.3151222861      -12.7695796465  W2        9596            0.0000000000
     28788      9596  TIP3      H2             34.5025333595      -35.7673722861      -12.4286296465  W2        9596            0.0000000000
     28789      9597  TIP3      OH2            22.1953233595      -19.1664822861      -13.0135796465  W2        9597            0.0000000000
     28790      9597  TIP3      H1             21.5103133595      -19.2045922861      -13.6810696465  W2        9597            0.0000000000
     28791      9597  TIP3      H2             22.1990433595      -18.2537222861      -12.7253696465  W2        9597            0.0000000000
     28792      9598  TIP3      OH2            24.1552833595      -33.1985522861      -15.4686796465  W2        9598            0.0000000000
     28793      9598  TIP3      H1             24.6466233595      -33.8283122861      -15.9961296465  W2        9598            0.0000000000
     28794      9598  TIP3      H2             24.7789133595      -32.9026122861      -14.8055596465  W2        9598            0.0000000000
     28795      9599  TIP3      OH2            29.1812933595      -32.9054022861      -13.0116296465  W2        9599            0.0000000000
     28796      9599  TIP3      H1             29.3594233595      -33.5520822861      -12.3287696465  W2        9599            0.0000000000
     28797      9599  TIP3      H2             29.1279133595      -32.0716322861      -12.5445196465  W2        9599            0.0000000000
     28798      9600  TIP3      OH2            31.0596733595      -17.9569922861      -14.6159596465  W2        9600            0.0000000000
     28799      9600  TIP3      H1             31.9256933595      -17.5902522861      -14.7941396465  W2        9600            0.0000000000
     28800      9600  TIP3      H2             30.8129533595      -18.3961922861      -15.4298796465  W2        9600            0.0000000000
     28801      9601  TIP3      OH2            37.7686333595      -18.3939622861      -11.9368496465  W2        9601            0.0000000000
     28802      9601  TIP3      H1             37.5743433595      -19.1417522861      -12.5018896465  W2        9601            0.0000000000
     28803      9601  TIP3      H2             37.7296433595      -17.6359522861      -12.5200596465  W2        9601            0.0000000000
     28804      9602  TIP3      OH2            23.4158333595      -34.3983222861       -0.1970796465  W2        9602            0.0000000000
     28805      9602  TIP3      H1             23.0496533595      -35.1640622861        0.2453903535  W2        9602            0.0000000000
     28806      9602  TIP3      H2             24.3286833595      -34.3693022861        0.0894303535  W2        9602            0.0000000000
     28807      9603  TIP3      OH2            25.3889133595      -35.0478822861        1.3386303535  W2        9603            0.0000000000
     28808      9603  TIP3      H1             26.2872733595      -35.3218622861        1.1539703535  W2        9603            0.0000000000
     28809      9603  TIP3      H2             25.0022233595      -35.7902822861        1.8028903535  W2        9603            0.0000000000
     28810      9604  TIP3      OH2            24.0134433595      -18.2464022861      -15.9883696465  W2        9604            0.0000000000
     28811      9604  TIP3      H1             23.7459033595      -17.9601122861      -15.1150596465  W2        9604            0.0000000000
     28812      9604  TIP3      H2             24.7847033595      -18.7924822861      -15.8361196465  W2        9604            0.0000000000
     28813      9605  TIP3      OH2            33.8101433595      -35.7153522861        1.5209103535  W2        9605            0.0000000000
     28814      9605  TIP3      H1             33.8868633595      -36.1412822861        2.3746803535  W2        9605            0.0000000000
     28815      9605  TIP3      H2             34.7038033595      -35.7018822861        1.1782603535  W2        9605            0.0000000000
     28816      9606  TIP3      OH2            36.9862533595      -19.6427222861        0.2133303535  W2        9606            0.0000000000
     28817      9606  TIP3      H1             36.2044433595      -19.8289222861       -0.3066096465  W2        9606            0.0000000000
     28818      9606  TIP3      H2             36.9142433595      -18.7132922861        0.4305803535  W2        9606            0.0000000000
     28819      9607  TIP3      OH2            51.3922933595      -25.7562822861       -9.7559496465  W2        9607            0.0000000000
     28820      9607  TIP3      H1             51.4814033595      -24.8124622861       -9.8882396465  W2        9607            0.0000000000
     28821      9607  TIP3      H2             50.7540533595      -26.0316422861      -10.4140096465  W2        9607            0.0000000000
     28822      9608  TIP3      OH2            50.3254233595      -26.5012122861       -6.3371296465  W2        9608            0.0000000000
     28823      9608  TIP3      H1             50.2871733595      -27.1475822861       -5.6321696465  W2        9608            0.0000000000
     28824      9608  TIP3      H2             50.0030733595      -26.9677722861       -7.1082596465  W2        9608            0.0000000000
     28825      9609  TIP3      OH2            42.6939233595      -26.8870022861       -4.7441396465  W2        9609            0.0000000000
     28826      9609  TIP3      H1             42.7351333595      -27.5126722861       -4.0208996465  W2        9609            0.0000000000
     28827      9609  TIP3      H2             43.3966933595      -26.2631422861       -4.5620996465  W2        9609            0.0000000000
     28828      9610  TIP3      OH2            54.0314433595      -23.5621722861       -8.0356196465  W2        9610            0.0000000000
     28829      9610  TIP3      H1             53.5907133595      -24.2825722861       -7.5850596465  W2        9610            0.0000000000
     28830      9610  TIP3      H2             54.0184133595      -22.8414522861       -7.4058496465  W2        9610            0.0000000000
     28831      9611  TIP3      OH2            43.6172333595      -22.4371122861       -6.2092296465  W2        9611            0.0000000000
     28832      9611  TIP3      H1             43.2477533595      -23.2390622861       -6.5787996465  W2        9611            0.0000000000
     28833      9611  TIP3      H2             44.5583433595      -22.6056222861       -6.1628896465  W2        9611            0.0000000000
     28834      9612  TIP3      OH2            40.2272833595      -28.7768522861      -10.8163496465  W2        9612            0.0000000000
     28835      9612  TIP3      H1             39.7796233595      -27.9309822861      -10.8346996465  W2        9612            0.0000000000
     28836      9612  TIP3      H2             39.6664033595      -29.3564322861      -11.3318396465  W2        9612            0.0000000000
     28837      9613  TIP3      OH2            40.9378933595      -26.6148922861       -8.6905496465  W2        9613            0.0000000000
     28838      9613  TIP3      H1             41.1512433595      -27.3847322861       -8.1632496465  W2        9613            0.0000000000
     28839      9613  TIP3      H2             41.6756533595      -26.5252222861       -9.2937896465  W2        9613            0.0000000000
     28840      9614  TIP3      OH2            51.1429933595      -18.4580022861       -7.8235796465  W2        9614            0.0000000000
     28841      9614  TIP3      H1             51.7626333595      -19.1345322861       -8.0966596465  W2        9614            0.0000000000
     28842      9614  TIP3      H2             50.9347333595      -18.6759222861       -6.9150896465  W2        9614            0.0000000000
     28843      9615  TIP3      OH2            48.7148633595      -24.0690722861       -5.9310296465  W2        9615            0.0000000000
     28844      9615  TIP3      H1             49.0186533595      -24.7549322861       -6.5256196465  W2        9615            0.0000000000
     28845      9615  TIP3      H2             49.4362633595      -23.9502022861       -5.3132296465  W2        9615            0.0000000000
     28846      9616  TIP3      OH2            51.8555633595      -29.6748322861       -5.6035496465  W2        9616            0.0000000000
     28847      9616  TIP3      H1             51.9981533595      -30.6211322861       -5.5833896465  W2        9616            0.0000000000
     28848      9616  TIP3      H2             51.7494633595      -29.4678522861       -6.5320596465  W2        9616            0.0000000000
     28849      9617  TIP3      OH2            45.0103933595      -31.5731922861       -8.3310696465  W2        9617            0.0000000000
     28850      9617  TIP3      H1             45.0535033595      -30.7133422861       -8.7494396465  W2        9617            0.0000000000
     28851      9617  TIP3      H2             44.5528033595      -32.1257222861       -8.9647496465  W2        9617            0.0000000000
     28852      9618  TIP3      OH2            52.7326633595      -31.4426322861       -9.9302396465  W2        9618            0.0000000000
     28853      9618  TIP3      H1             53.3790933595      -31.7713122861       -9.3054796465  W2        9618            0.0000000000
     28854      9618  TIP3      H2             53.2426033595      -30.9247322861      -10.5530996465  W2        9618            0.0000000000
     28855      9619  TIP3      OH2            41.6305433595      -29.1766122861       -7.5689296465  W2        9619            0.0000000000
     28856      9619  TIP3      H1             42.2842033595      -29.7264422861       -7.1369196465  W2        9619            0.0000000000
     28857      9619  TIP3      H2             41.6544733595      -29.4507122861       -8.4857296465  W2        9619            0.0000000000
     28858      9620  TIP3      OH2            46.7869933595      -27.6264822861       -8.3537796465  W2        9620            0.0000000000
     28859      9620  TIP3      H1             47.4030933595      -28.1529422861       -7.8443796465  W2        9620            0.0000000000
     28860      9620  TIP3      H2             46.2008733595      -28.2666122861       -8.7574196465  W2        9620            0.0000000000
     28861      9621  TIP3      OH2            43.8205833595      -32.6553522861       -4.2569896465  W2        9621            0.0000000000
     28862      9621  TIP3      H1             43.6017533595      -32.1252922861       -5.0233896465  W2        9621            0.0000000000
     28863      9621  TIP3      H2             43.1526733595      -32.4288022861       -3.6098496465  W2        9621            0.0000000000
     28864      9622  TIP3      OH2            51.1895633595      -23.1552422861      -10.7130796465  W2        9622            0.0000000000
     28865      9622  TIP3      H1             50.8940733595      -23.4780122861      -11.5643896465  W2        9622            0.0000000000
     28866      9622  TIP3      H2             50.8653433595      -22.2555722861      -10.6718196465  W2        9622            0.0000000000
     28867      9623  TIP3      OH2            46.3897233595      -24.9797822861       -3.9696196465  W2        9623            0.0000000000
     28868      9623  TIP3      H1             45.6496333595      -24.3816322861       -3.8660996465  W2        9623            0.0000000000
     28869      9623  TIP3      H2             47.1036733595      -24.4258222861       -4.2852596465  W2        9623            0.0000000000
     28870      9624  TIP3      OH2            54.4965033595      -32.1517022861       -7.9496496465  W2        9624            0.0000000000
     28871      9624  TIP3      H1             54.2813033595      -32.9173622861       -7.4170496465  W2        9624            0.0000000000
     28872      9624  TIP3      H2             55.1522433595      -31.6792422861       -7.4367996465  W2        9624            0.0000000000
     28873      9625  TIP3      OH2            43.4143133595      -30.7631722861       -6.3047696465  W2        9625            0.0000000000
     28874      9625  TIP3      H1             44.0279433595      -30.1304122861       -5.9315296465  W2        9625            0.0000000000
     28875      9625  TIP3      H2             43.9263833595      -31.2356722861       -6.9610796465  W2        9625            0.0000000000
     28876      9626  TIP3      OH2            44.7971533595      -23.0154822861       -3.1824696465  W2        9626            0.0000000000
     28877      9626  TIP3      H1             44.7919133595      -22.1361322861       -3.5605396465  W2        9626            0.0000000000
     28878      9626  TIP3      H2             43.9435633595      -23.0990722861       -2.7574796465  W2        9626            0.0000000000
     28879      9627  TIP3      OH2            40.9182433595      -23.3446922861      -12.4005396465  W2        9627            0.0000000000
     28880      9627  TIP3      H1             40.6463333595      -23.1155922861      -13.2892496465  W2        9627            0.0000000000
     28881      9627  TIP3      H2             40.9638133595      -22.5068122861      -11.9400096465  W2        9627            0.0000000000
     28882      9628  TIP3      OH2            54.5432133595      -21.7231022861       -5.6876896465  W2        9628            0.0000000000
     28883      9628  TIP3      H1             53.6015833595      -21.6647122861       -5.5259996465  W2        9628            0.0000000000
     28884      9628  TIP3      H2             54.8198233595      -20.8170522861       -5.8247196465  W2        9628            0.0000000000
     28885      9629  TIP3      OH2            47.8470533595      -35.3498422861       -6.8044996465  W2        9629            0.0000000000
     28886      9629  TIP3      H1             47.7294733595      -36.2982422861       -6.8586696465  W2        9629            0.0000000000
     28887      9629  TIP3      H2             46.9920633595      -35.0172322861       -6.5313896465  W2        9629            0.0000000000
     28888      9630  TIP3      OH2            52.7953333595      -19.9417522861       -9.0625296465  W2        9630            0.0000000000
     28889      9630  TIP3      H1             53.2205633595      -20.6489622861       -9.5475696465  W2        9630            0.0000000000
     28890      9630  TIP3      H2             53.1123333595      -19.1404822861       -9.4793096465  W2        9630            0.0000000000
     28891      9631  TIP3      OH2            53.9549833595      -22.0409022861      -10.5538696465  W2        9631            0.0000000000
     28892      9631  TIP3      H1             53.6974633595      -22.7308922861      -11.1652796465  W2        9631            0.0000000000
     28893      9631  TIP3      H2             54.0260633595      -22.4837822861       -9.7082796465  W2        9631            0.0000000000
     28894      9632  TIP3      OH2            50.1135433595      -26.5122822861      -12.3039196465  W2        9632            0.0000000000
     28895      9632  TIP3      H1             49.4020933595      -25.9773122861      -12.6558696465  W2        9632            0.0000000000
     28896      9632  TIP3      H2             50.8045033595      -26.4570722861      -12.9640296465  W2        9632            0.0000000000
     28897      9633  TIP3      OH2            50.1674633595      -28.0548522861      -15.2654196465  W2        9633            0.0000000000
     28898      9633  TIP3      H1             50.8684533595      -28.0321622861      -14.6140196465  W2        9633            0.0000000000
     28899      9633  TIP3      H2             50.4697533595      -28.6828822861      -15.9214896465  W2        9633            0.0000000000
     28900      9634  TIP3      OH2            53.5193133595      -26.3029522861      -11.3523296465  W2        9634            0.0000000000
     28901      9634  TIP3      H1             52.7874133595      -26.0745822861      -10.7792696465  W2        9634            0.0000000000
     28902      9634  TIP3      H2             53.9665333595      -27.0166822861      -10.8975796465  W2        9634            0.0000000000
     28903      9635  TIP3      OH2            53.4166633595      -28.1286922861       -2.2846296465  W2        9635            0.0000000000
     28904      9635  TIP3      H1             53.4965733595      -27.3652522861       -1.7127796465  W2        9635            0.0000000000
     28905      9635  TIP3      H2             52.8154333595      -27.8494522861       -2.9751196465  W2        9635            0.0000000000
     28906      9636  TIP3      OH2            45.1646833595      -25.6723322861       -9.4698296465  W2        9636            0.0000000000
     28907      9636  TIP3      H1             44.8342033595      -26.0429922861      -10.2881296465  W2        9636            0.0000000000
     28908      9636  TIP3      H2             45.7530933595      -26.3429322861       -9.1229996465  W2        9636            0.0000000000
     28909      9637  TIP3      OH2            46.5314333595      -22.2442722861       -6.7886096465  W2        9637            0.0000000000
     28910      9637  TIP3      H1             46.4365633595      -22.8229622861       -7.5451496465  W2        9637            0.0000000000
     28911      9637  TIP3      H2             47.2607933595      -22.6157022861       -6.2923296465  W2        9637            0.0000000000
     28912      9638  TIP3      OH2            45.5312333595      -26.9037722861       -5.8363296465  W2        9638            0.0000000000
     28913      9638  TIP3      H1             46.0964833595      -26.7823522861       -6.5992096465  W2        9638            0.0000000000
     28914      9638  TIP3      H2             45.8501233595      -26.2662722861       -5.1974796465  W2        9638            0.0000000000
     28915      9639  TIP3      OH2            51.8404533595      -21.4005822861       -5.1022796465  W2        9639            0.0000000000
     28916      9639  TIP3      H1             51.6001133595      -20.7382722861       -4.4543596465  W2        9639            0.0000000000
     28917      9639  TIP3      H2             51.6422733595      -22.2350622861       -4.6773196465  W2        9639            0.0000000000
     28918      9640  TIP3      OH2            46.4113033595      -22.5045022861       -1.1191396465  W2        9640            0.0000000000
     28919      9640  TIP3      H1             46.1000533595      -21.7221822861       -0.6638196465  W2        9640            0.0000000000
     28920      9640  TIP3      H2             45.7613233595      -22.6575922861       -1.8049396465  W2        9640            0.0000000000
     28921      9641  TIP3      OH2            52.3902633595      -27.1406622861      -13.6672096465  W2        9641            0.0000000000
     28922      9641  TIP3      H1             52.9698133595      -26.9906322861      -12.9203196465  W2        9641            0.0000000000
     28923      9641  TIP3      H2             52.8042633595      -26.6699222861      -14.3905696465  W2        9641            0.0000000000
     28924      9642  TIP3      OH2            43.3312933595      -26.3063922861       -1.8905696465  W2        9642            0.0000000000
     28925      9642  TIP3      H1             43.4016133595      -25.6557122861       -1.1920696465  W2        9642            0.0000000000
     28926      9642  TIP3      H2             42.4405133595      -26.2036422861       -2.2254796465  W2        9642            0.0000000000
     28927      9643  TIP3      OH2            50.1167533595      -20.4038122861      -10.2318996465  W2        9643            0.0000000000
     28928      9643  TIP3      H1             50.5905133595      -20.1081822861       -9.4544796465  W2        9643            0.0000000000
     28929      9643  TIP3      H2             49.5536833595      -19.6656522861      -10.4649396465  W2        9643            0.0000000000
     28930      9644  TIP3      OH2            44.6508933595      -20.4330022861       -0.3557596465  W2        9644            0.0000000000
     28931      9644  TIP3      H1             44.6584233595      -20.5690322861       -1.3032096465  W2        9644            0.0000000000
     28932      9644  TIP3      H2             43.7349333595      -20.5501922861       -0.1037596465  W2        9644            0.0000000000
     28933      9645  TIP3      OH2            44.1549533595      -26.6029022861      -11.8805496465  W2        9645            0.0000000000
     28934      9645  TIP3      H1             43.8630833595      -25.8347322861      -12.3714196465  W2        9645            0.0000000000
     28935      9645  TIP3      H2             43.4804733595      -27.2622822861      -12.0434096465  W2        9645            0.0000000000
     28936      9646  TIP3      OH2            40.2479633595      -24.2399822861       -3.0655696465  W2        9646            0.0000000000
     28937      9646  TIP3      H1             39.7468033595      -24.2680422861       -3.8805996465  W2        9646            0.0000000000
     28938      9646  TIP3      H2             40.2533333595      -25.1456622861       -2.7558396465  W2        9646            0.0000000000
     28939      9647  TIP3      OH2            39.9982333595      -21.4596022861       -6.1815496465  W2        9647            0.0000000000
     28940      9647  TIP3      H1             40.9442933595      -21.6039022861       -6.2005996465  W2        9647            0.0000000000
     28941      9647  TIP3      H2             39.8858633595      -20.6753222861       -5.6444296465  W2        9647            0.0000000000
     28942      9648  TIP3      OH2            49.1744833595      -21.2197122861       -1.6230396465  W2        9648            0.0000000000
     28943      9648  TIP3      H1             49.2619433595      -20.3932522861       -1.1481296465  W2        9648            0.0000000000
     28944      9648  TIP3      H2             48.3109933595      -21.5493322861       -1.3741096465  W2        9648            0.0000000000
     28945      9649  TIP3      OH2            49.5890633595      -17.4473422861      -11.8169796465  W2        9649            0.0000000000
     28946      9649  TIP3      H1             49.5136633595      -17.5686222861      -12.7634596465  W2        9649            0.0000000000
     28947      9649  TIP3      H2             49.6219333595      -16.4980722861      -11.6985196465  W2        9649            0.0000000000
     28948      9650  TIP3      OH2            43.2424433595      -18.6586422861      -10.0360796465  W2        9650            0.0000000000
     28949      9650  TIP3      H1             43.3944833595      -19.0066022861       -9.1574296465  W2        9650            0.0000000000
     28950      9650  TIP3      H2             42.3914833595      -19.0149122861      -10.2913596465  W2        9650            0.0000000000
     28951      9651  TIP3      OH2            52.6906633595      -18.2933222861      -14.8147396465  W2        9651            0.0000000000
     28952      9651  TIP3      H1             53.0655033595      -19.0377122861      -15.2854796465  W2        9651            0.0000000000
     28953      9651  TIP3      H2             52.6950333595      -18.5632622861      -13.8964096465  W2        9651            0.0000000000
     28954      9652  TIP3      OH2            52.3594733595      -18.3676122861      -12.0655196465  W2        9652            0.0000000000
     28955      9652  TIP3      H1             51.4244533595      -18.2674222861      -11.8868196465  W2        9652            0.0000000000
     28956      9652  TIP3      H2             52.6396633595      -19.0770122861      -11.4871996465  W2        9652            0.0000000000
     28957      9653  TIP3      OH2            42.4970133595      -22.9164422861       -2.0222896465  W2        9653            0.0000000000
     28958      9653  TIP3      H1             42.7131433595      -23.2778822861       -1.1627096465  W2        9653            0.0000000000
     28959      9653  TIP3      H2             41.6414833595      -23.2910622861       -2.2319396465  W2        9653            0.0000000000
     28960      9654  TIP3      OH2            45.1158133595      -34.4463922861       -6.0268696465  W2        9654            0.0000000000
     28961      9654  TIP3      H1             44.2541833595      -34.5335722861       -6.4345796465  W2        9654            0.0000000000
     28962      9654  TIP3      H2             45.0933833595      -33.5903822861       -5.5991096465  W2        9654            0.0000000000
     28963      9655  TIP3      OH2            49.7785933595      -34.7243522861       -2.6521696465  W2        9655            0.0000000000
     28964      9655  TIP3      H1             50.1989033595      -35.1396422861       -1.8991096465  W2        9655            0.0000000000
     28965      9655  TIP3      H2             48.8455533595      -34.9030222861       -2.5349696465  W2        9655            0.0000000000
     28966      9656  TIP3      OH2            53.1050833595      -30.9688322861       -1.7987196465  W2        9656            0.0000000000
     28967      9656  TIP3      H1             52.5910333595      -31.0946122861       -1.0011196465  W2        9656            0.0000000000
     28968      9656  TIP3      H2             52.9495533595      -30.0565222861       -2.0430996465  W2        9656            0.0000000000
     28969      9657  TIP3      OH2            53.8675733595      -26.1078322861      -16.0374196465  W2        9657            0.0000000000
     28970      9657  TIP3      H1             53.9096533595      -26.3304422861      -16.9674196465  W2        9657            0.0000000000
     28971      9657  TIP3      H2             54.7167833595      -25.7091222861      -15.8474296465  W2        9657            0.0000000000
     28972      9658  TIP3      OH2            49.4403233595      -32.2320122861      -15.3670896465  W2        9658            0.0000000000
     28973      9658  TIP3      H1             49.1868033595      -32.2128522861      -14.4442796465  W2        9658            0.0000000000
     28974      9658  TIP3      H2             49.1835333595      -33.1034722861      -15.6684696465  W2        9658            0.0000000000
     28975      9659  TIP3      OH2            45.2068233595      -29.4809422861       -4.9318496465  W2        9659            0.0000000000
     28976      9659  TIP3      H1             44.5650333595      -29.5212122861       -4.2228396465  W2        9659            0.0000000000
     28977      9659  TIP3      H2             45.2440233595      -28.5544722861       -5.1695496465  W2        9659            0.0000000000
     28978      9660  TIP3      OH2            45.2037333595      -29.2599322861      -10.0198496465  W2        9660            0.0000000000
     28979      9660  TIP3      H1             44.3110233595      -29.6003222861      -10.0784696465  W2        9660            0.0000000000
     28980      9660  TIP3      H2             45.6543933595      -29.6368422861      -10.7755296465  W2        9660            0.0000000000
     28981      9661  TIP3      OH2            50.7392833595      -28.8439022861      -11.2027696465  W2        9661            0.0000000000
     28982      9661  TIP3      H1             50.3303133595      -28.0290422861      -11.4942896465  W2        9661            0.0000000000
     28983      9661  TIP3      H2             51.4599033595      -28.9838922861      -11.8170596465  W2        9661            0.0000000000
     28984      9662  TIP3      OH2            49.8414433595      -28.6682622861        0.2853003535  W2        9662            0.0000000000
     28985      9662  TIP3      H1             49.2788233595      -29.3731022861        0.6060803535  W2        9662            0.0000000000
     28986      9662  TIP3      H2             50.6677833595      -28.7890722861        0.7530603535  W2        9662            0.0000000000
     28987      9663  TIP3      OH2            51.7440533595      -29.3978622861       -8.3887996465  W2        9663            0.0000000000
     28988      9663  TIP3      H1             51.5485033595      -28.7921822861       -9.1037396465  W2        9663            0.0000000000
     28989      9663  TIP3      H2             51.9253133595      -30.2313422861       -8.8231696465  W2        9663            0.0000000000
     28990      9664  TIP3      OH2            42.9568733595      -29.1605922861       -3.0646496465  W2        9664            0.0000000000
     28991      9664  TIP3      H1             42.9188133595      -28.7604322861       -2.1959396465  W2        9664            0.0000000000
     28992      9664  TIP3      H2             42.4659833595      -29.9773522861       -2.9743596465  W2        9664            0.0000000000
     28993      9665  TIP3      OH2            46.3226133595      -31.7863622861      -16.2660496465  W2        9665            0.0000000000
     28994      9665  TIP3      H1             45.8916833595      -32.2313522861      -15.5363096465  W2        9665            0.0000000000
     28995      9665  TIP3      H2             45.6044833595      -31.4147322861      -16.7782996465  W2        9665            0.0000000000
     28996      9666  TIP3      OH2            39.5649533595      -32.0444122861       -9.2141796465  W2        9666            0.0000000000
     28997      9666  TIP3      H1             40.1957233595      -32.0732022861       -8.4947896465  W2        9666            0.0000000000
     28998      9666  TIP3      H2             40.0143833595      -32.4695422861       -9.9445896465  W2        9666            0.0000000000
     28999      9667  TIP3      OH2            40.8391633595      -31.2982122861      -13.7901396465  W2        9667            0.0000000000
     29000      9667  TIP3      H1             41.3133333595      -30.7072222861      -14.3750496465  W2        9667            0.0000000000
     29001      9667  TIP3      H2             40.1218033595      -30.7679222861      -13.4431296465  W2        9667            0.0000000000
     29002      9668  TIP3      OH2            51.0079733595      -27.7597322861       -3.7175596465  W2        9668            0.0000000000
     29003      9668  TIP3      H1             51.3314533595      -28.3907622861       -4.3605096465  W2        9668            0.0000000000
     29004      9668  TIP3      H2             50.5679033595      -28.2945122861       -3.0568196465  W2        9668            0.0000000000
     29005      9669  TIP3      OH2            47.7852633595      -31.8321822861       -8.9334396465  W2        9669            0.0000000000
     29006      9669  TIP3      H1             46.8743733595      -31.7755022861       -8.6448396465  W2        9669            0.0000000000
     29007      9669  TIP3      H2             48.2905533595      -31.8926322861       -8.1227196465  W2        9669            0.0000000000
     29008      9670  TIP3      OH2            42.6136033595      -30.2035522861      -10.1066796465  W2        9670            0.0000000000
     29009      9670  TIP3      H1             41.7244033595      -30.1040022861      -10.4467196465  W2        9670            0.0000000000
     29010      9670  TIP3      H2             42.9100933595      -31.0452522861      -10.4528896465  W2        9670            0.0000000000
     29011      9671  TIP3      OH2            46.2667833595      -30.2032922861      -12.4502196465  W2        9671            0.0000000000
     29012      9671  TIP3      H1             47.1983333595      -30.0742922861      -12.2719096465  W2        9671            0.0000000000
     29013      9671  TIP3      H2             46.0518133595      -29.5338622861      -13.0997496465  W2        9671            0.0000000000
     29014      9672  TIP3      OH2            52.1904533595      -32.5975522861       -5.6692596465  W2        9672            0.0000000000
     29015      9672  TIP3      H1             51.5136133595      -32.4662422861       -5.0052896465  W2        9672            0.0000000000
     29016      9672  TIP3      H2             51.7049433595      -32.7526022861       -6.4794896465  W2        9672            0.0000000000
     29017      9673  TIP3      OH2            44.9408033595      -29.0090722861      -14.8836096465  W2        9673            0.0000000000
     29018      9673  TIP3      H1             44.3983133595      -29.3886922861      -15.5748496465  W2        9673            0.0000000000
     29019      9673  TIP3      H2             45.7742933595      -28.8146022861      -15.3121996465  W2        9673            0.0000000000
     29020      9674  TIP3      OH2            43.0759433595      -24.4518822861        0.2155503535  W2        9674            0.0000000000
     29021      9674  TIP3      H1             43.8081833595      -24.1972922861        0.7770003535  W2        9674            0.0000000000
     29022      9674  TIP3      H2             42.2958133595      -24.2473422861        0.7310903535  W2        9674            0.0000000000
     29023      9675  TIP3      OH2            49.1052333595      -29.0448822861       -7.0464796465  W2        9675            0.0000000000
     29024      9675  TIP3      H1             49.6695733595      -29.5912222861       -7.5935196465  W2        9675            0.0000000000
     29025      9675  TIP3      H2             48.9575733595      -29.5666922861       -6.2577196465  W2        9675            0.0000000000
     29026      9676  TIP3      OH2            44.1072033595      -32.9082722861      -10.6279996465  W2        9676            0.0000000000
     29027      9676  TIP3      H1             43.7901533595      -33.8107422861      -10.6634596465  W2        9676            0.0000000000
     29028      9676  TIP3      H2             44.8886133595      -32.9065322861      -11.1808396465  W2        9676            0.0000000000
     29029      9677  TIP3      OH2            47.7318233595      -30.6562722861       -4.6324396465  W2        9677            0.0000000000
     29030      9677  TIP3      H1             46.8963533595      -30.2023222861       -4.5221996465  W2        9677            0.0000000000
     29031      9677  TIP3      H2             48.2558833595      -30.3804222861       -3.8804496465  W2        9677            0.0000000000
     29032      9678  TIP3      OH2            48.2760833595      -24.4435022861      -12.9477996465  W2        9678            0.0000000000
     29033      9678  TIP3      H1             47.5311833595      -24.9509722861      -13.2700096465  W2        9678            0.0000000000
     29034      9678  TIP3      H2             48.1418033595      -24.3947022861      -12.0013196465  W2        9678            0.0000000000
     29035      9679  TIP3      OH2            52.1737633595      -31.6295122861      -14.7485396465  W2        9679            0.0000000000
     29036      9679  TIP3      H1             51.2351833595      -31.5179522861      -14.8996596465  W2        9679            0.0000000000
     29037      9679  TIP3      H2             52.4709733595      -30.7728222861      -14.4419696465  W2        9679            0.0000000000
     29038      9680  TIP3      OH2            49.7952933595      -24.2591722861       -1.7108896465  W2        9680            0.0000000000
     29039      9680  TIP3      H1             49.4499033595      -24.6409322861       -0.9039296465  W2        9680            0.0000000000
     29040      9680  TIP3      H2             49.5953033595      -23.3258122861       -1.6395996465  W2        9680            0.0000000000
     29041      9681  TIP3      OH2            52.8921133595      -29.7622422861      -13.0877996465  W2        9681            0.0000000000
     29042      9681  TIP3      H1             53.7840133595      -29.8997422861      -12.7686796465  W2        9681            0.0000000000
     29043      9681  TIP3      H2             52.9484733595      -28.9716322861      -13.6244496465  W2        9681            0.0000000000
     29044      9682  TIP3      OH2            43.4009133595      -25.1485022861       -7.1780096465  W2        9682            0.0000000000
     29045      9682  TIP3      H1             44.1456333595      -25.1509322861       -7.7793596465  W2        9682            0.0000000000
     29046      9682  TIP3      H2             43.4785733595      -25.9721222861       -6.6964996465  W2        9682            0.0000000000
     29047      9683  TIP3      OH2            50.4014933595      -22.9850722861      -13.9223396465  W2        9683            0.0000000000
     29048      9683  TIP3      H1             50.1063333595      -22.1582822861      -13.5408596465  W2        9683            0.0000000000
     29049      9683  TIP3      H2             49.6984933595      -23.6043822861      -13.7261996465  W2        9683            0.0000000000
     29050      9684  TIP3      OH2            40.4088833595      -26.6878122861       -1.8631596465  W2        9684            0.0000000000
     29051      9684  TIP3      H1             40.6317433595      -27.1058522861       -1.0314096465  W2        9684            0.0000000000
     29052      9684  TIP3      H2             39.8068933595      -27.3003122861       -2.2858796465  W2        9684            0.0000000000
     29053      9685  TIP3      OH2            47.4253733595      -27.1708222861        0.3498103535  W2        9685            0.0000000000
     29054      9685  TIP3      H1             47.1294533595      -27.3365222861       -0.5452796465  W2        9685            0.0000000000
     29055      9685  TIP3      H2             48.3568933595      -27.3907922861        0.3392003535  W2        9685            0.0000000000
     29056      9686  TIP3      OH2            52.0456533595      -21.7976222861       -1.7603896465  W2        9686            0.0000000000
     29057      9686  TIP3      H1             51.1450833595      -21.6143622861       -2.0279996465  W2        9686            0.0000000000
     29058      9686  TIP3      H2             52.0797633595      -21.5386922861       -0.8395096465  W2        9686            0.0000000000
     29059      9687  TIP3      OH2            53.2325433595      -25.9588422861       -5.9067296465  W2        9687            0.0000000000
     29060      9687  TIP3      H1             52.3042333595      -26.1906522861       -5.9337996465  W2        9687            0.0000000000
     29061      9687  TIP3      H2             53.6836533595      -26.7358622861       -6.2368496465  W2        9687            0.0000000000
     29062      9688  TIP3      OH2            45.7758533595      -21.6306822861       -9.7738596465  W2        9688            0.0000000000
     29063      9688  TIP3      H1             46.3030733595      -20.8572422861       -9.9739796465  W2        9688            0.0000000000
     29064      9688  TIP3      H2             44.8957033595      -21.4057622861      -10.0754596465  W2        9688            0.0000000000
     29065      9689  TIP3      OH2            41.5306233595      -26.7682722861      -15.1866196465  W2        9689            0.0000000000
     29066      9689  TIP3      H1             42.1466133595      -26.1415522861      -14.8071396465  W2        9689            0.0000000000
     29067      9689  TIP3      H2             40.6688833595      -26.4522922861      -14.9149696465  W2        9689            0.0000000000
     29068      9690  TIP3      OH2            47.2030833595      -23.9676922861      -10.1974296465  W2        9690            0.0000000000
     29069      9690  TIP3      H1             46.9620833595      -23.0422522861      -10.1558996465  W2        9690            0.0000000000
     29070      9690  TIP3      H2             46.4624433595      -24.4265622861       -9.8010396465  W2        9690            0.0000000000
     29071      9691  TIP3      OH2            47.7177433595      -19.8183322861       -3.8823196465  W2        9691            0.0000000000
     29072      9691  TIP3      H1             48.0802133595      -18.9637722861       -4.1158796465  W2        9691            0.0000000000
     29073      9691  TIP3      H2             48.2492633595      -20.1101722861       -3.1416896465  W2        9691            0.0000000000
     29074      9692  TIP3      OH2            45.8861633595      -18.9459322861      -10.6522096465  W2        9692            0.0000000000
     29075      9692  TIP3      H1             44.9362133595      -18.8401922861      -10.6008796465  W2        9692            0.0000000000
     29076      9692  TIP3      H2             46.2379733595      -18.1251922861      -10.3074596465  W2        9692            0.0000000000
     29077      9693  TIP3      OH2            51.2618233595      -23.7192622861       -4.1817596465  W2        9693            0.0000000000
     29078      9693  TIP3      H1             50.8359533595      -23.9470922861       -3.3553596465  W2        9693            0.0000000000
     29079      9693  TIP3      H2             51.8424033595      -24.4580822861       -4.3642296465  W2        9693            0.0000000000
     29080      9694  TIP3      OH2            53.4647133595      -22.7902122861      -15.1078596465  W2        9694            0.0000000000
     29081      9694  TIP3      H1             53.8180233595      -23.1702322861      -14.3035096465  W2        9694            0.0000000000
     29082      9694  TIP3      H2             52.5160633595      -22.8837322861      -15.0209296465  W2        9694            0.0000000000
     29083      9695  TIP3      OH2            53.9202433595      -19.1673122861       -1.7122796465  W2        9695            0.0000000000
     29084      9695  TIP3      H1             53.3185633595      -19.7230222861       -2.2076496465  W2        9695            0.0000000000
     29085      9695  TIP3      H2             54.2016133595      -18.5003322861       -2.3385396465  W2        9695            0.0000000000
     29086      9696  TIP3      OH2            42.0428333595      -31.9345422861       -2.3050196465  W2        9696            0.0000000000
     29087      9696  TIP3      H1             41.1500633595      -31.5960022861       -2.3726196465  W2        9696            0.0000000000
     29088      9696  TIP3      H2             41.9441133595      -32.7899322861       -1.8869396465  W2        9696            0.0000000000
     29089      9697  TIP3      OH2            54.3306433595      -24.1180122861      -12.8810696465  W2        9697            0.0000000000
     29090      9697  TIP3      H1             54.0534033595      -24.8460822861      -12.3249596465  W2        9697            0.0000000000
     29091      9697  TIP3      H2             55.2579433595      -23.9988122861      -12.6758096465  W2        9697            0.0000000000
     29092      9698  TIP3      OH2            41.6940333595      -20.1301022861       -3.8700796465  W2        9698            0.0000000000
     29093      9698  TIP3      H1             41.9110633595      -21.0618622861       -3.9011096465  W2        9698            0.0000000000
     29094      9698  TIP3      H2             41.9403833595      -19.8556022861       -2.9867996465  W2        9698            0.0000000000
     29095      9699  TIP3      OH2            47.5554933595      -21.6786022861      -16.6608596465  W2        9699            0.0000000000
     29096      9699  TIP3      H1             47.7944733595      -22.4267922861      -17.2079696465  W2        9699            0.0000000000
     29097      9699  TIP3      H2             47.2866233595      -22.0664322861      -15.8280796465  W2        9699            0.0000000000
     29098      9700  TIP3      OH2            46.4925533595      -22.1082222861      -14.2045996465  W2        9700            0.0000000000
     29099      9700  TIP3      H1             46.6393533595      -22.6282422861      -13.4145096465  W2        9700            0.0000000000
     29100      9700  TIP3      H2             46.4897233595      -21.2014622861      -13.8980096465  W2        9700            0.0000000000
     29101      9701  TIP3      OH2            42.9456633595      -24.8558922861      -13.6940596465  W2        9701            0.0000000000
     29102      9701  TIP3      H1             42.2595933595      -24.5036422861      -13.1270896465  W2        9701            0.0000000000
     29103      9701  TIP3      H2             43.4684533595      -24.0929322861      -13.9406296465  W2        9701            0.0000000000
     29104      9702  TIP3      OH2            50.7771733595      -32.1935122861       -3.4151596465  W2        9702            0.0000000000
     29105      9702  TIP3      H1             51.4759633595      -32.1196422861       -2.7651896465  W2        9702            0.0000000000
     29106      9702  TIP3      H2             50.3963133595      -33.0580122861       -3.2608696465  W2        9702            0.0000000000
     29107      9703  TIP3      OH2            51.5616633595      -32.5413422861      -12.3179296465  W2        9703            0.0000000000
     29108      9703  TIP3      H1             51.7814933595      -32.0698022861      -13.1213896465  W2        9703            0.0000000000
     29109      9703  TIP3      H2             52.1200633595      -32.1470822861      -11.6478696465  W2        9703            0.0000000000
     29110      9704  TIP3      OH2            49.2302733595      -20.4108622861      -13.4551796465  W2        9704            0.0000000000
     29111      9704  TIP3      H1             48.4138833595      -19.9138922861      -13.4027496465  W2        9704            0.0000000000
     29112      9704  TIP3      H2             49.7599033595      -19.9355122861      -14.0952996465  W2        9704            0.0000000000
     29113      9705  TIP3      OH2            48.7616533595      -30.8134622861      -11.4830896465  W2        9705            0.0000000000
     29114      9705  TIP3      H1             49.5739133595      -30.3091422861      -11.4369196465  W2        9705            0.0000000000
     29115      9705  TIP3      H2             48.5169533595      -30.9584922861      -10.5691296465  W2        9705            0.0000000000
     29116      9706  TIP3      OH2            49.2972933595      -29.8271922861       -2.2984296465  W2        9706            0.0000000000
     29117      9706  TIP3      H1             49.4163233595      -29.2536522861       -1.5413896465  W2        9706            0.0000000000
     29118      9706  TIP3      H2             49.9527533595      -30.5152522861       -2.1836496465  W2        9706            0.0000000000
     29119      9707  TIP3      OH2            49.6453233595      -33.7321622861      -10.5449796465  W2        9707            0.0000000000
     29120      9707  TIP3      H1             49.2986733595      -33.1151022861       -9.9005496465  W2        9707            0.0000000000
     29121      9707  TIP3      H2             50.3040133595      -33.2315922861      -11.0264296465  W2        9707            0.0000000000
     29122      9708  TIP3      OH2            46.5685833595      -19.3671422861      -13.4734896465  W2        9708            0.0000000000
     29123      9708  TIP3      H1             46.7294533595      -18.5673922861      -13.9742296465  W2        9708            0.0000000000
     29124      9708  TIP3      H2             46.3713633595      -19.0605422861      -12.5884296465  W2        9708            0.0000000000
     29125      9709  TIP3      OH2            45.3030233595      -32.6692222861      -13.8577296465  W2        9709            0.0000000000
     29126      9709  TIP3      H1             45.2195033595      -31.7809122861      -13.5110896465  W2        9709            0.0000000000
     29127      9709  TIP3      H2             46.1930533595      -32.9345522861      -13.6260496465  W2        9709            0.0000000000
     29128      9710  TIP3      OH2            54.1039733595      -28.1700622861       -7.3677296465  W2        9710            0.0000000000
     29129      9710  TIP3      H1             53.3064133595      -28.5850422861       -7.6962296465  W2        9710            0.0000000000
     29130      9710  TIP3      H2             54.5490833595      -28.8606922861       -6.8766796465  W2        9710            0.0000000000
     29131      9711  TIP3      OH2            43.5615533595      -22.2420022861      -14.7972796465  W2        9711            0.0000000000
     29132      9711  TIP3      H1             44.1537033595      -21.5425222861      -14.5210396465  W2        9711            0.0000000000
     29133      9711  TIP3      H2             44.0208533595      -22.6750522861      -15.5168196465  W2        9711            0.0000000000
     29134      9712  TIP3      OH2            41.8774733595      -29.5777022861      -15.6813396465  W2        9712            0.0000000000
     29135      9712  TIP3      H1             41.8327333595      -28.6383922861      -15.5026396465  W2        9712            0.0000000000
     29136      9712  TIP3      H2             40.9897933595      -29.8132122861      -15.9511296465  W2        9712            0.0000000000
     29137      9713  TIP3      OH2            42.6856733595      -34.7960422861       -7.0082396465  W2        9713            0.0000000000
     29138      9713  TIP3      H1             42.4566533595      -34.7367922861       -7.9357396465  W2        9713            0.0000000000
     29139      9713  TIP3      H2             42.2430133595      -35.5874922861       -6.7018296465  W2        9713            0.0000000000
     29140      9714  TIP3      OH2            41.6160033595      -20.8553322861      -10.8476596465  W2        9714            0.0000000000
     29141      9714  TIP3      H1             40.7838633595      -20.3830622861      -10.8205196465  W2        9714            0.0000000000
     29142      9714  TIP3      H2             42.1618333595      -20.3455722861      -11.4463496465  W2        9714            0.0000000000
     29143      9715  TIP3      OH2            40.9043733595      -18.2429622861        0.4821403535  W2        9715            0.0000000000
     29144      9715  TIP3      H1             41.4445933595      -18.4595622861        1.2420603535  W2        9715            0.0000000000
     29145      9715  TIP3      H2             40.4231733595      -19.0483622861        0.2923903535  W2        9715            0.0000000000
     29146      9716  TIP3      OH2            45.5017133595      -19.3235222861        2.1025603535  W2        9716            0.0000000000
     29147      9716  TIP3      H1             46.2694333595      -19.7824422861        2.4434803535  W2        9716            0.0000000000
     29148      9716  TIP3      H2             45.4803333595      -19.5495422861        1.1726803535  W2        9716            0.0000000000
     29149      9717  TIP3      OH2            49.5936733595      -19.8154622861      -16.5222596465  W2        9717            0.0000000000
     29150      9717  TIP3      H1             48.9497733595      -20.4466022861      -16.2008896465  W2        9717            0.0000000000
     29151      9717  TIP3      H2             50.3555033595      -20.3466622861      -16.7539096465  W2        9717            0.0000000000
     29152      9718  TIP3      OH2            52.0785833595      -20.9434122861        0.8317103535  W2        9718            0.0000000000
     29153      9718  TIP3      H1             51.7275333595      -21.8001122861        1.0747503535  W2        9718            0.0000000000
     29154      9718  TIP3      H2             52.8049033595      -20.8007422861        1.4386103535  W2        9718            0.0000000000
     29155      9719  TIP3      OH2            54.1979633595      -19.9984722861      -16.2884596465  W2        9719            0.0000000000
     29156      9719  TIP3      H1             54.4810033595      -20.7929522861      -15.8357696465  W2        9719            0.0000000000
     29157      9719  TIP3      H2             54.9377533595      -19.7653722861      -16.8493496465  W2        9719            0.0000000000
     29158      9720  TIP3      OH2            40.8113233595      -24.4325522861        1.4365703535  W2        9720            0.0000000000
     29159      9720  TIP3      H1             40.9553733595      -25.3344822861        1.1502403535  W2        9720            0.0000000000
     29160      9720  TIP3      H2             40.0390633595      -24.1463422861        0.9488003535  W2        9720            0.0000000000
     29161      9721  TIP3      OH2            45.1526933595      -24.0889822861      -16.4309696465  W2        9721            0.0000000000
     29162      9721  TIP3      H1             45.2171033595      -24.8830222861      -15.9003296465  W2        9721            0.0000000000
     29163      9721  TIP3      H2             45.8056133595      -24.2077022861      -17.1207696465  W2        9721            0.0000000000
     29164      9722  TIP3      OH2            47.4669333595      -24.4627422861        0.8692103535  W2        9722            0.0000000000
     29165      9722  TIP3      H1             47.1383133595      -24.1919322861        0.0119503535  W2        9722            0.0000000000
     29166      9722  TIP3      H2             47.6187533595      -25.4037622861        0.7817103535  W2        9722            0.0000000000
     29167      9723  TIP3      OH2            50.5050333595      -23.0418122861      -16.6951696465  W2        9723            0.0000000000
     29168      9723  TIP3      H1             50.2364433595      -22.8616022861      -15.7942796465  W2        9723            0.0000000000
     29169      9723  TIP3      H2             50.2985933595      -23.9671922861      -16.8265896465  W2        9723            0.0000000000
     29170      9724  TIP3      OH2            53.2014533595      -24.5470122861       -1.7475596465  W2        9724            0.0000000000
     29171      9724  TIP3      H1             53.9469333595      -23.9586422861       -1.8671596465  W2        9724            0.0000000000
     29172      9724  TIP3      H2             52.4441333595      -23.9650422861       -1.6842496465  W2        9724            0.0000000000
     29173      9725  TIP3      OH2            41.6439733595      -27.2322222861        0.8565003535  W2        9725            0.0000000000
     29174      9725  TIP3      H1             42.0520933595      -28.0895622861        0.7355603535  W2        9725            0.0000000000
     29175      9725  TIP3      H2             41.3837333595      -27.2180922861        1.7775303535  W2        9725            0.0000000000
     29176      9726  TIP3      OH2            46.3020733595      -26.1163622861      -14.1251696465  W2        9726            0.0000000000
     29177      9726  TIP3      H1             45.8422733595      -26.6005322861      -13.4393196465  W2        9726            0.0000000000
     29178      9726  TIP3      H2             46.5569433595      -26.7848222861      -14.7611196465  W2        9726            0.0000000000
     29179      9727  TIP3      OH2            45.5910033595      -28.2236522861       -1.7692096465  W2        9727            0.0000000000
     29180      9727  TIP3      H1             44.9726133595      -27.5489922861       -1.4887396465  W2        9727            0.0000000000
     29181      9727  TIP3      H2             45.9351233595      -27.9022622861       -2.6025896465  W2        9727            0.0000000000
     29182      9728  TIP3      OH2            47.3731133595      -27.8731822861      -15.8628496465  W2        9728            0.0000000000
     29183      9728  TIP3      H1             47.1926133595      -28.0280622861      -16.7900196465  W2        9728            0.0000000000
     29184      9728  TIP3      H2             48.3231633595      -27.7653122861      -15.8180596465  W2        9728            0.0000000000
     29185      9729  TIP3      OH2            50.6108233595      -25.7521222861        1.5082703535  W2        9729            0.0000000000
     29186      9729  TIP3      H1             51.5639433595      -25.6682122861        1.4808703535  W2        9729            0.0000000000
     29187      9729  TIP3      H2             50.4502833595      -26.4639422861        2.1277603535  W2        9729            0.0000000000
     29188      9730  TIP3      OH2            45.9303733595      -30.8685722861       -0.6868996465  W2        9730            0.0000000000
     29189      9730  TIP3      H1             46.0804633595      -31.5974422861       -1.2889296465  W2        9730            0.0000000000
     29190      9730  TIP3      H2             45.9326133595      -30.0914022861       -1.2456796465  W2        9730            0.0000000000
     29191      9731  TIP3      OH2            46.3429433595      -32.4989922861       -3.1941596465  W2        9731            0.0000000000
     29192      9731  TIP3      H1             46.8786933595      -32.0473222861       -3.8462296465  W2        9731            0.0000000000
     29193      9731  TIP3      H2             45.4909033595      -32.6070122861       -3.6167496465  W2        9731            0.0000000000
     29194      9732  TIP3      OH2            47.9247833595      -27.0593722861       -2.9546396465  W2        9732            0.0000000000
     29195      9732  TIP3      H1             48.6752633595      -27.2156222861       -3.5278596465  W2        9732            0.0000000000
     29196      9732  TIP3      H2             47.5856133595      -26.2077122861       -3.2300896465  W2        9732            0.0000000000
     29197      9733  TIP3      OH2            52.3404033595      -29.2441922861        2.0738903535  W2        9733            0.0000000000
     29198      9733  TIP3      H1             52.5325333595      -30.1752522861        1.9623403535  W2        9733            0.0000000000
     29199      9733  TIP3      H2             53.1980333595      -28.8192422861        2.0634303535  W2        9733            0.0000000000
     29200      9734  TIP3      OH2            53.6571233595      -26.4556722861        0.1511603535  W2        9734            0.0000000000
     29201      9734  TIP3      H1             53.3756233595      -25.7462122861       -0.4264596465  W2        9734            0.0000000000
     29202      9734  TIP3      H2             54.5995533595      -26.5283722861        0.0002803535  W2        9734            0.0000000000
     29203      9735  TIP3      OH2            44.4090033595      -29.6702222861        1.2246603535  W2        9735            0.0000000000
     29204      9735  TIP3      H1             43.6419033595      -30.2027422861        1.0144203535  W2        9735            0.0000000000
     29205      9735  TIP3      H2             45.0879033595      -29.9801822861        0.6252903535  W2        9735            0.0000000000
     29206      9736  TIP3      OH2            47.1484933595      -35.0424222861       -2.7627996465  W2        9736            0.0000000000
     29207      9736  TIP3      H1             47.0504533595      -34.0961022861       -2.8681796465  W2        9736            0.0000000000
     29208      9736  TIP3      H2             46.4061133595      -35.4150422861       -3.2384496465  W2        9736            0.0000000000
     29209      9737  TIP3      OH2            48.4125433595      -30.7208822861        0.8010403535  W2        9737            0.0000000000
     29210      9737  TIP3      H1             48.1770833595      -30.9402122861        1.7025303535  W2        9737            0.0000000000
     29211      9737  TIP3      H2             47.6292333595      -30.9277622861        0.2912903535  W2        9737            0.0000000000
     29212      9738  TIP3      OH2            51.1282033595      -31.5935322861       -0.1236096465  W2        9738            0.0000000000
     29213      9738  TIP3      H1             50.1807433595      -31.5615622861        0.0087203535  W2        9738            0.0000000000
     29214      9738  TIP3      H2             51.4408733595      -32.2188222861        0.5302103535  W2        9738            0.0000000000
     29215      9739  TIP3      OH2            52.7623533595      -32.9594222861        1.8815803535  W2        9739            0.0000000000
     29216      9739  TIP3      H1             52.6655333595      -33.9116922861        1.8757703535  W2        9739            0.0000000000
     29217      9739  TIP3      H2             52.4406633595      -32.6907422861        2.7421303535  W2        9739            0.0000000000
     29218      9740  TIP3      OH2            42.5892833595      -31.7498422861        0.9291303535  W2        9740            0.0000000000
     29219      9740  TIP3      H1             42.8010233595      -32.4562322861        0.3188803535  W2        9740            0.0000000000
     29220      9740  TIP3      H2             42.4780333595      -32.1872422861        1.7732503535  W2        9740            0.0000000000
     29221      9741  TIP3      OH2            47.3703033595      -35.7486822861       -0.0915196465  W2        9741            0.0000000000
     29222      9741  TIP3      H1             48.0821433595      -36.3884622861       -0.1056096465  W2        9741            0.0000000000
     29223      9741  TIP3      H2             47.2693433595      -35.4818522861       -1.0052096465  W2        9741            0.0000000000
     29224      9742  TIP3      OH2            47.7240533595      -34.0658422861        1.9621103535  W2        9742            0.0000000000
     29225      9742  TIP3      H1             47.5922733595      -34.5414622861        1.1419603535  W2        9742            0.0000000000
     29226      9742  TIP3      H2             47.1247933595      -33.3214822861        1.9068203535  W2        9742            0.0000000000
     29227      9743  TIP3      OH2            47.2702833595      -17.1828122861      -14.8614896465  W2        9743            0.0000000000
     29228      9743  TIP3      H1             48.2033533595      -17.0249422861      -14.7176496465  W2        9743            0.0000000000
     29229      9743  TIP3      H2             47.0061633595      -16.5075122861      -15.4863396465  W2        9743            0.0000000000
     29230      9744  TIP3      OH2            40.8387733595      -22.5464322861      -15.3786796465  W2        9744            0.0000000000
     29231      9744  TIP3      H1             41.7526933595      -22.4675422861      -15.1052896465  W2        9744            0.0000000000
     29232      9744  TIP3      H2             40.8460833595      -23.2334722861      -16.0451196465  W2        9744            0.0000000000
     29233      9745  TIP3      OH2            39.4878333595      -17.1535822861      -10.3012896465  W2        9745            0.0000000000
     29234      9745  TIP3      H1             38.8405433595      -17.6154122861      -10.8341696465  W2        9745            0.0000000000
     29235      9745  TIP3      H2             39.8422933595      -17.8252522861       -9.7186696465  W2        9745            0.0000000000
     29236      9746  TIP3      OH2            40.3577533595      -19.0728822861       -8.4966696465  W2        9746            0.0000000000
     29237      9746  TIP3      H1             40.0234333595      -19.9531522861       -8.3246496465  W2        9746            0.0000000000
     29238      9746  TIP3      H2             40.5799933595      -18.7273822861       -7.6321096465  W2        9746            0.0000000000
     29239      9747  TIP3      OH2            40.4377033595      -25.9973422861       -6.0451796465  W2        9747            0.0000000000
     29240      9747  TIP3      H1             40.6219933595      -26.0791722861       -6.9808896465  W2        9747            0.0000000000
     29241      9747  TIP3      H2             41.2869933595      -26.1216422861       -5.6215396465  W2        9747            0.0000000000
     29242      9748  TIP3      OH2            40.0351833595      -30.7268422861        0.0957003535  W2        9748            0.0000000000
     29243      9748  TIP3      H1             40.9546733595      -30.8490122861        0.3320103535  W2        9748            0.0000000000
     29244      9748  TIP3      H2             39.5856333595      -31.4768722861        0.4850503535  W2        9748            0.0000000000
     29245      9749  TIP3      OH2            41.2564333595      -32.4146822861       -7.0130096465  W2        9749            0.0000000000
     29246      9749  TIP3      H1             41.7015933595      -33.2064322861       -6.7110396465  W2        9749            0.0000000000
     29247      9749  TIP3      H2             41.7227333595      -31.6981622861       -6.5824496465  W2        9749            0.0000000000
     29248      9750  TIP3      OH2            39.5604633595      -29.4153822861       -5.9439896465  W2        9750            0.0000000000
     29249      9750  TIP3      H1             40.0524433595      -29.6363322861       -6.7347896465  W2        9750            0.0000000000
     29250      9750  TIP3      H2             39.9225533595      -28.5750422861       -5.6630396465  W2        9750            0.0000000000
     29251      9751  TIP3      OH2            39.8741133595      -33.1574722861      -11.8897496465  W2        9751            0.0000000000
     29252      9751  TIP3      H1             38.9489533595      -32.9488122861      -12.0191996465  W2        9751            0.0000000000
     29253      9751  TIP3      H2             40.3281033595      -32.6733922861      -12.5795196465  W2        9751            0.0000000000
     29254      9752  TIP3      OH2            54.6448333595      -18.1733022861       -9.9440096465  W2        9752            0.0000000000
     29255      9752  TIP3      H1             55.2971233595      -18.5210922861      -10.5520996465  W2        9752            0.0000000000
     29256      9752  TIP3      H2             55.1552133595      -17.6849822861       -9.2980396465  W2        9752            0.0000000000
     29257      9753  TIP3      OH2            39.8376533595      -34.4195722861       -3.5454996465  W2        9753            0.0000000000
     29258      9753  TIP3      H1             39.1727033595      -34.6655422861       -2.9024096465  W2        9753            0.0000000000
     29259      9753  TIP3      H2             39.3947833595      -33.7975322861       -4.1226996465  W2        9753            0.0000000000
     29260      9754  TIP3      OH2            42.0295833595      -21.2441622861        0.5990803535  W2        9754            0.0000000000
     29261      9754  TIP3      H1             41.2088333595      -21.0695122861        0.1385503535  W2        9754            0.0000000000
     29262      9754  TIP3      H2             41.7773633595      -21.3176922861        1.5195203535  W2        9754            0.0000000000
     29263      9755  TIP3      OH2            44.9838733595      -20.2700422861       -3.1425196465  W2        9755            0.0000000000
     29264      9755  TIP3      H1             44.5589833595      -19.4601922861       -3.4250596465  W2        9755            0.0000000000
     29265      9755  TIP3      H2             45.8881533595      -20.1846322861       -3.4445396465  W2        9755            0.0000000000
     29266      9756  TIP3      OH2            49.2950133595      -18.8710422861       -0.1831496465  W2        9756            0.0000000000
     29267      9756  TIP3      H1             49.4797633595      -19.2044322861        0.6948803535  W2        9756            0.0000000000
     29268      9756  TIP3      H2             50.1414633595      -18.5611822861       -0.5052296465  W2        9756            0.0000000000
     29269      9757  TIP3      OH2            51.6400533595      -17.5851522861       -0.9390096465  W2        9757            0.0000000000
     29270      9757  TIP3      H1             52.3169433595      -18.2179222861       -1.1790896465  W2        9757            0.0000000000
     29271      9757  TIP3      H2             51.9619333595      -17.1841022861       -0.1316796465  W2        9757            0.0000000000
     29272      9758  TIP3      OH2            42.3855433595      -17.0136522861       -3.0949896465  W2        9758            0.0000000000
     29273      9758  TIP3      H1             41.6651833595      -16.5735522861       -3.5462196465  W2        9758            0.0000000000
     29274      9758  TIP3      H2             42.0199433595      -17.2641822861       -2.2465896465  W2        9758            0.0000000000
     29275      9759  TIP3      OH2            44.8528033595      -17.4132622861       -4.0652696465  W2        9759            0.0000000000
     29276      9759  TIP3      H1             43.9880233595      -17.3414122861       -3.6612596465  W2        9759            0.0000000000
     29277      9759  TIP3      H2             44.7977033595      -16.8665322861       -4.8490196465  W2        9759            0.0000000000
     29278      9760  TIP3      OH2            49.5633633595      -17.5253722861       -4.8896696465  W2        9760            0.0000000000
     29279      9760  TIP3      H1             49.1067633595      -16.9964022861       -5.5438296465  W2        9760            0.0000000000
     29280      9760  TIP3      H2             49.7261633595      -16.9222322861       -4.1644396465  W2        9760            0.0000000000
     29281      9761  TIP3      OH2            51.8909933595      -18.6474122861       -3.9446396465  W2        9761            0.0000000000
     29282      9761  TIP3      H1             50.9863633595      -18.4823922861       -4.2104296465  W2        9761            0.0000000000
     29283      9761  TIP3      H2             52.3198533595      -17.7941922861       -4.0102996465  W2        9761            0.0000000000
     29284      9762  TIP3      OH2            54.4951833595      -17.0775022861       -3.6498596465  W2        9762            0.0000000000
     29285      9762  TIP3      H1             54.3133833595      -16.1616122861       -3.8603696465  W2        9762            0.0000000000
     29286      9762  TIP3      H2             54.6719633595      -17.4877922861       -4.4963996465  W2        9762            0.0000000000
     29287      9763  TIP3      OH2            41.8003533595      -18.3904022861       -6.1848096465  W2        9763            0.0000000000
     29288      9763  TIP3      H1             41.7819533595      -18.8158922861       -5.3275796465  W2        9763            0.0000000000
     29289      9763  TIP3      H2             42.6051433595      -18.7089022861       -6.5935896465  W2        9763            0.0000000000
     29290      9764  TIP3      OH2            43.9416633595      -19.6805322861       -7.5298196465  W2        9764            0.0000000000
     29291      9764  TIP3      H1             43.7227333595      -20.5967922861       -7.3602196465  W2        9764            0.0000000000
     29292      9764  TIP3      H2             44.7658833595      -19.5404922861       -7.0636796465  W2        9764            0.0000000000
     29293      9765  TIP3      OH2            46.4789133595      -19.2106022861       -6.6810196465  W2        9765            0.0000000000
     29294      9765  TIP3      H1             46.6914833595      -20.0987022861       -6.9679296465  W2        9765            0.0000000000
     29295      9765  TIP3      H2             46.5434233595      -19.2448322861       -5.7266196465  W2        9765            0.0000000000
     29296      9766  TIP3      OH2            49.9872833595      -33.5465422861       -7.5366896465  W2        9766            0.0000000000
     29297      9766  TIP3      H1             49.3129633595      -34.1759822861       -7.2811096465  W2        9766            0.0000000000
     29298      9766  TIP3      H2             50.5512033595      -34.0306522861       -8.1398996465  W2        9766            0.0000000000
     29299      9767  TIP3      OH2            42.3140333595      -34.9125122861       -9.7146996465  W2        9767            0.0000000000
     29300      9767  TIP3      H1             41.5370133595      -35.1470222861      -10.2221096465  W2        9767            0.0000000000
     29301      9767  TIP3      H2             42.8443933595      -35.7093022861       -9.7058996465  W2        9767            0.0000000000
     29302      9768  TIP3      OH2            41.1503733595      -35.1147022861      -13.9110896465  W2        9768            0.0000000000
     29303      9768  TIP3      H1             41.5894433595      -34.5036522861      -14.5027396465  W2        9768            0.0000000000
     29304      9768  TIP3      H2             40.5166133595      -34.5762922861      -13.4370896465  W2        9768            0.0000000000
     29305      9769  TIP3      OH2            46.8932933595      -34.9858022861       -9.9013896465  W2        9769            0.0000000000
     29306      9769  TIP3      H1             47.7676333595      -34.5973722861       -9.9309596465  W2        9769            0.0000000000
     29307      9769  TIP3      H2             46.7573733595      -35.2010222861       -8.9786696465  W2        9769            0.0000000000
     29308      9770  TIP3      OH2            52.4501333595      -34.9558222861       -8.2522196465  W2        9770            0.0000000000
     29309      9770  TIP3      H1             52.5262933595      -34.8606622861       -9.2016196465  W2        9770            0.0000000000
     29310      9770  TIP3      H2             52.1750533595      -35.8635322861       -8.1233096465  W2        9770            0.0000000000
     29311      9771  TIP3      OH2            53.8033933595      -34.9300422861      -12.5597196465  W2        9771            0.0000000000
     29312      9771  TIP3      H1             53.1005033595      -34.3151222861      -12.7695796465  W2        9771            0.0000000000
     29313      9771  TIP3      H2             53.3585333595      -35.7673722861      -12.4286296465  W2        9771            0.0000000000
     29314      9772  TIP3      OH2            41.0513233595      -19.1664822861      -13.0135796465  W2        9772            0.0000000000
     29315      9772  TIP3      H1             40.3663133595      -19.2045922861      -13.6810696465  W2        9772            0.0000000000
     29316      9772  TIP3      H2             41.0550433595      -18.2537222861      -12.7253696465  W2        9772            0.0000000000
     29317      9773  TIP3      OH2            43.0112833595      -33.1985522861      -15.4686796465  W2        9773            0.0000000000
     29318      9773  TIP3      H1             43.5026233595      -33.8283122861      -15.9961296465  W2        9773            0.0000000000
     29319      9773  TIP3      H2             43.6349133595      -32.9026122861      -14.8055596465  W2        9773            0.0000000000
     29320      9774  TIP3      OH2            48.0372933595      -32.9054022861      -13.0116296465  W2        9774            0.0000000000
     29321      9774  TIP3      H1             48.2154233595      -33.5520822861      -12.3287696465  W2        9774            0.0000000000
     29322      9774  TIP3      H2             47.9839133595      -32.0716322861      -12.5445196465  W2        9774            0.0000000000
     29323      9775  TIP3      OH2            49.9156733595      -17.9569922861      -14.6159596465  W2        9775            0.0000000000
     29324      9775  TIP3      H1             50.7816933595      -17.5902522861      -14.7941396465  W2        9775            0.0000000000
     29325      9775  TIP3      H2             49.6689533595      -18.3961922861      -15.4298796465  W2        9775            0.0000000000
     29326      9776  TIP3      OH2            42.2718333595      -34.3983222861       -0.1970796465  W2        9776            0.0000000000
     29327      9776  TIP3      H1             41.9056533595      -35.1640622861        0.2453903535  W2        9776            0.0000000000
     29328      9776  TIP3      H2             43.1846833595      -34.3693022861        0.0894303535  W2        9776            0.0000000000
     29329      9777  TIP3      OH2            44.2449133595      -35.0478822861        1.3386303535  W2        9777            0.0000000000
     29330      9777  TIP3      H1             45.1432733595      -35.3218622861        1.1539703535  W2        9777            0.0000000000
     29331      9777  TIP3      H2             43.8582233595      -35.7902822861        1.8028903535  W2        9777            0.0000000000
     29332      9778  TIP3      OH2            42.8694433595      -18.2464022861      -15.9883696465  W2        9778            0.0000000000
     29333      9778  TIP3      H1             42.6019033595      -17.9601122861      -15.1150596465  W2        9778            0.0000000000
     29334      9778  TIP3      H2             43.6407033595      -18.7924822861      -15.8361196465  W2        9778            0.0000000000
     29335      9779  TIP3      OH2            52.6661433595      -35.7153522861        1.5209103535  W2        9779            0.0000000000
     29336      9779  TIP3      H1             52.7428633595      -36.1412822861        2.3746803535  W2        9779            0.0000000000
     29337      9779  TIP3      H2             53.5598033595      -35.7018822861        1.1782603535  W2        9779            0.0000000000
     29338      9780  TIP3      OH2           -42.8877066405       -6.9002822861       -9.7559496465  W2        9780            0.0000000000
     29339      9780  TIP3      H1            -42.7985966405       -5.9564622861       -9.8882396465  W2        9780            0.0000000000
     29340      9780  TIP3      H2            -43.5259466405       -7.1756422861      -10.4140096465  W2        9780            0.0000000000
     29341      9781  TIP3      OH2           -43.9545766405       -7.6452122861       -6.3371296465  W2        9781            0.0000000000
     29342      9781  TIP3      H1            -43.9928266405       -8.2915822861       -5.6321696465  W2        9781            0.0000000000
     29343      9781  TIP3      H2            -44.2769266405       -8.1117722861       -7.1082596465  W2        9781            0.0000000000
     29344      9782  TIP3      OH2           -51.5860766405       -8.0310022861       -4.7441396465  W2        9782            0.0000000000
     29345      9782  TIP3      H1            -51.5448666405       -8.6566722861       -4.0208996465  W2        9782            0.0000000000
     29346      9782  TIP3      H2            -50.8833066405       -7.4071422861       -4.5620996465  W2        9782            0.0000000000
     29347      9783  TIP3      OH2           -40.2485566405       -4.7061722861       -8.0356196465  W2        9783            0.0000000000
     29348      9783  TIP3      H1            -40.6892866405       -5.4265722861       -7.5850596465  W2        9783            0.0000000000
     29349      9783  TIP3      H2            -40.2615866405       -3.9854522861       -7.4058496465  W2        9783            0.0000000000
     29350      9784  TIP3      OH2           -50.6627666405       -3.5811122861       -6.2092296465  W2        9784            0.0000000000
     29351      9784  TIP3      H1            -51.0322466405       -4.3830622861       -6.5787996465  W2        9784            0.0000000000
     29352      9784  TIP3      H2            -49.7216566405       -3.7496222861       -6.1628896465  W2        9784            0.0000000000
     29353      9785  TIP3      OH2           -54.0527166405       -9.9208522861      -10.8163496465  W2        9785            0.0000000000
     29354      9785  TIP3      H1            -54.5003766405       -9.0749822861      -10.8346996465  W2        9785            0.0000000000
     29355      9785  TIP3      H2            -54.6135966405      -10.5004322861      -11.3318396465  W2        9785            0.0000000000
     29356      9786  TIP3      OH2           -53.3421066405       -7.7588922861       -8.6905496465  W2        9786            0.0000000000
     29357      9786  TIP3      H1            -53.1287566405       -8.5287322861       -8.1632496465  W2        9786            0.0000000000
     29358      9786  TIP3      H2            -52.6043466405       -7.6692222861       -9.2937896465  W2        9786            0.0000000000
     29359      9787  TIP3      OH2           -43.1370066405        0.3979977139       -7.8235796465  W2        9787            0.0000000000
     29360      9787  TIP3      H1            -42.5173666405       -0.2785322861       -8.0966596465  W2        9787            0.0000000000
     29361      9787  TIP3      H2            -43.3452666405        0.1800777139       -6.9150896465  W2        9787            0.0000000000
     29362      9788  TIP3      OH2           -45.5651366405       -5.2130722861       -5.9310296465  W2        9788            0.0000000000
     29363      9788  TIP3      H1            -45.2613466405       -5.8989322861       -6.5256196465  W2        9788            0.0000000000
     29364      9788  TIP3      H2            -44.8437366405       -5.0942022861       -5.3132296465  W2        9788            0.0000000000
     29365      9789  TIP3      OH2           -36.9021566405      -13.6115422861       -5.0704096465  W2        9789            0.0000000000
     29366      9789  TIP3      H1            -36.8529366405      -13.0014222861       -4.3344996465  W2        9789            0.0000000000
     29367      9789  TIP3      H2            -36.4766466405      -13.1504522861       -5.7932996465  W2        9789            0.0000000000
     29368      9790  TIP3      OH2           -42.4244366405      -10.8188322861       -5.6035496465  W2        9790            0.0000000000
     29369      9790  TIP3      H1            -42.2818466405      -11.7651322861       -5.5833896465  W2        9790            0.0000000000
     29370      9790  TIP3      H2            -42.5305366405      -10.6118522861       -6.5320596465  W2        9790            0.0000000000
     29371      9791  TIP3      OH2           -49.2696066405      -12.7171922861       -8.3310696465  W2        9791            0.0000000000
     29372      9791  TIP3      H1            -49.2264966405      -11.8573422861       -8.7494396465  W2        9791            0.0000000000
     29373      9791  TIP3      H2            -49.7271966405      -13.2697222861       -8.9647496465  W2        9791            0.0000000000
     29374      9792  TIP3      OH2           -41.5473366405      -12.5866322861       -9.9302396465  W2        9792            0.0000000000
     29375      9792  TIP3      H1            -40.9009066405      -12.9153122861       -9.3054796465  W2        9792            0.0000000000
     29376      9792  TIP3      H2            -41.0373966405      -12.0687322861      -10.5530996465  W2        9792            0.0000000000
     29377      9793  TIP3      OH2           -52.6494566405      -10.3206122861       -7.5689296465  W2        9793            0.0000000000
     29378      9793  TIP3      H1            -51.9957966405      -10.8704422861       -7.1369196465  W2        9793            0.0000000000
     29379      9793  TIP3      H2            -52.6255266405      -10.5947122861       -8.4857296465  W2        9793            0.0000000000
     29380      9794  TIP3      OH2           -47.4930066405       -8.7704822861       -8.3537796465  W2        9794            0.0000000000
     29381      9794  TIP3      H1            -46.8769066405       -9.2969422861       -7.8443796465  W2        9794            0.0000000000
     29382      9794  TIP3      H2            -48.0791266405       -9.4106122861       -8.7574196465  W2        9794            0.0000000000
     29383      9795  TIP3      OH2           -36.5106966405      -12.1336222861       -2.8344296465  W2        9795            0.0000000000
     29384      9795  TIP3      H1            -37.1992366405      -11.4755522861       -2.9297696465  W2        9795            0.0000000000
     29385      9795  TIP3      H2            -36.4952366405      -12.3308322861       -1.8978896465  W2        9795            0.0000000000
     29386      9796  TIP3      OH2           -50.4594166405      -13.7993522861       -4.2569896465  W2        9796            0.0000000000
     29387      9796  TIP3      H1            -50.6782466405      -13.2692922861       -5.0233896465  W2        9796            0.0000000000
     29388      9796  TIP3      H2            -51.1273266405      -13.5728022861       -3.6098496465  W2        9796            0.0000000000
     29389      9797  TIP3      OH2           -43.0904366405       -4.2992422861      -10.7130796465  W2        9797            0.0000000000
     29390      9797  TIP3      H1            -43.3859266405       -4.6220122861      -11.5643896465  W2        9797            0.0000000000
     29391      9797  TIP3      H2            -43.4146566405       -3.3995722861      -10.6718196465  W2        9797            0.0000000000
     29392      9798  TIP3      OH2           -47.8902766405       -6.1237822861       -3.9696196465  W2        9798            0.0000000000
     29393      9798  TIP3      H1            -48.6303666405       -5.5256322861       -3.8660996465  W2        9798            0.0000000000
     29394      9798  TIP3      H2            -47.1763266405       -5.5698222861       -4.2852596465  W2        9798            0.0000000000
     29395      9799  TIP3      OH2           -39.7834966405      -13.2957022861       -7.9496496465  W2        9799            0.0000000000
     29396      9799  TIP3      H1            -39.9986966405      -14.0613622861       -7.4170496465  W2        9799            0.0000000000
     29397      9799  TIP3      H2            -39.1277566405      -12.8232422861       -7.4367996465  W2        9799            0.0000000000
     29398      9800  TIP3      OH2           -50.8656866405      -11.9071722861       -6.3047696465  W2        9800            0.0000000000
     29399      9800  TIP3      H1            -50.2520566405      -11.2744122861       -5.9315296465  W2        9800            0.0000000000
     29400      9800  TIP3      H2            -50.3536166405      -12.3796722861       -6.9610796465  W2        9800            0.0000000000
     29401      9801  TIP3      OH2           -49.4828466405       -4.1594822861       -3.1824696465  W2        9801            0.0000000000
     29402      9801  TIP3      H1            -49.4880866405       -3.2801322861       -3.5605396465  W2        9801            0.0000000000
     29403      9801  TIP3      H2            -50.3364366405       -4.2430722861       -2.7574796465  W2        9801            0.0000000000
     29404      9802  TIP3      OH2           -53.3617566405       -4.4886922861      -12.4005396465  W2        9802            0.0000000000
     29405      9802  TIP3      H1            -53.6336666405       -4.2595922861      -13.2892496465  W2        9802            0.0000000000
     29406      9802  TIP3      H2            -53.3161866405       -3.6508122861      -11.9400096465  W2        9802            0.0000000000
     29407      9803  TIP3      OH2           -39.7367866405       -2.8671022861       -5.6876896465  W2        9803            0.0000000000
     29408      9803  TIP3      H1            -40.6784166405       -2.8087122861       -5.5259996465  W2        9803            0.0000000000
     29409      9803  TIP3      H2            -39.4601766405       -1.9610522861       -5.8247196465  W2        9803            0.0000000000
     29410      9804  TIP3      OH2           -39.4360866405      -14.5805722861       -4.2702996465  W2        9804            0.0000000000
     29411      9804  TIP3      H1            -40.1721666405      -13.9698622861       -4.3081696465  W2        9804            0.0000000000
     29412      9804  TIP3      H2            -38.7526866405      -14.1656722861       -4.7966596465  W2        9804            0.0000000000
     29413      9805  TIP3      OH2           -46.4329466405      -16.4938422861       -6.8044996465  W2        9805            0.0000000000
     29414      9805  TIP3      H1            -46.5505266405      -17.4422422861       -6.8586696465  W2        9805            0.0000000000
     29415      9805  TIP3      H2            -47.2879366405      -16.1612322861       -6.5313896465  W2        9805            0.0000000000
     29416      9806  TIP3      OH2           -41.4846666405       -1.0857522861       -9.0625296465  W2        9806            0.0000000000
     29417      9806  TIP3      H1            -41.0594366405       -1.7929622861       -9.5475696465  W2        9806            0.0000000000
     29418      9806  TIP3      H2            -41.1676666405       -0.2844822861       -9.4793096465  W2        9806            0.0000000000
     29419      9807  TIP3      OH2           -40.3250166405       -3.1849022861      -10.5538696465  W2        9807            0.0000000000
     29420      9807  TIP3      H1            -40.5825366405       -3.8748922861      -11.1652796465  W2        9807            0.0000000000
     29421      9807  TIP3      H2            -40.2539366405       -3.6277822861       -9.7082796465  W2        9807            0.0000000000
     29422      9808  TIP3      OH2           -38.6389966405       -4.6182322861       -2.0765196465  W2        9808            0.0000000000
     29423      9808  TIP3      H1            -38.4993666405       -5.2099822861       -2.8158196465  W2        9808            0.0000000000
     29424      9808  TIP3      H2            -38.4717166405       -3.7456422861       -2.4326396465  W2        9808            0.0000000000
     29425      9809  TIP3      OH2           -44.1664566405       -7.6562822861      -12.3039196465  W2        9809            0.0000000000
     29426      9809  TIP3      H1            -44.8779066405       -7.1213122861      -12.6558696465  W2        9809            0.0000000000
     29427      9809  TIP3      H2            -43.4754966405       -7.6010722861      -12.9640296465  W2        9809            0.0000000000
     29428      9810  TIP3      OH2           -44.1125366405       -9.1988522861      -15.2654196465  W2        9810            0.0000000000
     29429      9810  TIP3      H1            -43.4115466405       -9.1761622861      -14.6140196465  W2        9810            0.0000000000
     29430      9810  TIP3      H2            -43.8102466405       -9.8268822861      -15.9214896465  W2        9810            0.0000000000
     29431      9811  TIP3      OH2           -36.7970666405       -8.2784322861       -4.0104796465  W2        9811            0.0000000000
     29432      9811  TIP3      H1            -37.4496566405       -7.5838722861       -3.9213896465  W2        9811            0.0000000000
     29433      9811  TIP3      H2            -36.3320366405       -8.0683422861       -4.8203196465  W2        9811            0.0000000000
     29434      9812  TIP3      OH2           -40.7606866405       -7.4469522861      -11.3523296465  W2        9812            0.0000000000
     29435      9812  TIP3      H1            -41.4925866405       -7.2185822861      -10.7792696465  W2        9812            0.0000000000
     29436      9812  TIP3      H2            -40.3134666405       -8.1606822861      -10.8975796465  W2        9812            0.0000000000
     29437      9813  TIP3      OH2           -40.8633366405       -9.2726922861       -2.2846296465  W2        9813            0.0000000000
     29438      9813  TIP3      H1            -40.7834266405       -8.5092522861       -1.7127796465  W2        9813            0.0000000000
     29439      9813  TIP3      H2            -41.4645666405       -8.9934522861       -2.9751196465  W2        9813            0.0000000000
     29440      9814  TIP3      OH2           -49.1153166405       -6.8163322861       -9.4698296465  W2        9814            0.0000000000
     29441      9814  TIP3      H1            -49.4457966405       -7.1869922861      -10.2881296465  W2        9814            0.0000000000
     29442      9814  TIP3      H2            -48.5269066405       -7.4869322861       -9.1229996465  W2        9814            0.0000000000
     29443      9815  TIP3      OH2           -47.7485666405       -3.3882722861       -6.7886096465  W2        9815            0.0000000000
     29444      9815  TIP3      H1            -47.8434366405       -3.9669622861       -7.5451496465  W2        9815            0.0000000000
     29445      9815  TIP3      H2            -47.0192066405       -3.7597022861       -6.2923296465  W2        9815            0.0000000000
     29446      9816  TIP3      OH2           -48.7487666405       -8.0477722861       -5.8363296465  W2        9816            0.0000000000
     29447      9816  TIP3      H1            -48.1835166405       -7.9263522861       -6.5992096465  W2        9816            0.0000000000
     29448      9816  TIP3      H2            -48.4298766405       -7.4102722861       -5.1974796465  W2        9816            0.0000000000
     29449      9817  TIP3      OH2           -42.4395466405       -2.5445822861       -5.1022796465  W2        9817            0.0000000000
     29450      9817  TIP3      H1            -42.6798866405       -1.8822722861       -4.4543596465  W2        9817            0.0000000000
     29451      9817  TIP3      H2            -42.6377266405       -3.3790622861       -4.6773196465  W2        9817            0.0000000000
     29452      9818  TIP3      OH2           -47.8686966405       -3.6485022861       -1.1191396465  W2        9818            0.0000000000
     29453      9818  TIP3      H1            -48.1799466405       -2.8661822861       -0.6638196465  W2        9818            0.0000000000
     29454      9818  TIP3      H2            -48.5186766405       -3.8015922861       -1.8049396465  W2        9818            0.0000000000
     29455      9819  TIP3      OH2           -41.8897366405       -8.2846622861      -13.6672096465  W2        9819            0.0000000000
     29456      9819  TIP3      H1            -41.3101866405       -8.1346322861      -12.9203196465  W2        9819            0.0000000000
     29457      9819  TIP3      H2            -41.4757366405       -7.8139222861      -14.3905696465  W2        9819            0.0000000000
     29458      9820  TIP3      OH2           -50.9487066405       -7.4503922861       -1.8905696465  W2        9820            0.0000000000
     29459      9820  TIP3      H1            -50.8783866405       -6.7997122861       -1.1920696465  W2        9820            0.0000000000
     29460      9820  TIP3      H2            -51.8394866405       -7.3476422861       -2.2254796465  W2        9820            0.0000000000
     29461      9821  TIP3      OH2           -44.1632466405       -1.5478122861      -10.2318996465  W2        9821            0.0000000000
     29462      9821  TIP3      H1            -43.6894866405       -1.2521822861       -9.4544796465  W2        9821            0.0000000000
     29463      9821  TIP3      H2            -44.7263166405       -0.8096522861      -10.4649396465  W2        9821            0.0000000000
     29464      9822  TIP3      OH2           -49.6291066405       -1.5770022861       -0.3557596465  W2        9822            0.0000000000
     29465      9822  TIP3      H1            -49.6215766405       -1.7130322861       -1.3032096465  W2        9822            0.0000000000
     29466      9822  TIP3      H2            -50.5450666405       -1.6941922861       -0.1037596465  W2        9822            0.0000000000
     29467      9823  TIP3      OH2           -38.1908966405      -16.5346222861      -13.8542396465  W2        9823            0.0000000000
     29468      9823  TIP3      H1            -39.0908266405      -16.3957222861      -13.5591796465  W2        9823            0.0000000000
     29469      9823  TIP3      H2            -37.9390566405      -15.7031622861      -14.2560696465  W2        9823            0.0000000000
     29470      9824  TIP3      OH2           -50.1250466405       -7.7469022861      -11.8805496465  W2        9824            0.0000000000
     29471      9824  TIP3      H1            -50.4169166405       -6.9787322861      -12.3714196465  W2        9824            0.0000000000
     29472      9824  TIP3      H2            -50.7995266405       -8.4062822861      -12.0434096465  W2        9824            0.0000000000
     29473      9825  TIP3      OH2           -37.0017566405       -2.1683822861      -15.4778496465  W2        9825            0.0000000000
     29474      9825  TIP3      H1            -36.9284066405       -1.2293622861      -15.3073196465  W2        9825            0.0000000000
     29475      9825  TIP3      H2            -36.0962466405       -2.4735222861      -15.5341196465  W2        9825            0.0000000000
     29476      9826  TIP3      OH2           -54.0320366405       -5.3839822861       -3.0655696465  W2        9826            0.0000000000
     29477      9826  TIP3      H1            -54.5331966405       -5.4120422861       -3.8805996465  W2        9826            0.0000000000
     29478      9826  TIP3      H2            -54.0266666405       -6.2896622861       -2.7558396465  W2        9826            0.0000000000
     29479      9827  TIP3      OH2           -54.2817666405       -2.6036022861       -6.1815496465  W2        9827            0.0000000000
     29480      9827  TIP3      H1            -53.3357066405       -2.7479022861       -6.2005996465  W2        9827            0.0000000000
     29481      9827  TIP3      H2            -54.3941366405       -1.8193222861       -5.6444296465  W2        9827            0.0000000000
     29482      9828  TIP3      OH2           -36.0839166405       -1.9376322861       -0.4991796465  W2        9828            0.0000000000
     29483      9828  TIP3      H1            -36.1332366405       -2.8928222861       -0.5364196465  W2        9828            0.0000000000
     29484      9828  TIP3      H2            -36.9106866405       -1.6701022861       -0.0977996465  W2        9828            0.0000000000
     29485      9829  TIP3      OH2           -45.1055166405       -2.3637122861       -1.6230396465  W2        9829            0.0000000000
     29486      9829  TIP3      H1            -45.0180566405       -1.5372522861       -1.1481296465  W2        9829            0.0000000000
     29487      9829  TIP3      H2            -45.9690066405       -2.6933322861       -1.3741096465  W2        9829            0.0000000000
     29488      9830  TIP3      OH2           -44.6909366405        1.4086577139      -11.8169796465  W2        9830            0.0000000000
     29489      9830  TIP3      H1            -44.7663366405        1.2873777139      -12.7634596465  W2        9830            0.0000000000
     29490      9830  TIP3      H2            -44.6580666405        2.3579277139      -11.6985196465  W2        9830            0.0000000000
     29491      9831  TIP3      OH2           -51.0375566405        0.1973577139      -10.0360796465  W2        9831            0.0000000000
     29492      9831  TIP3      H1            -50.8855166405       -0.1506022861       -9.1574296465  W2        9831            0.0000000000
     29493      9831  TIP3      H2            -51.8885166405       -0.1589122861      -10.2913596465  W2        9831            0.0000000000
     29494      9832  TIP3      OH2           -41.5893366405        0.5626777139      -14.8147396465  W2        9832            0.0000000000
     29495      9832  TIP3      H1            -41.2144966405       -0.1817122861      -15.2854796465  W2        9832            0.0000000000
     29496      9832  TIP3      H2            -41.5849666405        0.2927377139      -13.8964096465  W2        9832            0.0000000000
     29497      9833  TIP3      OH2           -41.9205266405        0.4883877139      -12.0655196465  W2        9833            0.0000000000
     29498      9833  TIP3      H1            -42.8555466405        0.5885777139      -11.8868196465  W2        9833            0.0000000000
     29499      9833  TIP3      H2            -41.6403366405       -0.2210122861      -11.4871996465  W2        9833            0.0000000000
     29500      9834  TIP3      OH2           -38.9319366405      -10.4443822861       -0.0189596465  W2        9834            0.0000000000
     29501      9834  TIP3      H1            -39.3392566405       -9.9638222861       -0.7396296465  W2        9834            0.0000000000
     29502      9834  TIP3      H2            -38.8913666405      -11.3497822861       -0.3268796465  W2        9834            0.0000000000
     29503      9835  TIP3      OH2           -51.7829866405       -4.0604422861       -2.0222896465  W2        9835            0.0000000000
     29504      9835  TIP3      H1            -51.5668566405       -4.4218822861       -1.1627096465  W2        9835            0.0000000000
     29505      9835  TIP3      H2            -52.6385166405       -4.4350622861       -2.2319396465  W2        9835            0.0000000000
     29506      9836  TIP3      OH2           -49.1641866405      -15.5903922861       -6.0268696465  W2        9836            0.0000000000
     29507      9836  TIP3      H1            -50.0258166405      -15.6775722861       -6.4345796465  W2        9836            0.0000000000
     29508      9836  TIP3      H2            -49.1866166405      -14.7343822861       -5.5991096465  W2        9836            0.0000000000
     29509      9837  TIP3      OH2           -44.5014066405      -15.8683522861       -2.6521696465  W2        9837            0.0000000000
     29510      9837  TIP3      H1            -44.0810966405      -16.2836422861       -1.8991096465  W2        9837            0.0000000000
     29511      9837  TIP3      H2            -45.4344466405      -16.0470222861       -2.5349696465  W2        9837            0.0000000000
     29512      9838  TIP3      OH2           -41.1749166405      -12.1128322861       -1.7987196465  W2        9838            0.0000000000
     29513      9838  TIP3      H1            -41.6889666405      -12.2386122861       -1.0011196465  W2        9838            0.0000000000
     29514      9838  TIP3      H2            -41.3304466405      -11.2005222861       -2.0430996465  W2        9838            0.0000000000
     29515      9839  TIP3      OH2           -40.4124266405       -7.2518322861      -16.0374196465  W2        9839            0.0000000000
     29516      9839  TIP3      H1            -40.3703466405       -7.4744422861      -16.9674196465  W2        9839            0.0000000000
     29517      9839  TIP3      H2            -39.5632166405       -6.8531222861      -15.8474296465  W2        9839            0.0000000000
     29518      9840  TIP3      OH2           -44.8396766405      -13.3760122861      -15.3670896465  W2        9840            0.0000000000
     29519      9840  TIP3      H1            -45.0931966405      -13.3568522861      -14.4442796465  W2        9840            0.0000000000
     29520      9840  TIP3      H2            -45.0964666405      -14.2474722861      -15.6684696465  W2        9840            0.0000000000
     29521      9841  TIP3      OH2           -49.0731766405      -10.6249422861       -4.9318496465  W2        9841            0.0000000000
     29522      9841  TIP3      H1            -49.7149666405      -10.6652122861       -4.2228396465  W2        9841            0.0000000000
     29523      9841  TIP3      H2            -49.0359766405       -9.6984722861       -5.1695496465  W2        9841            0.0000000000
     29524      9842  TIP3      OH2           -49.0762666405      -10.4039322861      -10.0198496465  W2        9842            0.0000000000
     29525      9842  TIP3      H1            -49.9689766405      -10.7443222861      -10.0784696465  W2        9842            0.0000000000
     29526      9842  TIP3      H2            -48.6256066405      -10.7808422861      -10.7755296465  W2        9842            0.0000000000
     29527      9843  TIP3      OH2           -43.5407166405       -9.9879022861      -11.2027696465  W2        9843            0.0000000000
     29528      9843  TIP3      H1            -43.9496866405       -9.1730422861      -11.4942896465  W2        9843            0.0000000000
     29529      9843  TIP3      H2            -42.8200966405      -10.1278922861      -11.8170596465  W2        9843            0.0000000000
     29530      9844  TIP3      OH2           -44.4385566405       -9.8122622861        0.2853003535  W2        9844            0.0000000000
     29531      9844  TIP3      H1            -45.0011766405      -10.5171022861        0.6060803535  W2        9844            0.0000000000
     29532      9844  TIP3      H2            -43.6122166405       -9.9330722861        0.7530603535  W2        9844            0.0000000000
     29533      9845  TIP3      OH2           -42.5359466405      -10.5418622861       -8.3887996465  W2        9845            0.0000000000
     29534      9845  TIP3      H1            -42.7314966405       -9.9361822861       -9.1037396465  W2        9845            0.0000000000
     29535      9845  TIP3      H2            -42.3546866405      -11.3753422861       -8.8231696465  W2        9845            0.0000000000
     29536      9846  TIP3      OH2           -51.3231266405      -10.3045922861       -3.0646496465  W2        9846            0.0000000000
     29537      9846  TIP3      H1            -51.3611866405       -9.9044322861       -2.1959396465  W2        9846            0.0000000000
     29538      9846  TIP3      H2            -51.8140166405      -11.1213522861       -2.9743596465  W2        9846            0.0000000000
     29539      9847  TIP3      OH2           -47.9573866405      -12.9303622861      -16.2660496465  W2        9847            0.0000000000
     29540      9847  TIP3      H1            -48.3883166405      -13.3753522861      -15.5363096465  W2        9847            0.0000000000
     29541      9847  TIP3      H2            -48.6755166405      -12.5587322861      -16.7782996465  W2        9847            0.0000000000
     29542      9848  TIP3      OH2           -54.7150466405      -13.1884122861       -9.2141796465  W2        9848            0.0000000000
     29543      9848  TIP3      H1            -54.0842766405      -13.2172022861       -8.4947896465  W2        9848            0.0000000000
     29544      9848  TIP3      H2            -54.2656166405      -13.6135422861       -9.9445896465  W2        9848            0.0000000000
     29545      9849  TIP3      OH2           -53.4408366405      -12.4422122861      -13.7901396465  W2        9849            0.0000000000
     29546      9849  TIP3      H1            -52.9666666405      -11.8512222861      -14.3750496465  W2        9849            0.0000000000
     29547      9849  TIP3      H2            -54.1581966405      -11.9119222861      -13.4431296465  W2        9849            0.0000000000
     29548      9850  TIP3      OH2           -43.2720266405       -8.9037322861       -3.7175596465  W2        9850            0.0000000000
     29549      9850  TIP3      H1            -42.9485466405       -9.5347622861       -4.3605096465  W2        9850            0.0000000000
     29550      9850  TIP3      H2            -43.7120966405       -9.4385122861       -3.0568196465  W2        9850            0.0000000000
     29551      9851  TIP3      OH2           -46.4947366405      -12.9761822861       -8.9334396465  W2        9851            0.0000000000
     29552      9851  TIP3      H1            -47.4056266405      -12.9195022861       -8.6448396465  W2        9851            0.0000000000
     29553      9851  TIP3      H2            -45.9894466405      -13.0366322861       -8.1227196465  W2        9851            0.0000000000
     29554      9852  TIP3      OH2           -51.6663966405      -11.3475522861      -10.1066796465  W2        9852            0.0000000000
     29555      9852  TIP3      H1            -52.5555966405      -11.2480022861      -10.4467196465  W2        9852            0.0000000000
     29556      9852  TIP3      H2            -51.3699066405      -12.1892522861      -10.4528896465  W2        9852            0.0000000000
     29557      9853  TIP3      OH2           -48.0132166405      -11.3472922861      -12.4502196465  W2        9853            0.0000000000
     29558      9853  TIP3      H1            -47.0816666405      -11.2182922861      -12.2719096465  W2        9853            0.0000000000
     29559      9853  TIP3      H2            -48.2281866405      -10.6778622861      -13.0997496465  W2        9853            0.0000000000
     29560      9854  TIP3      OH2           -42.0895466405      -13.7415522861       -5.6692596465  W2        9854            0.0000000000
     29561      9854  TIP3      H1            -42.7663866405      -13.6102422861       -5.0052896465  W2        9854            0.0000000000
     29562      9854  TIP3      H2            -42.5750566405      -13.8966022861       -6.4794896465  W2        9854            0.0000000000
     29563      9855  TIP3      OH2           -49.3391966405      -10.1530722861      -14.8836096465  W2        9855            0.0000000000
     29564      9855  TIP3      H1            -49.8816866405      -10.5326922861      -15.5748496465  W2        9855            0.0000000000
     29565      9855  TIP3      H2            -48.5057066405       -9.9586022861      -15.3121996465  W2        9855            0.0000000000
     29566      9856  TIP3      OH2           -38.8020366405        1.9299877139        0.6075003535  W2        9856            0.0000000000
     29567      9856  TIP3      H1            -38.6021666405        2.3541777139       -0.2269696465  W2        9856            0.0000000000
     29568      9856  TIP3      H2            -38.1466666405        2.2738077139        1.2145403535  W2        9856            0.0000000000
     29569      9857  TIP3      OH2           -51.2040566405       -5.5958822861        0.2155503535  W2        9857            0.0000000000
     29570      9857  TIP3      H1            -50.4718166405       -5.3412922861        0.7770003535  W2        9857            0.0000000000
     29571      9857  TIP3      H2            -51.9841866405       -5.3913422861        0.7310903535  W2        9857            0.0000000000
     29572      9858  TIP3      OH2           -45.1747666405      -10.1888822861       -7.0464796465  W2        9858            0.0000000000
     29573      9858  TIP3      H1            -44.6104266405      -10.7352222861       -7.5935196465  W2        9858            0.0000000000
     29574      9858  TIP3      H2            -45.3224266405      -10.7106922861       -6.2577196465  W2        9858            0.0000000000
     29575      9859  TIP3      OH2           -50.1727966405      -14.0522722861      -10.6279996465  W2        9859            0.0000000000
     29576      9859  TIP3      H1            -50.4898466405      -14.9547422861      -10.6634596465  W2        9859            0.0000000000
     29577      9859  TIP3      H2            -49.3913866405      -14.0505322861      -11.1808396465  W2        9859            0.0000000000
     29578      9860  TIP3      OH2           -46.5481766405      -11.8002722861       -4.6324396465  W2        9860            0.0000000000
     29579      9860  TIP3      H1            -47.3836466405      -11.3463222861       -4.5221996465  W2        9860            0.0000000000
     29580      9860  TIP3      H2            -46.0241166405      -11.5244222861       -3.8804496465  W2        9860            0.0000000000
     29581      9861  TIP3      OH2           -46.0039166405       -5.5875022861      -12.9477996465  W2        9861            0.0000000000
     29582      9861  TIP3      H1            -46.7488166405       -6.0949722861      -13.2700096465  W2        9861            0.0000000000
     29583      9861  TIP3      H2            -46.1381966405       -5.5387022861      -12.0013196465  W2        9861            0.0000000000
     29584      9862  TIP3      OH2           -38.8540266405       -6.4546822861       -4.1610396465  W2        9862            0.0000000000
     29585      9862  TIP3      H1            -38.2121466405       -5.9980522861       -4.7048196465  W2        9862            0.0000000000
     29586      9862  TIP3      H2            -39.6843366405       -6.3414422861       -4.6236296465  W2        9862            0.0000000000
     29587      9863  TIP3      OH2           -42.1062366405      -12.7735122861      -14.7485396465  W2        9863            0.0000000000
     29588      9863  TIP3      H1            -43.0448166405      -12.6619522861      -14.8996596465  W2        9863            0.0000000000
     29589      9863  TIP3      H2            -41.8090266405      -11.9168222861      -14.4419696465  W2        9863            0.0000000000
     29590      9864  TIP3      OH2           -44.4847066405       -5.4031722861       -1.7108896465  W2        9864            0.0000000000
     29591      9864  TIP3      H1            -44.8300966405       -5.7849322861       -0.9039296465  W2        9864            0.0000000000
     29592      9864  TIP3      H2            -44.6846966405       -4.4698122861       -1.6395996465  W2        9864            0.0000000000
     29593      9865  TIP3      OH2           -41.3878866405      -10.9062422861      -13.0877996465  W2        9865            0.0000000000
     29594      9865  TIP3      H1            -40.4959866405      -11.0437422861      -12.7686796465  W2        9865            0.0000000000
     29595      9865  TIP3      H2            -41.3315266405      -10.1156322861      -13.6244496465  W2        9865            0.0000000000
     29596      9866  TIP3      OH2           -50.8790866405       -6.2925022861       -7.1780096465  W2        9866            0.0000000000
     29597      9866  TIP3      H1            -50.1343666405       -6.2949322861       -7.7793596465  W2        9866            0.0000000000
     29598      9866  TIP3      H2            -50.8014266405       -7.1161222861       -6.6964996465  W2        9866            0.0000000000
     29599      9867  TIP3      OH2           -43.8785066405       -4.1290722861      -13.9223396465  W2        9867            0.0000000000
     29600      9867  TIP3      H1            -44.1736666405       -3.3022822861      -13.5408596465  W2        9867            0.0000000000
     29601      9867  TIP3      H2            -44.5815066405       -4.7483822861      -13.7261996465  W2        9867            0.0000000000
     29602      9868  TIP3      OH2           -53.8711166405       -7.8318122861       -1.8631596465  W2        9868            0.0000000000
     29603      9868  TIP3      H1            -53.6482566405       -8.2498522861       -1.0314096465  W2        9868            0.0000000000
     29604      9868  TIP3      H2            -54.4731066405       -8.4443122861       -2.2858796465  W2        9868            0.0000000000
     29605      9869  TIP3      OH2           -46.8546266405       -8.3148222861        0.3498103535  W2        9869            0.0000000000
     29606      9869  TIP3      H1            -47.1505466405       -8.4805222861       -0.5452796465  W2        9869            0.0000000000
     29607      9869  TIP3      H2            -45.9231066405       -8.5347922861        0.3392003535  W2        9869            0.0000000000
     29608      9870  TIP3      OH2           -42.2343466405       -2.9416222861       -1.7603896465  W2        9870            0.0000000000
     29609      9870  TIP3      H1            -43.1349166405       -2.7583622861       -2.0279996465  W2        9870            0.0000000000
     29610      9870  TIP3      H2            -42.2002366405       -2.6826922861       -0.8395096465  W2        9870            0.0000000000
     29611      9871  TIP3      OH2           -36.5030166405      -10.6968322861      -13.3931296465  W2        9871            0.0000000000
     29612      9871  TIP3      H1            -37.0573866405      -11.0930322861      -14.0653796465  W2        9871            0.0000000000
     29613      9871  TIP3      H2            -36.4026566405       -9.7863122861      -13.6707996465  W2        9871            0.0000000000
     29614      9872  TIP3      OH2           -36.5398166405       -4.8966622861       -0.5559796465  W2        9872            0.0000000000
     29615      9872  TIP3      H1            -37.3909666405       -4.6582822861       -0.9233396465  W2        9872            0.0000000000
     29616      9872  TIP3      H2            -35.9494766405       -4.9133422861       -1.3092696465  W2        9872            0.0000000000
     29617      9873  TIP3      OH2           -38.2078466405       -1.9107922861      -12.9279196465  W2        9873            0.0000000000
     29618      9873  TIP3      H1            -38.5807366405       -2.7364122861      -12.6188596465  W2        9873            0.0000000000
     29619      9873  TIP3      H2            -37.9304966405       -2.0938522861      -13.8255796465  W2        9873            0.0000000000
     29620      9874  TIP3      OH2           -41.0474566405       -7.1028422861       -5.9067296465  W2        9874            0.0000000000
     29621      9874  TIP3      H1            -41.9757666405       -7.3346522861       -5.9337996465  W2        9874            0.0000000000
     29622      9874  TIP3      H2            -40.5963466405       -7.8798622861       -6.2368496465  W2        9874            0.0000000000
     29623      9875  TIP3      OH2           -48.5041466405       -2.7746822861       -9.7738596465  W2        9875            0.0000000000
     29624      9875  TIP3      H1            -47.9769266405       -2.0012422861       -9.9739796465  W2        9875            0.0000000000
     29625      9875  TIP3      H2            -49.3842966405       -2.5497622861      -10.0754596465  W2        9875            0.0000000000
     29626      9876  TIP3      OH2           -52.7493766405       -7.9122722861      -15.1866196465  W2        9876            0.0000000000
     29627      9876  TIP3      H1            -52.1333866405       -7.2855522861      -14.8071396465  W2        9876            0.0000000000
     29628      9876  TIP3      H2            -53.6111166405       -7.5962922861      -14.9149696465  W2        9876            0.0000000000
     29629      9877  TIP3      OH2           -47.0769166405       -5.1116922861      -10.1974296465  W2        9877            0.0000000000
     29630      9877  TIP3      H1            -47.3179166405       -4.1862522861      -10.1558996465  W2        9877            0.0000000000
     29631      9877  TIP3      H2            -47.8175566405       -5.5705622861       -9.8010396465  W2        9877            0.0000000000
     29632      9878  TIP3      OH2           -46.5622566405       -0.9623322861       -3.8823196465  W2        9878            0.0000000000
     29633      9878  TIP3      H1            -46.1997866405       -0.1077722861       -4.1158796465  W2        9878            0.0000000000
     29634      9878  TIP3      H2            -46.0307366405       -1.2541722861       -3.1416896465  W2        9878            0.0000000000
     29635      9879  TIP3      OH2           -48.3938366405       -0.0899322861      -10.6522096465  W2        9879            0.0000000000
     29636      9879  TIP3      H1            -49.3437866405        0.0158077139      -10.6008796465  W2        9879            0.0000000000
     29637      9879  TIP3      H2            -48.0420266405        0.7308077139      -10.3074596465  W2        9879            0.0000000000
     29638      9880  TIP3      OH2           -43.0181766405       -4.8632622861       -4.1817596465  W2        9880            0.0000000000
     29639      9880  TIP3      H1            -43.4440466405       -5.0910922861       -3.3553596465  W2        9880            0.0000000000
     29640      9880  TIP3      H2            -42.4375966405       -5.6020822861       -4.3642296465  W2        9880            0.0000000000
     29641      9881  TIP3      OH2           -40.8152866405       -3.9342122861      -15.1078596465  W2        9881            0.0000000000
     29642      9881  TIP3      H1            -40.4619766405       -4.3142322861      -14.3035096465  W2        9881            0.0000000000
     29643      9881  TIP3      H2            -41.7639366405       -4.0277322861      -15.0209296465  W2        9881            0.0000000000
     29644      9882  TIP3      OH2           -40.3597566405       -0.3113122861       -1.7122796465  W2        9882            0.0000000000
     29645      9882  TIP3      H1            -40.9614366405       -0.8670222861       -2.2076496465  W2        9882            0.0000000000
     29646      9882  TIP3      H2            -40.0783866405        0.3556677139       -2.3385396465  W2        9882            0.0000000000
     29647      9883  TIP3      OH2           -36.3118466405        0.5450377139      -14.9068396465  W2        9883            0.0000000000
     29648      9883  TIP3      H1            -35.5680566405        1.1310877139      -15.0466796465  W2        9883            0.0000000000
     29649      9883  TIP3      H2            -37.0060366405        1.1136177139      -14.5735996465  W2        9883            0.0000000000
     29650      9884  TIP3      OH2           -52.2371666405      -13.0785422861       -2.3050196465  W2        9884            0.0000000000
     29651      9884  TIP3      H1            -53.1299366405      -12.7400022861       -2.3726196465  W2        9884            0.0000000000
     29652      9884  TIP3      H2            -52.3358866405      -13.9339322861       -1.8869396465  W2        9884            0.0000000000
     29653      9885  TIP3      OH2           -39.9493566405       -5.2620122861      -12.8810696465  W2        9885            0.0000000000
     29654      9885  TIP3      H1            -40.2265966405       -5.9900822861      -12.3249596465  W2        9885            0.0000000000
     29655      9885  TIP3      H2            -39.0220566405       -5.1428122861      -12.6758096465  W2        9885            0.0000000000
     29656      9886  TIP3      OH2           -52.5859666405       -1.2741022861       -3.8700796465  W2        9886            0.0000000000
     29657      9886  TIP3      H1            -52.3689366405       -2.2058622861       -3.9011096465  W2        9886            0.0000000000
     29658      9886  TIP3      H2            -52.3396166405       -0.9996022861       -2.9867996465  W2        9886            0.0000000000
     29659      9887  TIP3      OH2           -46.7245066405       -2.8226022861      -16.6608596465  W2        9887            0.0000000000
     29660      9887  TIP3      H1            -46.4855266405       -3.5707922861      -17.2079696465  W2        9887            0.0000000000
     29661      9887  TIP3      H2            -46.9933766405       -3.2104322861      -15.8280796465  W2        9887            0.0000000000
     29662      9888  TIP3      OH2           -47.7874466405       -3.2522222861      -14.2045996465  W2        9888            0.0000000000
     29663      9888  TIP3      H1            -47.6406466405       -3.7722422861      -13.4145096465  W2        9888            0.0000000000
     29664      9888  TIP3      H2            -47.7902766405       -2.3454622861      -13.8980096465  W2        9888            0.0000000000
     29665      9889  TIP3      OH2           -51.3343366405       -5.9998922861      -13.6940596465  W2        9889            0.0000000000
     29666      9889  TIP3      H1            -52.0204066405       -5.6476422861      -13.1270896465  W2        9889            0.0000000000
     29667      9889  TIP3      H2            -50.8115466405       -5.2369322861      -13.9406296465  W2        9889            0.0000000000
     29668      9890  TIP3      OH2           -43.5028266405      -13.3375122861       -3.4151596465  W2        9890            0.0000000000
     29669      9890  TIP3      H1            -42.8040366405      -13.2636422861       -2.7651896465  W2        9890            0.0000000000
     29670      9890  TIP3      H2            -43.8836866405      -14.2020122861       -3.2608696465  W2        9890            0.0000000000
     29671      9891  TIP3      OH2           -42.7183366405      -13.6853422861      -12.3179296465  W2        9891            0.0000000000
     29672      9891  TIP3      H1            -42.4985066405      -13.2138022861      -13.1213896465  W2        9891            0.0000000000
     29673      9891  TIP3      H2            -42.1599366405      -13.2910822861      -11.6478696465  W2        9891            0.0000000000
     29674      9892  TIP3      OH2           -45.0497266405       -1.5548622861      -13.4551796465  W2        9892            0.0000000000
     29675      9892  TIP3      H1            -45.8661166405       -1.0578922861      -13.4027496465  W2        9892            0.0000000000
     29676      9892  TIP3      H2            -44.5200966405       -1.0795122861      -14.0952996465  W2        9892            0.0000000000
     29677      9893  TIP3      OH2           -45.5183466405      -11.9574622861      -11.4830896465  W2        9893            0.0000000000
     29678      9893  TIP3      H1            -44.7060866405      -11.4531422861      -11.4369196465  W2        9893            0.0000000000
     29679      9893  TIP3      H2            -45.7630466405      -12.1024922861      -10.5691296465  W2        9893            0.0000000000
     29680      9894  TIP3      OH2           -44.9827066405      -10.9711922861       -2.2984296465  W2        9894            0.0000000000
     29681      9894  TIP3      H1            -44.8636766405      -10.3976522861       -1.5413896465  W2        9894            0.0000000000
     29682      9894  TIP3      H2            -44.3272466405      -11.6592522861       -2.1836496465  W2        9894            0.0000000000
     29683      9895  TIP3      OH2           -44.6346766405      -14.8761622861      -10.5449796465  W2        9895            0.0000000000
     29684      9895  TIP3      H1            -44.9813266405      -14.2591022861       -9.9005496465  W2        9895            0.0000000000
     29685      9895  TIP3      H2            -43.9759866405      -14.3755922861      -11.0264296465  W2        9895            0.0000000000
     29686      9896  TIP3      OH2           -47.7114166405       -0.5111422861      -13.4734896465  W2        9896            0.0000000000
     29687      9896  TIP3      H1            -47.5505466405        0.2886077139      -13.9742296465  W2        9896            0.0000000000
     29688      9896  TIP3      H2            -47.9086366405       -0.2045422861      -12.5884296465  W2        9896            0.0000000000
     29689      9897  TIP3      OH2           -48.9769766405      -13.8132222861      -13.8577296465  W2        9897            0.0000000000
     29690      9897  TIP3      H1            -49.0604966405      -12.9249122861      -13.5110896465  W2        9897            0.0000000000
     29691      9897  TIP3      H2            -48.0869466405      -14.0785522861      -13.6260496465  W2        9897            0.0000000000
     29692      9898  TIP3      OH2           -38.7781266405      -13.0641622861       -1.4634596465  W2        9898            0.0000000000
     29693      9898  TIP3      H1            -39.6945466405      -12.8019922861       -1.5510896465  W2        9898            0.0000000000
     29694      9898  TIP3      H2            -38.4426266405      -13.0672622861       -2.3599296465  W2        9898            0.0000000000
     29695      9899  TIP3      OH2           -40.1760266405       -9.3140622861       -7.3677296465  W2        9899            0.0000000000
     29696      9899  TIP3      H1            -40.9735866405       -9.7290422861       -7.6962296465  W2        9899            0.0000000000
     29697      9899  TIP3      H2            -39.7309166405      -10.0046922861       -6.8766796465  W2        9899            0.0000000000
     29698      9900  TIP3      OH2           -50.7184466405       -3.3860022861      -14.7972796465  W2        9900            0.0000000000
     29699      9900  TIP3      H1            -50.1262966405       -2.6865222861      -14.5210396465  W2        9900            0.0000000000
     29700      9900  TIP3      H2            -50.2591466405       -3.8190522861      -15.5168196465  W2        9900            0.0000000000
     29701      9901  TIP3      OH2           -52.4025266405      -10.7217022861      -15.6813396465  W2        9901            0.0000000000
     29702      9901  TIP3      H1            -52.4472666405       -9.7823922861      -15.5026396465  W2        9901            0.0000000000
     29703      9901  TIP3      H2            -53.2902066405      -10.9572122861      -15.9511296465  W2        9901            0.0000000000
     29704      9902  TIP3      OH2           -39.0895666405       -0.0578122861       -5.7453796465  W2        9902            0.0000000000
     29705      9902  TIP3      H1            -39.2451366405        0.6206277139       -6.4024496465  W2        9902            0.0000000000
     29706      9902  TIP3      H2            -38.1569266405        0.0141177139       -5.5423196465  W2        9902            0.0000000000
     29707      9903  TIP3      OH2           -51.5943266405      -15.9400422861       -7.0082396465  W2        9903            0.0000000000
     29708      9903  TIP3      H1            -51.8233466405      -15.8807922861       -7.9357396465  W2        9903            0.0000000000
     29709      9903  TIP3      H2            -52.0369866405      -16.7314922861       -6.7018296465  W2        9903            0.0000000000
     29710      9904  TIP3      OH2           -52.6639966405       -1.9993322861      -10.8476596465  W2        9904            0.0000000000
     29711      9904  TIP3      H1            -53.4961366405       -1.5270622861      -10.8205196465  W2        9904            0.0000000000
     29712      9904  TIP3      H2            -52.1181666405       -1.4895722861      -11.4463496465  W2        9904            0.0000000000
     29713      9905  TIP3      OH2           -53.3756266405        0.6130377139        0.4821403535  W2        9905            0.0000000000
     29714      9905  TIP3      H1            -52.8354066405        0.3964377139        1.2420603535  W2        9905            0.0000000000
     29715      9905  TIP3      H2            -53.8568266405       -0.1923622861        0.2923903535  W2        9905            0.0000000000
     29716      9906  TIP3      OH2           -48.7782866405       -0.4675222861        2.1025603535  W2        9906            0.0000000000
     29717      9906  TIP3      H1            -48.0105666405       -0.9264422861        2.4434803535  W2        9906            0.0000000000
     29718      9906  TIP3      H2            -48.7996666405       -0.6935422861        1.1726803535  W2        9906            0.0000000000
     29719      9907  TIP3      OH2           -44.6863266405       -0.9594622861      -16.5222596465  W2        9907            0.0000000000
     29720      9907  TIP3      H1            -45.3302266405       -1.5906022861      -16.2008896465  W2        9907            0.0000000000
     29721      9907  TIP3      H2            -43.9244966405       -1.4906622861      -16.7539096465  W2        9907            0.0000000000
     29722      9908  TIP3      OH2           -42.2014166405       -2.0874122861        0.8317103535  W2        9908            0.0000000000
     29723      9908  TIP3      H1            -42.5524666405       -2.9441122861        1.0747503535  W2        9908            0.0000000000
     29724      9908  TIP3      H2            -41.4750966405       -1.9447422861        1.4386103535  W2        9908            0.0000000000
     29725      9909  TIP3      OH2           -40.0820366405       -1.1424722861      -16.2884596465  W2        9909            0.0000000000
     29726      9909  TIP3      H1            -39.7989966405       -1.9369522861      -15.8357696465  W2        9909            0.0000000000
     29727      9909  TIP3      H2            -39.3422466405       -0.9093722861      -16.8493496465  W2        9909            0.0000000000
     29728      9910  TIP3      OH2           -53.4686766405       -5.5765522861        1.4365703535  W2        9910            0.0000000000
     29729      9910  TIP3      H1            -53.3246266405       -6.4784822861        1.1502403535  W2        9910            0.0000000000
     29730      9910  TIP3      H2            -54.2409366405       -5.2903422861        0.9488003535  W2        9910            0.0000000000
     29731      9911  TIP3      OH2           -49.1273066405       -5.2329822861      -16.4309696465  W2        9911            0.0000000000
     29732      9911  TIP3      H1            -49.0628966405       -6.0270222861      -15.9003296465  W2        9911            0.0000000000
     29733      9911  TIP3      H2            -48.4743866405       -5.3517022861      -17.1207696465  W2        9911            0.0000000000
     29734      9912  TIP3      OH2           -46.8130666405       -5.6067422861        0.8692103535  W2        9912            0.0000000000
     29735      9912  TIP3      H1            -47.1416866405       -5.3359322861        0.0119503535  W2        9912            0.0000000000
     29736      9912  TIP3      H2            -46.6612466405       -6.5477622861        0.7817103535  W2        9912            0.0000000000
     29737      9913  TIP3      OH2           -43.7749666405       -4.1858122861      -16.6951696465  W2        9913            0.0000000000
     29738      9913  TIP3      H1            -44.0435566405       -4.0056022861      -15.7942796465  W2        9913            0.0000000000
     29739      9913  TIP3      H2            -43.9814066405       -5.1111922861      -16.8265896465  W2        9913            0.0000000000
     29740      9914  TIP3      OH2           -41.0785466405       -5.6910122861       -1.7475596465  W2        9914            0.0000000000
     29741      9914  TIP3      H1            -40.3330666405       -5.1026422861       -1.8671596465  W2        9914            0.0000000000
     29742      9914  TIP3      H2            -41.8358666405       -5.1090422861       -1.6842496465  W2        9914            0.0000000000
     29743      9915  TIP3      OH2           -52.6360266405       -8.3762222861        0.8565003535  W2        9915            0.0000000000
     29744      9915  TIP3      H1            -52.2279066405       -9.2335622861        0.7355603535  W2        9915            0.0000000000
     29745      9915  TIP3      H2            -52.8962666405       -8.3620922861        1.7775303535  W2        9915            0.0000000000
     29746      9916  TIP3      OH2           -47.9779266405       -7.2603622861      -14.1251696465  W2        9916            0.0000000000
     29747      9916  TIP3      H1            -48.4377266405       -7.7445322861      -13.4393196465  W2        9916            0.0000000000
     29748      9916  TIP3      H2            -47.7230566405       -7.9288222861      -14.7611196465  W2        9916            0.0000000000
     29749      9917  TIP3      OH2           -48.6889966405       -9.3676522861       -1.7692096465  W2        9917            0.0000000000
     29750      9917  TIP3      H1            -49.3073866405       -8.6929922861       -1.4887396465  W2        9917            0.0000000000
     29751      9917  TIP3      H2            -48.3448766405       -9.0462622861       -2.6025896465  W2        9917            0.0000000000
     29752      9918  TIP3      OH2           -46.9068866405       -9.0171822861      -15.8628496465  W2        9918            0.0000000000
     29753      9918  TIP3      H1            -47.0873866405       -9.1720622861      -16.7900196465  W2        9918            0.0000000000
     29754      9918  TIP3      H2            -45.9568366405       -8.9093122861      -15.8180596465  W2        9918            0.0000000000
     29755      9919  TIP3      OH2           -43.6691766405       -6.8961222861        1.5082703535  W2        9919            0.0000000000
     29756      9919  TIP3      H1            -42.7160566405       -6.8122122861        1.4808703535  W2        9919            0.0000000000
     29757      9919  TIP3      H2            -43.8297166405       -7.6079422861        2.1277603535  W2        9919            0.0000000000
     29758      9920  TIP3      OH2           -37.5170566405       -6.6627622861      -16.4170396465  W2        9920            0.0000000000
     29759      9920  TIP3      H1            -37.7905766405       -7.0872122861      -17.2302096465  W2        9920            0.0000000000
     29760      9920  TIP3      H2            -37.4776466405       -5.7313122861      -16.6339996465  W2        9920            0.0000000000
     29761      9921  TIP3      OH2           -48.3496266405      -12.0125722861       -0.6868996465  W2        9921            0.0000000000
     29762      9921  TIP3      H1            -48.1995366405      -12.7414422861       -1.2889296465  W2        9921            0.0000000000
     29763      9921  TIP3      H2            -48.3473866405      -11.2354022861       -1.2456796465  W2        9921            0.0000000000
     29764      9922  TIP3      OH2           -47.9370566405      -13.6429922861       -3.1941596465  W2        9922            0.0000000000
     29765      9922  TIP3      H1            -47.4013066405      -13.1913222861       -3.8462296465  W2        9922            0.0000000000
     29766      9922  TIP3      H2            -48.7890966405      -13.7510122861       -3.6167496465  W2        9922            0.0000000000
     29767      9923  TIP3      OH2           -46.3552166405       -8.2033722861       -2.9546396465  W2        9923            0.0000000000
     29768      9923  TIP3      H1            -45.6047366405       -8.3596222861       -3.5278596465  W2        9923            0.0000000000
     29769      9923  TIP3      H2            -46.6943866405       -7.3517122861       -3.2300896465  W2        9923            0.0000000000
     29770      9924  TIP3      OH2           -41.9395966405      -10.3881922861        2.0738903535  W2        9924            0.0000000000
     29771      9924  TIP3      H1            -41.7474666405      -11.3192522861        1.9623403535  W2        9924            0.0000000000
     29772      9924  TIP3      H2            -41.0819666405       -9.9632422861        2.0634303535  W2        9924            0.0000000000
     29773      9925  TIP3      OH2           -40.6228766405       -7.5996722861        0.1511603535  W2        9925            0.0000000000
     29774      9925  TIP3      H1            -40.9043766405       -6.8902122861       -0.4264596465  W2        9925            0.0000000000
     29775      9925  TIP3      H2            -39.6804466405       -7.6723722861        0.0002803535  W2        9925            0.0000000000
     29776      9926  TIP3      OH2           -49.8709966405      -10.8142222861        1.2246603535  W2        9926            0.0000000000
     29777      9926  TIP3      H1            -50.6380966405      -11.3467422861        1.0144203535  W2        9926            0.0000000000
     29778      9926  TIP3      H2            -49.1920966405      -11.1241822861        0.6252903535  W2        9926            0.0000000000
     29779      9927  TIP3      OH2           -47.1315066405      -16.1864222861       -2.7627996465  W2        9927            0.0000000000
     29780      9927  TIP3      H1            -47.2295466405      -15.2401022861       -2.8681796465  W2        9927            0.0000000000
     29781      9927  TIP3      H2            -47.8738866405      -16.5590422861       -3.2384496465  W2        9927            0.0000000000
     29782      9928  TIP3      OH2           -45.8674566405      -11.8648822861        0.8010403535  W2        9928            0.0000000000
     29783      9928  TIP3      H1            -46.1029166405      -12.0842122861        1.7025303535  W2        9928            0.0000000000
     29784      9928  TIP3      H2            -46.6507666405      -12.0717622861        0.2912903535  W2        9928            0.0000000000
     29785      9929  TIP3      OH2           -43.1517966405      -12.7375322861       -0.1236096465  W2        9929            0.0000000000
     29786      9929  TIP3      H1            -44.0992566405      -12.7055622861        0.0087203535  W2        9929            0.0000000000
     29787      9929  TIP3      H2            -42.8391266405      -13.3628222861        0.5302103535  W2        9929            0.0000000000
     29788      9930  TIP3      OH2           -41.5176466405      -14.1034222861        1.8815803535  W2        9930            0.0000000000
     29789      9930  TIP3      H1            -41.6144666405      -15.0556922861        1.8757703535  W2        9930            0.0000000000
     29790      9930  TIP3      H2            -41.8393366405      -13.8347422861        2.7421303535  W2        9930            0.0000000000
     29791      9931  TIP3      OH2           -51.6907166405      -12.8938422861        0.9291303535  W2        9931            0.0000000000
     29792      9931  TIP3      H1            -51.4789766405      -13.6002322861        0.3188803535  W2        9931            0.0000000000
     29793      9931  TIP3      H2            -51.8019666405      -13.3312422861        1.7732503535  W2        9931            0.0000000000
     29794      9932  TIP3      OH2           -46.9096966405      -16.8926822861       -0.0915196465  W2        9932            0.0000000000
     29795      9932  TIP3      H1            -46.1978566405      -17.5324622861       -0.1056096465  W2        9932            0.0000000000
     29796      9932  TIP3      H2            -47.0106566405      -16.6258522861       -1.0052096465  W2        9932            0.0000000000
     29797      9933  TIP3      OH2           -46.5559466405      -15.2098422861        1.9621103535  W2        9933            0.0000000000
     29798      9933  TIP3      H1            -46.6877266405      -15.6854622861        1.1419603535  W2        9933            0.0000000000
     29799      9933  TIP3      H2            -47.1552066405      -14.4654822861        1.9068203535  W2        9933            0.0000000000
     29800      9934  TIP3      OH2           -47.0097166405        1.6731877139      -14.8614896465  W2        9934            0.0000000000
     29801      9934  TIP3      H1            -46.0766466405        1.8310577139      -14.7176496465  W2        9934            0.0000000000
     29802      9934  TIP3      H2            -47.2738366405        2.3484877139      -15.4863396465  W2        9934            0.0000000000
     29803      9935  TIP3      OH2           -53.4412266405       -3.6904322861      -15.3786796465  W2        9935            0.0000000000
     29804      9935  TIP3      H1            -52.5273066405       -3.6115422861      -15.1052896465  W2        9935            0.0000000000
     29805      9935  TIP3      H2            -53.4339166405       -4.3774722861      -16.0451196465  W2        9935            0.0000000000
     29806      9936  TIP3      OH2           -54.7921666405        1.7024177139      -10.3012896465  W2        9936            0.0000000000
     29807      9936  TIP3      H1            -55.4394566405        1.2405877139      -10.8341696465  W2        9936            0.0000000000
     29808      9936  TIP3      H2            -54.4377066405        1.0307477139       -9.7186696465  W2        9936            0.0000000000
     29809      9937  TIP3      OH2           -53.9222466405       -0.2168822861       -8.4966696465  W2        9937            0.0000000000
     29810      9937  TIP3      H1            -54.2565666405       -1.0971522861       -8.3246496465  W2        9937            0.0000000000
     29811      9937  TIP3      H2            -53.7000066405        0.1286177139       -7.6321096465  W2        9937            0.0000000000
     29812      9938  TIP3      OH2           -36.3737666405        0.5927577139       -5.5161896465  W2        9938            0.0000000000
     29813      9938  TIP3      H1            -36.3950966405        0.7775977139       -4.5772496465  W2        9938            0.0000000000
     29814      9938  TIP3      H2            -35.6831466405        1.1611577139       -5.8570496465  W2        9938            0.0000000000
     29815      9939  TIP3      OH2           -36.8104766405        0.1598677139       -2.5942796465  W2        9939            0.0000000000
     29816      9939  TIP3      H1            -37.2976066405       -0.5757222861       -2.9655396465  W2        9939            0.0000000000
     29817      9939  TIP3      H2            -36.2612066405       -0.2337422861       -1.9163396465  W2        9939            0.0000000000
     29818      9940  TIP3      OH2           -38.3597466405       -4.0503222861        2.0437503535  W2        9940            0.0000000000
     29819      9940  TIP3      H1            -39.2256366405       -4.1553522861        2.4379803535  W2        9940            0.0000000000
     29820      9940  TIP3      H2            -37.9831566405       -3.2919922861        2.4902203535  W2        9940            0.0000000000
     29821      9941  TIP3      OH2           -37.0587766405       -5.7939522861      -12.4419996465  W2        9941            0.0000000000
     29822      9941  TIP3      H1            -36.2086366405       -5.3728622861      -12.3148396465  W2        9941            0.0000000000
     29823      9941  TIP3      H2            -37.0532666405       -6.5339422861      -11.8348596465  W2        9941            0.0000000000
     29824      9942  TIP3      OH2           -36.6642166405       -7.7402122861      -10.6184296465  W2        9942            0.0000000000
     29825      9942  TIP3      H1            -37.3907566405       -8.2199522861      -10.2206696465  W2        9942            0.0000000000
     29826      9942  TIP3      H2            -36.0828866405       -7.5347422861       -9.8862696465  W2        9942            0.0000000000
     29827      9943  TIP3      OH2           -36.9050966405       -4.9554622861       -5.6706696465  W2        9943            0.0000000000
     29828      9943  TIP3      H1            -36.0716766405       -5.3334622861       -5.9513096465  W2        9943            0.0000000000
     29829      9943  TIP3      H2            -36.7930666405       -4.0123422861       -5.7897596465  W2        9943            0.0000000000
     29830      9944  TIP3      OH2           -38.4188666405       -2.0777122861       -3.3638296465  W2        9944            0.0000000000
     29831      9944  TIP3      H1            -39.0663366405       -1.7525622861       -2.7383096465  W2        9944            0.0000000000
     29832      9944  TIP3      H2            -38.9364666405       -2.5179422861       -4.0379996465  W2        9944            0.0000000000
     29833      9945  TIP3      OH2           -36.3959066405       -7.8393622861      -14.2272996465  W2        9945            0.0000000000
     29834      9945  TIP3      H1            -36.9177966405       -7.4829522861      -14.9462096465  W2        9945            0.0000000000
     29835      9945  TIP3      H2            -36.4289866405       -7.1645822861      -13.5492096465  W2        9945            0.0000000000
     29836      9946  TIP3      OH2           -38.0470066405      -10.5998022861      -15.6765896465  W2        9946            0.0000000000
     29837      9946  TIP3      H1            -37.9505666405       -9.9331022861      -16.3566196465  W2        9946            0.0000000000
     29838      9946  TIP3      H2            -38.1870466405      -11.4151722861      -16.1580396465  W2        9946            0.0000000000
     29839      9947  TIP3      OH2           -38.8775366405       -9.2195622861      -10.0555596465  W2        9947            0.0000000000
     29840      9947  TIP3      H1            -39.0276566405      -10.1647022861      -10.0757796465  W2        9947            0.0000000000
     29841      9947  TIP3      H2            -39.2310866405       -8.9384222861       -9.2116496465  W2        9947            0.0000000000
     29842      9948  TIP3      OH2           -53.8422966405       -7.1413422861       -6.0451796465  W2        9948            0.0000000000
     29843      9948  TIP3      H1            -53.6580066405       -7.2231722861       -6.9808896465  W2        9948            0.0000000000
     29844      9948  TIP3      H2            -52.9930066405       -7.2656422861       -5.6215396465  W2        9948            0.0000000000
     29845      9949  TIP3      OH2           -38.0212466405       -7.2492322861       -0.4167296465  W2        9949            0.0000000000
     29846      9949  TIP3      H1            -37.4385166405       -7.9840022861       -0.2250096465  W2        9949            0.0000000000
     29847      9949  TIP3      H2            -37.4573166405       -6.4772022861       -0.3701496465  W2        9949            0.0000000000
     29848      9950  TIP3      OH2           -36.5245366405       -9.3466522861        0.2678103535  W2        9950            0.0000000000
     29849      9950  TIP3      H1            -37.3878666405       -9.7254422861        0.1022803535  W2        9950            0.0000000000
     29850      9950  TIP3      H2            -35.9201666405      -10.0851722861        0.1933903535  W2        9950            0.0000000000
     29851      9951  TIP3      OH2           -38.7996266405      -13.1918222861      -16.5590396465  W2        9951            0.0000000000
     29852      9951  TIP3      H1            -38.1890466405      -13.5631422861      -15.9222196465  W2        9951            0.0000000000
     29853      9951  TIP3      H2            -39.6364766405      -13.6131322861      -16.3630396465  W2        9951            0.0000000000
     29854      9952  TIP3      OH2           -39.1670566405      -11.6369822861      -11.5930496465  W2        9952            0.0000000000
     29855      9952  TIP3      H1            -38.8873466405      -12.5439422861      -11.4688796465  W2        9952            0.0000000000
     29856      9952  TIP3      H2            -38.4078866405      -11.2028322861      -11.9821296465  W2        9952            0.0000000000
     29857      9953  TIP3      OH2           -38.5552266405      -11.0552422861       -6.1571596465  W2        9953            0.0000000000
     29858      9953  TIP3      H1            -37.6224266405      -10.8432522861       -6.1915596465  W2        9953            0.0000000000
     29859      9953  TIP3      H2            -38.7904766405      -10.9540322861       -5.2348596465  W2        9953            0.0000000000
     29860      9954  TIP3      OH2           -38.5260366405      -10.3187122861       -3.3812196465  W2        9954            0.0000000000
     29861      9954  TIP3      H1            -39.3689066405      -10.0506722861       -3.0152396465  W2        9954            0.0000000000
     29862      9954  TIP3      H2            -38.0836066405       -9.4965222861       -3.5921096465  W2        9954            0.0000000000
     29863      9955  TIP3      OH2           -54.2448166405      -11.8708422861        0.0957003535  W2        9955            0.0000000000
     29864      9955  TIP3      H1            -53.3253266405      -11.9930122861        0.3320103535  W2        9955            0.0000000000
     29865      9955  TIP3      H2            -54.6943666405      -12.6208722861        0.4850503535  W2        9955            0.0000000000
     29866      9956  TIP3      OH2           -36.2428766405      -16.3386922861        1.9722803535  W2        9956            0.0000000000
     29867      9956  TIP3      H1            -35.8931766405      -16.9923422861        1.3667503535  W2        9956            0.0000000000
     29868      9956  TIP3      H2            -36.0959266405      -15.5012822861        1.5325403535  W2        9956            0.0000000000
     29869      9957  TIP3      OH2           -38.5535766405      -14.3740522861      -11.5448496465  W2        9957            0.0000000000
     29870      9957  TIP3      H1            -38.3710766405      -14.8229022861      -10.7193496465  W2        9957            0.0000000000
     29871      9957  TIP3      H2            -39.1532866405      -14.9586122861      -12.0083896465  W2        9957            0.0000000000
     29872      9958  TIP3      OH2           -53.0235666405      -13.5586822861       -7.0130096465  W2        9958            0.0000000000
     29873      9958  TIP3      H1            -52.5784066405      -14.3504322861       -6.7110396465  W2        9958            0.0000000000
     29874      9958  TIP3      H2            -52.5572666405      -12.8421622861       -6.5824496465  W2        9958            0.0000000000
     29875      9959  TIP3      OH2           -54.7195366405      -10.5593822861       -5.9439896465  W2        9959            0.0000000000
     29876      9959  TIP3      H1            -54.2275566405      -10.7803322861       -6.7347896465  W2        9959            0.0000000000
     29877      9959  TIP3      H2            -54.3574466405       -9.7190422861       -5.6630396465  W2        9959            0.0000000000
     29878      9960  TIP3      OH2           -36.7231566405      -14.2292322861        0.3214103535  W2        9960            0.0000000000
     29879      9960  TIP3      H1            -37.6405866405      -13.9585222861        0.2857603535  W2        9960            0.0000000000
     29880      9960  TIP3      H2            -36.6002166405      -14.7643922861       -0.4626196465  W2        9960            0.0000000000
     29881      9961  TIP3      OH2           -36.6869566405      -14.3062422861      -15.0168196465  W2        9961            0.0000000000
     29882      9961  TIP3      H1            -36.2746966405      -15.0276722861      -15.4920196465  W2        9961            0.0000000000
     29883      9961  TIP3      H2            -36.0053066405      -13.6367822861      -14.9583896465  W2        9961            0.0000000000
     29884      9962  TIP3      OH2           -54.4058866405      -14.3014722861      -11.8897496465  W2        9962            0.0000000000
     29885      9962  TIP3      H1            -55.3310466405      -14.0928122861      -12.0191996465  W2        9962            0.0000000000
     29886      9962  TIP3      H2            -53.9518966405      -13.8173922861      -12.5795196465  W2        9962            0.0000000000
     29887      9963  TIP3      OH2           -39.6351666405        0.6826977139       -9.9440096465  W2        9963            0.0000000000
     29888      9963  TIP3      H1            -38.9828766405        0.3349077139      -10.5520996465  W2        9963            0.0000000000
     29889      9963  TIP3      H2            -39.1247866405        1.1710177139       -9.2980396465  W2        9963            0.0000000000
     29890      9964  TIP3      OH2           -54.4423466405      -15.5635722861       -3.5454996465  W2        9964            0.0000000000
     29891      9964  TIP3      H1            -55.1072966405      -15.8095422861       -2.9024096465  W2        9964            0.0000000000
     29892      9964  TIP3      H2            -54.8852166405      -14.9415322861       -4.1226996465  W2        9964            0.0000000000
     29893      9965  TIP3      OH2           -52.2504166405       -2.3881622861        0.5990803535  W2        9965            0.0000000000
     29894      9965  TIP3      H1            -53.0711666405       -2.2135122861        0.1385503535  W2        9965            0.0000000000
     29895      9965  TIP3      H2            -52.5026366405       -2.4616922861        1.5195203535  W2        9965            0.0000000000
     29896      9966  TIP3      OH2           -49.2961266405       -1.4140422861       -3.1425196465  W2        9966            0.0000000000
     29897      9966  TIP3      H1            -49.7210166405       -0.6041922861       -3.4250596465  W2        9966            0.0000000000
     29898      9966  TIP3      H2            -48.3918466405       -1.3286322861       -3.4445396465  W2        9966            0.0000000000
     29899      9967  TIP3      OH2           -44.9849866405       -0.0150422861       -0.1831496465  W2        9967            0.0000000000
     29900      9967  TIP3      H1            -44.8002366405       -0.3484322861        0.6948803535  W2        9967            0.0000000000
     29901      9967  TIP3      H2            -44.1385366405        0.2948177139       -0.5052296465  W2        9967            0.0000000000
     29902      9968  TIP3      OH2           -42.6399466405        1.2708477139       -0.9390096465  W2        9968            0.0000000000
     29903      9968  TIP3      H1            -41.9630566405        0.6380777139       -1.1790896465  W2        9968            0.0000000000
     29904      9968  TIP3      H2            -42.3180666405        1.6718977139       -0.1316796465  W2        9968            0.0000000000
     29905      9969  TIP3      OH2           -37.7225666405      -16.1396022861       -1.8595096465  W2        9969            0.0000000000
     29906      9969  TIP3      H1            -38.5352166405      -15.8145722861       -2.2470396465  W2        9969            0.0000000000
     29907      9969  TIP3      H2            -37.4897166405      -16.8997522861       -2.3925996465  W2        9969            0.0000000000
     29908      9970  TIP3      OH2           -51.8944566405        1.8423477139       -3.0949896465  W2        9970            0.0000000000
     29909      9970  TIP3      H1            -52.6148166405        2.2824477139       -3.5462196465  W2        9970            0.0000000000
     29910      9970  TIP3      H2            -52.2600566405        1.5918177139       -2.2465896465  W2        9970            0.0000000000
     29911      9971  TIP3      OH2           -49.4271966405        1.4427377139       -4.0652696465  W2        9971            0.0000000000
     29912      9971  TIP3      H1            -50.2919766405        1.5145877139       -3.6612596465  W2        9971            0.0000000000
     29913      9971  TIP3      H2            -49.4822966405        1.9894677139       -4.8490196465  W2        9971            0.0000000000
     29914      9972  TIP3      OH2           -44.7166366405        1.3306277139       -4.8896696465  W2        9972            0.0000000000
     29915      9972  TIP3      H1            -45.1732366405        1.8595977139       -5.5438296465  W2        9972            0.0000000000
     29916      9972  TIP3      H2            -44.5538366405        1.9337677139       -4.1644396465  W2        9972            0.0000000000
     29917      9973  TIP3      OH2           -42.3890066405        0.2085877139       -3.9446396465  W2        9973            0.0000000000
     29918      9973  TIP3      H1            -43.2936366405        0.3736077139       -4.2104296465  W2        9973            0.0000000000
     29919      9973  TIP3      H2            -41.9601466405        1.0618077139       -4.0102996465  W2        9973            0.0000000000
     29920      9974  TIP3      OH2           -39.7848166405        1.7784977139       -3.6498596465  W2        9974            0.0000000000
     29921      9974  TIP3      H1            -39.9666166405        2.6943877139       -3.8603696465  W2        9974            0.0000000000
     29922      9974  TIP3      H2            -39.6080366405        1.3682077139       -4.4963996465  W2        9974            0.0000000000
     29923      9975  TIP3      OH2           -52.4796466405        0.4655977139       -6.1848096465  W2        9975            0.0000000000
     29924      9975  TIP3      H1            -52.4980466405        0.0401077139       -5.3275796465  W2        9975            0.0000000000
     29925      9975  TIP3      H2            -51.6748566405        0.1470977139       -6.5935896465  W2        9975            0.0000000000
     29926      9976  TIP3      OH2           -50.3383366405       -0.8245322861       -7.5298196465  W2        9976            0.0000000000
     29927      9976  TIP3      H1            -50.5572666405       -1.7407922861       -7.3602196465  W2        9976            0.0000000000
     29928      9976  TIP3      H2            -49.5141166405       -0.6844922861       -7.0636796465  W2        9976            0.0000000000
     29929      9977  TIP3      OH2           -47.8010866405       -0.3546022861       -6.6810196465  W2        9977            0.0000000000
     29930      9977  TIP3      H1            -47.5885166405       -1.2427022861       -6.9679296465  W2        9977            0.0000000000
     29931      9977  TIP3      H2            -47.7365766405       -0.3888322861       -5.7266196465  W2        9977            0.0000000000
     29932      9978  TIP3      OH2           -44.2927166405      -14.6905422861       -7.5366896465  W2        9978            0.0000000000
     29933      9978  TIP3      H1            -44.9670366405      -15.3199822861       -7.2811096465  W2        9978            0.0000000000
     29934      9978  TIP3      H2            -43.7287966405      -15.1746522861       -8.1398996465  W2        9978            0.0000000000
     29935      9979  TIP3      OH2           -39.1499966405      -16.5831422861       -7.4239796465  W2        9979            0.0000000000
     29936      9979  TIP3      H1            -38.5462366405      -16.0356022861       -7.9258796465  W2        9979            0.0000000000
     29937      9979  TIP3      H2            -40.0197966405      -16.2641022861       -7.6645696465  W2        9979            0.0000000000
     29938      9980  TIP3      OH2           -37.4229566405      -15.4442722861       -9.0908896465  W2        9980            0.0000000000
     29939      9980  TIP3      H1            -36.8112066405      -15.9587022861       -9.6175296465  W2        9980            0.0000000000
     29940      9980  TIP3      H2            -37.0406166405      -14.5670622861       -9.0674496465  W2        9980            0.0000000000
     29941      9981  TIP3      OH2           -51.9659666405      -16.0565122861       -9.7146996465  W2        9981            0.0000000000
     29942      9981  TIP3      H1            -52.7429866405      -16.2910222861      -10.2221096465  W2        9981            0.0000000000
     29943      9981  TIP3      H2            -51.4356066405      -16.8533022861       -9.7058996465  W2        9981            0.0000000000
     29944      9982  TIP3      OH2           -53.1296266405      -16.2587022861      -13.9110896465  W2        9982            0.0000000000
     29945      9982  TIP3      H1            -52.6905566405      -15.6476522861      -14.5027396465  W2        9982            0.0000000000
     29946      9982  TIP3      H2            -53.7633866405      -15.7202922861      -13.4370896465  W2        9982            0.0000000000
     29947      9983  TIP3      OH2           -47.3867066405      -16.1298022861       -9.9013896465  W2        9983            0.0000000000
     29948      9983  TIP3      H1            -46.5123666405      -15.7413722861       -9.9309596465  W2        9983            0.0000000000
     29949      9983  TIP3      H2            -47.5226266405      -16.3450222861       -8.9786696465  W2        9983            0.0000000000
     29950      9984  TIP3      OH2           -41.8298666405      -16.0998222861       -8.2522196465  W2        9984            0.0000000000
     29951      9984  TIP3      H1            -41.7537066405      -16.0046622861       -9.2016196465  W2        9984            0.0000000000
     29952      9984  TIP3      H2            -42.1049466405      -17.0075322861       -8.1233096465  W2        9984            0.0000000000
     29953      9985  TIP3      OH2           -40.4766066405      -16.0740422861      -12.5597196465  W2        9985            0.0000000000
     29954      9985  TIP3      H1            -41.1794966405      -15.4591222861      -12.7695796465  W2        9985            0.0000000000
     29955      9985  TIP3      H2            -40.9214666405      -16.9113722861      -12.4286296465  W2        9985            0.0000000000
     29956      9986  TIP3      OH2           -53.2286766405       -0.3104822861      -13.0135796465  W2        9986            0.0000000000
     29957      9986  TIP3      H1            -53.9136866405       -0.3485922861      -13.6810696465  W2        9986            0.0000000000
     29958      9986  TIP3      H2            -53.2249566405        0.6022777139      -12.7253696465  W2        9986            0.0000000000
     29959      9987  TIP3      OH2           -51.2687166405      -14.3425522861      -15.4686796465  W2        9987            0.0000000000
     29960      9987  TIP3      H1            -50.7773766405      -14.9723122861      -15.9961296465  W2        9987            0.0000000000
     29961      9987  TIP3      H2            -50.6450866405      -14.0466122861      -14.8055596465  W2        9987            0.0000000000
     29962      9988  TIP3      OH2           -46.2427066405      -14.0494022861      -13.0116296465  W2        9988            0.0000000000
     29963      9988  TIP3      H1            -46.0645766405      -14.6960822861      -12.3287696465  W2        9988            0.0000000000
     29964      9988  TIP3      H2            -46.2960866405      -13.2156322861      -12.5445196465  W2        9988            0.0000000000
     29965      9989  TIP3      OH2           -44.3643266405        0.8990077139      -14.6159596465  W2        9989            0.0000000000
     29966      9989  TIP3      H1            -43.4983066405        1.2657477139      -14.7941396465  W2        9989            0.0000000000
     29967      9989  TIP3      H2            -44.6110466405        0.4598077139      -15.4298796465  W2        9989            0.0000000000
     29968      9990  TIP3      OH2           -37.6553666405        0.4620377139      -11.9368496465  W2        9990            0.0000000000
     29969      9990  TIP3      H1            -37.8496566405       -0.2857522861      -12.5018896465  W2        9990            0.0000000000
     29970      9990  TIP3      H2            -37.6943566405        1.2200477139      -12.5200596465  W2        9990            0.0000000000
     29971      9991  TIP3      OH2           -52.0081666405      -15.5423222861       -0.1970796465  W2        9991            0.0000000000
     29972      9991  TIP3      H1            -52.3743466405      -16.3080622861        0.2453903535  W2        9991            0.0000000000
     29973      9991  TIP3      H2            -51.0953166405      -15.5133022861        0.0894303535  W2        9991            0.0000000000
     29974      9992  TIP3      OH2           -50.0350866405      -16.1918822861        1.3386303535  W2        9992            0.0000000000
     29975      9992  TIP3      H1            -49.1367266405      -16.4658622861        1.1539703535  W2        9992            0.0000000000
     29976      9992  TIP3      H2            -50.4217766405      -16.9342822861        1.8028903535  W2        9992            0.0000000000
     29977      9993  TIP3      OH2           -51.4105566405        0.6095977139      -15.9883696465  W2        9993            0.0000000000
     29978      9993  TIP3      H1            -51.6780966405        0.8958877139      -15.1150596465  W2        9993            0.0000000000
     29979      9993  TIP3      H2            -50.6392966405        0.0635177139      -15.8361196465  W2        9993            0.0000000000
     29980      9994  TIP3      OH2           -41.6138566405      -16.8593522861        1.5209103535  W2        9994            0.0000000000
     29981      9994  TIP3      H1            -41.5371366405      -17.2852822861        2.3746803535  W2        9994            0.0000000000
     29982      9994  TIP3      H2            -40.7201966405      -16.8458822861        1.1782603535  W2        9994            0.0000000000
     29983      9995  TIP3      OH2           -38.4377466405       -0.7867222861        0.2133303535  W2        9995            0.0000000000
     29984      9995  TIP3      H1            -39.2195566405       -0.9729222861       -0.3066096465  W2        9995            0.0000000000
     29985      9995  TIP3      H2            -38.5097566405        0.1427077139        0.4305803535  W2        9995            0.0000000000
     29986      9996  TIP3      OH2           -24.0317066405       -6.9002822861       -9.7559496465  W2        9996            0.0000000000
     29987      9996  TIP3      H1            -23.9425966405       -5.9564622861       -9.8882396465  W2        9996            0.0000000000
     29988      9996  TIP3      H2            -24.6699466405       -7.1756422861      -10.4140096465  W2        9996            0.0000000000
     29989      9997  TIP3      OH2           -25.0985766405       -7.6452122861       -6.3371296465  W2        9997            0.0000000000
     29990      9997  TIP3      H1            -25.1368266405       -8.2915822861       -5.6321696465  W2        9997            0.0000000000
     29991      9997  TIP3      H2            -25.4209266405       -8.1117722861       -7.1082596465  W2        9997            0.0000000000
     29992      9998  TIP3      OH2           -32.7300766405       -8.0310022861       -4.7441396465  W2        9998            0.0000000000
     29993      9998  TIP3      H1            -32.6888666405       -8.6566722861       -4.0208996465  W2        9998            0.0000000000
     29994      9998  TIP3      H2            -32.0273066405       -7.4071422861       -4.5620996465  W2        9998            0.0000000000
     29995      9999  TIP3      OH2           -21.3925566405       -4.7061722861       -8.0356196465  W2        9999            0.0000000000
     29996      9999  TIP3      H1            -21.8332866405       -5.4265722861       -7.5850596465  W2        9999            0.0000000000
     29997      9999  TIP3      H2            -21.4055866405       -3.9854522861       -7.4058496465  W2        9999            0.0000000000
     29998     10000  TIP3      OH2           -31.8067666405       -3.5811122861       -6.2092296465  W2        10000           0.0000000000
     29999     10000  TIP3      H1            -32.1762466405       -4.3830622861       -6.5787996465  W2        10000           0.0000000000
     30000     10000  TIP3      H2            -30.8656566405       -3.7496222861       -6.1628896465  W2        10000           0.0000000000
     30001     10001  TIP3      OH2           -35.1967166405       -9.9208522861      -10.8163496465  W2        10001           0.0000000000
     30002     10001  TIP3      H1            -35.6443766405       -9.0749822861      -10.8346996465  W2        10001           0.0000000000
     30003     10001  TIP3      H2            -35.7575966405      -10.5004322861      -11.3318396465  W2        10001           0.0000000000
     30004     10002  TIP3      OH2           -34.4861066405       -7.7588922861       -8.6905496465  W2        10002           0.0000000000
     30005     10002  TIP3      H1            -34.2727566405       -8.5287322861       -8.1632496465  W2        10002           0.0000000000
     30006     10002  TIP3      H2            -33.7483466405       -7.6692222861       -9.2937896465  W2        10002           0.0000000000
     30007     10003  TIP3      OH2           -24.2810066405        0.3979977139       -7.8235796465  W2        10003           0.0000000000
     30008     10003  TIP3      H1            -23.6613666405       -0.2785322861       -8.0966596465  W2        10003           0.0000000000
     30009     10003  TIP3      H2            -24.4892666405        0.1800777139       -6.9150896465  W2        10003           0.0000000000
     30010     10004  TIP3      OH2           -26.7091366405       -5.2130722861       -5.9310296465  W2        10004           0.0000000000
     30011     10004  TIP3      H1            -26.4053466405       -5.8989322861       -6.5256196465  W2        10004           0.0000000000
     30012     10004  TIP3      H2            -25.9877366405       -5.0942022861       -5.3132296465  W2        10004           0.0000000000
     30013     10005  TIP3      OH2           -18.0461566405      -13.6115422861       -5.0704096465  W2        10005           0.0000000000
     30014     10005  TIP3      H1            -17.9969366405      -13.0014222861       -4.3344996465  W2        10005           0.0000000000
     30015     10005  TIP3      H2            -17.6206466405      -13.1504522861       -5.7932996465  W2        10005           0.0000000000
     30016     10006  TIP3      OH2           -23.5684366405      -10.8188322861       -5.6035496465  W2        10006           0.0000000000
     30017     10006  TIP3      H1            -23.4258466405      -11.7651322861       -5.5833896465  W2        10006           0.0000000000
     30018     10006  TIP3      H2            -23.6745366405      -10.6118522861       -6.5320596465  W2        10006           0.0000000000
     30019     10007  TIP3      OH2           -30.4136066405      -12.7171922861       -8.3310696465  W2        10007           0.0000000000
     30020     10007  TIP3      H1            -30.3704966405      -11.8573422861       -8.7494396465  W2        10007           0.0000000000
     30021     10007  TIP3      H2            -30.8711966405      -13.2697222861       -8.9647496465  W2        10007           0.0000000000
     30022     10008  TIP3      OH2           -22.6913366405      -12.5866322861       -9.9302396465  W2        10008           0.0000000000
     30023     10008  TIP3      H1            -22.0449066405      -12.9153122861       -9.3054796465  W2        10008           0.0000000000
     30024     10008  TIP3      H2            -22.1813966405      -12.0687322861      -10.5530996465  W2        10008           0.0000000000
     30025     10009  TIP3      OH2           -33.7934566405      -10.3206122861       -7.5689296465  W2        10009           0.0000000000
     30026     10009  TIP3      H1            -33.1397966405      -10.8704422861       -7.1369196465  W2        10009           0.0000000000
     30027     10009  TIP3      H2            -33.7695266405      -10.5947122861       -8.4857296465  W2        10009           0.0000000000
     30028     10010  TIP3      OH2           -28.6370066405       -8.7704822861       -8.3537796465  W2        10010           0.0000000000
     30029     10010  TIP3      H1            -28.0209066405       -9.2969422861       -7.8443796465  W2        10010           0.0000000000
     30030     10010  TIP3      H2            -29.2231266405       -9.4106122861       -8.7574196465  W2        10010           0.0000000000
     30031     10011  TIP3      OH2           -17.6546966405      -12.1336222861       -2.8344296465  W2        10011           0.0000000000
     30032     10011  TIP3      H1            -18.3432366405      -11.4755522861       -2.9297696465  W2        10011           0.0000000000
     30033     10011  TIP3      H2            -17.6392366405      -12.3308322861       -1.8978896465  W2        10011           0.0000000000
     30034     10012  TIP3      OH2           -31.6034166405      -13.7993522861       -4.2569896465  W2        10012           0.0000000000
     30035     10012  TIP3      H1            -31.8222466405      -13.2692922861       -5.0233896465  W2        10012           0.0000000000
     30036     10012  TIP3      H2            -32.2713266405      -13.5728022861       -3.6098496465  W2        10012           0.0000000000
     30037     10013  TIP3      OH2           -24.2344366405       -4.2992422861      -10.7130796465  W2        10013           0.0000000000
     30038     10013  TIP3      H1            -24.5299266405       -4.6220122861      -11.5643896465  W2        10013           0.0000000000
     30039     10013  TIP3      H2            -24.5586566405       -3.3995722861      -10.6718196465  W2        10013           0.0000000000
     30040     10014  TIP3      OH2           -29.0342766405       -6.1237822861       -3.9696196465  W2        10014           0.0000000000
     30041     10014  TIP3      H1            -29.7743666405       -5.5256322861       -3.8660996465  W2        10014           0.0000000000
     30042     10014  TIP3      H2            -28.3203266405       -5.5698222861       -4.2852596465  W2        10014           0.0000000000
     30043     10015  TIP3      OH2           -20.9274966405      -13.2957022861       -7.9496496465  W2        10015           0.0000000000
     30044     10015  TIP3      H1            -21.1426966405      -14.0613622861       -7.4170496465  W2        10015           0.0000000000
     30045     10015  TIP3      H2            -20.2717566405      -12.8232422861       -7.4367996465  W2        10015           0.0000000000
     30046     10016  TIP3      OH2           -32.0096866405      -11.9071722861       -6.3047696465  W2        10016           0.0000000000
     30047     10016  TIP3      H1            -31.3960566405      -11.2744122861       -5.9315296465  W2        10016           0.0000000000
     30048     10016  TIP3      H2            -31.4976166405      -12.3796722861       -6.9610796465  W2        10016           0.0000000000
     30049     10017  TIP3      OH2           -30.6268466405       -4.1594822861       -3.1824696465  W2        10017           0.0000000000
     30050     10017  TIP3      H1            -30.6320866405       -3.2801322861       -3.5605396465  W2        10017           0.0000000000
     30051     10017  TIP3      H2            -31.4804366405       -4.2430722861       -2.7574796465  W2        10017           0.0000000000
     30052     10018  TIP3      OH2           -34.5057566405       -4.4886922861      -12.4005396465  W2        10018           0.0000000000
     30053     10018  TIP3      H1            -34.7776666405       -4.2595922861      -13.2892496465  W2        10018           0.0000000000
     30054     10018  TIP3      H2            -34.4601866405       -3.6508122861      -11.9400096465  W2        10018           0.0000000000
     30055     10019  TIP3      OH2           -20.8807866405       -2.8671022861       -5.6876896465  W2        10019           0.0000000000
     30056     10019  TIP3      H1            -21.8224166405       -2.8087122861       -5.5259996465  W2        10019           0.0000000000
     30057     10019  TIP3      H2            -20.6041766405       -1.9610522861       -5.8247196465  W2        10019           0.0000000000
     30058     10020  TIP3      OH2           -20.5800866405      -14.5805722861       -4.2702996465  W2        10020           0.0000000000
     30059     10020  TIP3      H1            -21.3161666405      -13.9698622861       -4.3081696465  W2        10020           0.0000000000
     30060     10020  TIP3      H2            -19.8966866405      -14.1656722861       -4.7966596465  W2        10020           0.0000000000
     30061     10021  TIP3      OH2           -27.5769466405      -16.4938422861       -6.8044996465  W2        10021           0.0000000000
     30062     10021  TIP3      H1            -27.6945266405      -17.4422422861       -6.8586696465  W2        10021           0.0000000000
     30063     10021  TIP3      H2            -28.4319366405      -16.1612322861       -6.5313896465  W2        10021           0.0000000000
     30064     10022  TIP3      OH2           -22.6286666405       -1.0857522861       -9.0625296465  W2        10022           0.0000000000
     30065     10022  TIP3      H1            -22.2034366405       -1.7929622861       -9.5475696465  W2        10022           0.0000000000
     30066     10022  TIP3      H2            -22.3116666405       -0.2844822861       -9.4793096465  W2        10022           0.0000000000
     30067     10023  TIP3      OH2           -21.4690166405       -3.1849022861      -10.5538696465  W2        10023           0.0000000000
     30068     10023  TIP3      H1            -21.7265366405       -3.8748922861      -11.1652796465  W2        10023           0.0000000000
     30069     10023  TIP3      H2            -21.3979366405       -3.6277822861       -9.7082796465  W2        10023           0.0000000000
     30070     10024  TIP3      OH2           -19.7829966405       -4.6182322861       -2.0765196465  W2        10024           0.0000000000
     30071     10024  TIP3      H1            -19.6433666405       -5.2099822861       -2.8158196465  W2        10024           0.0000000000
     30072     10024  TIP3      H2            -19.6157166405       -3.7456422861       -2.4326396465  W2        10024           0.0000000000
     30073     10025  TIP3      OH2           -25.3104566405       -7.6562822861      -12.3039196465  W2        10025           0.0000000000
     30074     10025  TIP3      H1            -26.0219066405       -7.1213122861      -12.6558696465  W2        10025           0.0000000000
     30075     10025  TIP3      H2            -24.6194966405       -7.6010722861      -12.9640296465  W2        10025           0.0000000000
     30076     10026  TIP3      OH2           -25.2565366405       -9.1988522861      -15.2654196465  W2        10026           0.0000000000
     30077     10026  TIP3      H1            -24.5555466405       -9.1761622861      -14.6140196465  W2        10026           0.0000000000
     30078     10026  TIP3      H2            -24.9542466405       -9.8268822861      -15.9214896465  W2        10026           0.0000000000
     30079     10027  TIP3      OH2           -17.9410666405       -8.2784322861       -4.0104796465  W2        10027           0.0000000000
     30080     10027  TIP3      H1            -18.5936566405       -7.5838722861       -3.9213896465  W2        10027           0.0000000000
     30081     10027  TIP3      H2            -17.4760366405       -8.0683422861       -4.8203196465  W2        10027           0.0000000000
     30082     10028  TIP3      OH2           -21.9046866405       -7.4469522861      -11.3523296465  W2        10028           0.0000000000
     30083     10028  TIP3      H1            -22.6365866405       -7.2185822861      -10.7792696465  W2        10028           0.0000000000
     30084     10028  TIP3      H2            -21.4574666405       -8.1606822861      -10.8975796465  W2        10028           0.0000000000
     30085     10029  TIP3      OH2           -22.0073366405       -9.2726922861       -2.2846296465  W2        10029           0.0000000000
     30086     10029  TIP3      H1            -21.9274266405       -8.5092522861       -1.7127796465  W2        10029           0.0000000000
     30087     10029  TIP3      H2            -22.6085666405       -8.9934522861       -2.9751196465  W2        10029           0.0000000000
     30088     10030  TIP3      OH2           -30.2593166405       -6.8163322861       -9.4698296465  W2        10030           0.0000000000
     30089     10030  TIP3      H1            -30.5897966405       -7.1869922861      -10.2881296465  W2        10030           0.0000000000
     30090     10030  TIP3      H2            -29.6709066405       -7.4869322861       -9.1229996465  W2        10030           0.0000000000
     30091     10031  TIP3      OH2           -28.8925666405       -3.3882722861       -6.7886096465  W2        10031           0.0000000000
     30092     10031  TIP3      H1            -28.9874366405       -3.9669622861       -7.5451496465  W2        10031           0.0000000000
     30093     10031  TIP3      H2            -28.1632066405       -3.7597022861       -6.2923296465  W2        10031           0.0000000000
     30094     10032  TIP3      OH2           -29.8927666405       -8.0477722861       -5.8363296465  W2        10032           0.0000000000
     30095     10032  TIP3      H1            -29.3275166405       -7.9263522861       -6.5992096465  W2        10032           0.0000000000
     30096     10032  TIP3      H2            -29.5738766405       -7.4102722861       -5.1974796465  W2        10032           0.0000000000
     30097     10033  TIP3      OH2           -23.5835466405       -2.5445822861       -5.1022796465  W2        10033           0.0000000000
     30098     10033  TIP3      H1            -23.8238866405       -1.8822722861       -4.4543596465  W2        10033           0.0000000000
     30099     10033  TIP3      H2            -23.7817266405       -3.3790622861       -4.6773196465  W2        10033           0.0000000000
     30100     10034  TIP3      OH2           -29.0126966405       -3.6485022861       -1.1191396465  W2        10034           0.0000000000
     30101     10034  TIP3      H1            -29.3239466405       -2.8661822861       -0.6638196465  W2        10034           0.0000000000
     30102     10034  TIP3      H2            -29.6626766405       -3.8015922861       -1.8049396465  W2        10034           0.0000000000
     30103     10035  TIP3      OH2           -23.0337366405       -8.2846622861      -13.6672096465  W2        10035           0.0000000000
     30104     10035  TIP3      H1            -22.4541866405       -8.1346322861      -12.9203196465  W2        10035           0.0000000000
     30105     10035  TIP3      H2            -22.6197366405       -7.8139222861      -14.3905696465  W2        10035           0.0000000000
     30106     10036  TIP3      OH2           -32.0927066405       -7.4503922861       -1.8905696465  W2        10036           0.0000000000
     30107     10036  TIP3      H1            -32.0223866405       -6.7997122861       -1.1920696465  W2        10036           0.0000000000
     30108     10036  TIP3      H2            -32.9834866405       -7.3476422861       -2.2254796465  W2        10036           0.0000000000
     30109     10037  TIP3      OH2           -25.3072466405       -1.5478122861      -10.2318996465  W2        10037           0.0000000000
     30110     10037  TIP3      H1            -24.8334866405       -1.2521822861       -9.4544796465  W2        10037           0.0000000000
     30111     10037  TIP3      H2            -25.8703166405       -0.8096522861      -10.4649396465  W2        10037           0.0000000000
     30112     10038  TIP3      OH2           -30.7731066405       -1.5770022861       -0.3557596465  W2        10038           0.0000000000
     30113     10038  TIP3      H1            -30.7655766405       -1.7130322861       -1.3032096465  W2        10038           0.0000000000
     30114     10038  TIP3      H2            -31.6890666405       -1.6941922861       -0.1037596465  W2        10038           0.0000000000
     30115     10039  TIP3      OH2           -19.3348966405      -16.5346222861      -13.8542396465  W2        10039           0.0000000000
     30116     10039  TIP3      H1            -20.2348266405      -16.3957222861      -13.5591796465  W2        10039           0.0000000000
     30117     10039  TIP3      H2            -19.0830566405      -15.7031622861      -14.2560696465  W2        10039           0.0000000000
     30118     10040  TIP3      OH2           -31.2690466405       -7.7469022861      -11.8805496465  W2        10040           0.0000000000
     30119     10040  TIP3      H1            -31.5609166405       -6.9787322861      -12.3714196465  W2        10040           0.0000000000
     30120     10040  TIP3      H2            -31.9435266405       -8.4062822861      -12.0434096465  W2        10040           0.0000000000
     30121     10041  TIP3      OH2           -18.1457566405       -2.1683822861      -15.4778496465  W2        10041           0.0000000000
     30122     10041  TIP3      H1            -18.0724066405       -1.2293622861      -15.3073196465  W2        10041           0.0000000000
     30123     10041  TIP3      H2            -17.2402466405       -2.4735222861      -15.5341196465  W2        10041           0.0000000000
     30124     10042  TIP3      OH2           -35.1760366405       -5.3839822861       -3.0655696465  W2        10042           0.0000000000
     30125     10042  TIP3      H1            -35.6771966405       -5.4120422861       -3.8805996465  W2        10042           0.0000000000
     30126     10042  TIP3      H2            -35.1706666405       -6.2896622861       -2.7558396465  W2        10042           0.0000000000
     30127     10043  TIP3      OH2           -35.4257666405       -2.6036022861       -6.1815496465  W2        10043           0.0000000000
     30128     10043  TIP3      H1            -34.4797066405       -2.7479022861       -6.2005996465  W2        10043           0.0000000000
     30129     10043  TIP3      H2            -35.5381366405       -1.8193222861       -5.6444296465  W2        10043           0.0000000000
     30130     10044  TIP3      OH2           -17.2279166405       -1.9376322861       -0.4991796465  W2        10044           0.0000000000
     30131     10044  TIP3      H1            -17.2772366405       -2.8928222861       -0.5364196465  W2        10044           0.0000000000
     30132     10044  TIP3      H2            -18.0546866405       -1.6701022861       -0.0977996465  W2        10044           0.0000000000
     30133     10045  TIP3      OH2           -26.2495166405       -2.3637122861       -1.6230396465  W2        10045           0.0000000000
     30134     10045  TIP3      H1            -26.1620566405       -1.5372522861       -1.1481296465  W2        10045           0.0000000000
     30135     10045  TIP3      H2            -27.1130066405       -2.6933322861       -1.3741096465  W2        10045           0.0000000000
     30136     10046  TIP3      OH2           -25.8349366405        1.4086577139      -11.8169796465  W2        10046           0.0000000000
     30137     10046  TIP3      H1            -25.9103366405        1.2873777139      -12.7634596465  W2        10046           0.0000000000
     30138     10046  TIP3      H2            -25.8020666405        2.3579277139      -11.6985196465  W2        10046           0.0000000000
     30139     10047  TIP3      OH2           -32.1815566405        0.1973577139      -10.0360796465  W2        10047           0.0000000000
     30140     10047  TIP3      H1            -32.0295166405       -0.1506022861       -9.1574296465  W2        10047           0.0000000000
     30141     10047  TIP3      H2            -33.0325166405       -0.1589122861      -10.2913596465  W2        10047           0.0000000000
     30142     10048  TIP3      OH2           -22.7333366405        0.5626777139      -14.8147396465  W2        10048           0.0000000000
     30143     10048  TIP3      H1            -22.3584966405       -0.1817122861      -15.2854796465  W2        10048           0.0000000000
     30144     10048  TIP3      H2            -22.7289666405        0.2927377139      -13.8964096465  W2        10048           0.0000000000
     30145     10049  TIP3      OH2           -23.0645266405        0.4883877139      -12.0655196465  W2        10049           0.0000000000
     30146     10049  TIP3      H1            -23.9995466405        0.5885777139      -11.8868196465  W2        10049           0.0000000000
     30147     10049  TIP3      H2            -22.7843366405       -0.2210122861      -11.4871996465  W2        10049           0.0000000000
     30148     10050  TIP3      OH2           -20.0759366405      -10.4443822861       -0.0189596465  W2        10050           0.0000000000
     30149     10050  TIP3      H1            -20.4832566405       -9.9638222861       -0.7396296465  W2        10050           0.0000000000
     30150     10050  TIP3      H2            -20.0353666405      -11.3497822861       -0.3268796465  W2        10050           0.0000000000
     30151     10051  TIP3      OH2           -32.9269866405       -4.0604422861       -2.0222896465  W2        10051           0.0000000000
     30152     10051  TIP3      H1            -32.7108566405       -4.4218822861       -1.1627096465  W2        10051           0.0000000000
     30153     10051  TIP3      H2            -33.7825166405       -4.4350622861       -2.2319396465  W2        10051           0.0000000000
     30154     10052  TIP3      OH2           -30.3081866405      -15.5903922861       -6.0268696465  W2        10052           0.0000000000
     30155     10052  TIP3      H1            -31.1698166405      -15.6775722861       -6.4345796465  W2        10052           0.0000000000
     30156     10052  TIP3      H2            -30.3306166405      -14.7343822861       -5.5991096465  W2        10052           0.0000000000
     30157     10053  TIP3      OH2           -25.6454066405      -15.8683522861       -2.6521696465  W2        10053           0.0000000000
     30158     10053  TIP3      H1            -25.2250966405      -16.2836422861       -1.8991096465  W2        10053           0.0000000000
     30159     10053  TIP3      H2            -26.5784466405      -16.0470222861       -2.5349696465  W2        10053           0.0000000000
     30160     10054  TIP3      OH2           -22.3189166405      -12.1128322861       -1.7987196465  W2        10054           0.0000000000
     30161     10054  TIP3      H1            -22.8329666405      -12.2386122861       -1.0011196465  W2        10054           0.0000000000
     30162     10054  TIP3      H2            -22.4744466405      -11.2005222861       -2.0430996465  W2        10054           0.0000000000
     30163     10055  TIP3      OH2           -21.5564266405       -7.2518322861      -16.0374196465  W2        10055           0.0000000000
     30164     10055  TIP3      H1            -21.5143466405       -7.4744422861      -16.9674196465  W2        10055           0.0000000000
     30165     10055  TIP3      H2            -20.7072166405       -6.8531222861      -15.8474296465  W2        10055           0.0000000000
     30166     10056  TIP3      OH2           -25.9836766405      -13.3760122861      -15.3670896465  W2        10056           0.0000000000
     30167     10056  TIP3      H1            -26.2371966405      -13.3568522861      -14.4442796465  W2        10056           0.0000000000
     30168     10056  TIP3      H2            -26.2404666405      -14.2474722861      -15.6684696465  W2        10056           0.0000000000
     30169     10057  TIP3      OH2           -30.2171766405      -10.6249422861       -4.9318496465  W2        10057           0.0000000000
     30170     10057  TIP3      H1            -30.8589666405      -10.6652122861       -4.2228396465  W2        10057           0.0000000000
     30171     10057  TIP3      H2            -30.1799766405       -9.6984722861       -5.1695496465  W2        10057           0.0000000000
     30172     10058  TIP3      OH2           -30.2202666405      -10.4039322861      -10.0198496465  W2        10058           0.0000000000
     30173     10058  TIP3      H1            -31.1129766405      -10.7443222861      -10.0784696465  W2        10058           0.0000000000
     30174     10058  TIP3      H2            -29.7696066405      -10.7808422861      -10.7755296465  W2        10058           0.0000000000
     30175     10059  TIP3      OH2           -24.6847166405       -9.9879022861      -11.2027696465  W2        10059           0.0000000000
     30176     10059  TIP3      H1            -25.0936866405       -9.1730422861      -11.4942896465  W2        10059           0.0000000000
     30177     10059  TIP3      H2            -23.9640966405      -10.1278922861      -11.8170596465  W2        10059           0.0000000000
     30178     10060  TIP3      OH2           -25.5825566405       -9.8122622861        0.2853003535  W2        10060           0.0000000000
     30179     10060  TIP3      H1            -26.1451766405      -10.5171022861        0.6060803535  W2        10060           0.0000000000
     30180     10060  TIP3      H2            -24.7562166405       -9.9330722861        0.7530603535  W2        10060           0.0000000000
     30181     10061  TIP3      OH2           -23.6799466405      -10.5418622861       -8.3887996465  W2        10061           0.0000000000
     30182     10061  TIP3      H1            -23.8754966405       -9.9361822861       -9.1037396465  W2        10061           0.0000000000
     30183     10061  TIP3      H2            -23.4986866405      -11.3753422861       -8.8231696465  W2        10061           0.0000000000
     30184     10062  TIP3      OH2           -32.4671266405      -10.3045922861       -3.0646496465  W2        10062           0.0000000000
     30185     10062  TIP3      H1            -32.5051866405       -9.9044322861       -2.1959396465  W2        10062           0.0000000000
     30186     10062  TIP3      H2            -32.9580166405      -11.1213522861       -2.9743596465  W2        10062           0.0000000000
     30187     10063  TIP3      OH2           -29.1013866405      -12.9303622861      -16.2660496465  W2        10063           0.0000000000
     30188     10063  TIP3      H1            -29.5323166405      -13.3753522861      -15.5363096465  W2        10063           0.0000000000
     30189     10063  TIP3      H2            -29.8195166405      -12.5587322861      -16.7782996465  W2        10063           0.0000000000
     30190     10064  TIP3      OH2           -35.8590466405      -13.1884122861       -9.2141796465  W2        10064           0.0000000000
     30191     10064  TIP3      H1            -35.2282766405      -13.2172022861       -8.4947896465  W2        10064           0.0000000000
     30192     10064  TIP3      H2            -35.4096166405      -13.6135422861       -9.9445896465  W2        10064           0.0000000000
     30193     10065  TIP3      OH2           -34.5848366405      -12.4422122861      -13.7901396465  W2        10065           0.0000000000
     30194     10065  TIP3      H1            -34.1106666405      -11.8512222861      -14.3750496465  W2        10065           0.0000000000
     30195     10065  TIP3      H2            -35.3021966405      -11.9119222861      -13.4431296465  W2        10065           0.0000000000
     30196     10066  TIP3      OH2           -24.4160266405       -8.9037322861       -3.7175596465  W2        10066           0.0000000000
     30197     10066  TIP3      H1            -24.0925466405       -9.5347622861       -4.3605096465  W2        10066           0.0000000000
     30198     10066  TIP3      H2            -24.8560966405       -9.4385122861       -3.0568196465  W2        10066           0.0000000000
     30199     10067  TIP3      OH2           -27.6387366405      -12.9761822861       -8.9334396465  W2        10067           0.0000000000
     30200     10067  TIP3      H1            -28.5496266405      -12.9195022861       -8.6448396465  W2        10067           0.0000000000
     30201     10067  TIP3      H2            -27.1334466405      -13.0366322861       -8.1227196465  W2        10067           0.0000000000
     30202     10068  TIP3      OH2           -32.8103966405      -11.3475522861      -10.1066796465  W2        10068           0.0000000000
     30203     10068  TIP3      H1            -33.6995966405      -11.2480022861      -10.4467196465  W2        10068           0.0000000000
     30204     10068  TIP3      H2            -32.5139066405      -12.1892522861      -10.4528896465  W2        10068           0.0000000000
     30205     10069  TIP3      OH2           -29.1572166405      -11.3472922861      -12.4502196465  W2        10069           0.0000000000
     30206     10069  TIP3      H1            -28.2256666405      -11.2182922861      -12.2719096465  W2        10069           0.0000000000
     30207     10069  TIP3      H2            -29.3721866405      -10.6778622861      -13.0997496465  W2        10069           0.0000000000
     30208     10070  TIP3      OH2           -23.2335466405      -13.7415522861       -5.6692596465  W2        10070           0.0000000000
     30209     10070  TIP3      H1            -23.9103866405      -13.6102422861       -5.0052896465  W2        10070           0.0000000000
     30210     10070  TIP3      H2            -23.7190566405      -13.8966022861       -6.4794896465  W2        10070           0.0000000000
     30211     10071  TIP3      OH2           -30.4831966405      -10.1530722861      -14.8836096465  W2        10071           0.0000000000
     30212     10071  TIP3      H1            -31.0256866405      -10.5326922861      -15.5748496465  W2        10071           0.0000000000
     30213     10071  TIP3      H2            -29.6497066405       -9.9586022861      -15.3121996465  W2        10071           0.0000000000
     30214     10072  TIP3      OH2           -19.9460366405        1.9299877139        0.6075003535  W2        10072           0.0000000000
     30215     10072  TIP3      H1            -19.7461666405        2.3541777139       -0.2269696465  W2        10072           0.0000000000
     30216     10072  TIP3      H2            -19.2906666405        2.2738077139        1.2145403535  W2        10072           0.0000000000
     30217     10073  TIP3      OH2           -32.3480566405       -5.5958822861        0.2155503535  W2        10073           0.0000000000
     30218     10073  TIP3      H1            -31.6158166405       -5.3412922861        0.7770003535  W2        10073           0.0000000000
     30219     10073  TIP3      H2            -33.1281866405       -5.3913422861        0.7310903535  W2        10073           0.0000000000
     30220     10074  TIP3      OH2           -26.3187666405      -10.1888822861       -7.0464796465  W2        10074           0.0000000000
     30221     10074  TIP3      H1            -25.7544266405      -10.7352222861       -7.5935196465  W2        10074           0.0000000000
     30222     10074  TIP3      H2            -26.4664266405      -10.7106922861       -6.2577196465  W2        10074           0.0000000000
     30223     10075  TIP3      OH2           -31.3167966405      -14.0522722861      -10.6279996465  W2        10075           0.0000000000
     30224     10075  TIP3      H1            -31.6338466405      -14.9547422861      -10.6634596465  W2        10075           0.0000000000
     30225     10075  TIP3      H2            -30.5353866405      -14.0505322861      -11.1808396465  W2        10075           0.0000000000
     30226     10076  TIP3      OH2           -27.6921766405      -11.8002722861       -4.6324396465  W2        10076           0.0000000000
     30227     10076  TIP3      H1            -28.5276466405      -11.3463222861       -4.5221996465  W2        10076           0.0000000000
     30228     10076  TIP3      H2            -27.1681166405      -11.5244222861       -3.8804496465  W2        10076           0.0000000000
     30229     10077  TIP3      OH2           -27.1479166405       -5.5875022861      -12.9477996465  W2        10077           0.0000000000
     30230     10077  TIP3      H1            -27.8928166405       -6.0949722861      -13.2700096465  W2        10077           0.0000000000
     30231     10077  TIP3      H2            -27.2821966405       -5.5387022861      -12.0013196465  W2        10077           0.0000000000
     30232     10078  TIP3      OH2           -19.9980266405       -6.4546822861       -4.1610396465  W2        10078           0.0000000000
     30233     10078  TIP3      H1            -19.3561466405       -5.9980522861       -4.7048196465  W2        10078           0.0000000000
     30234     10078  TIP3      H2            -20.8283366405       -6.3414422861       -4.6236296465  W2        10078           0.0000000000
     30235     10079  TIP3      OH2           -23.2502366405      -12.7735122861      -14.7485396465  W2        10079           0.0000000000
     30236     10079  TIP3      H1            -24.1888166405      -12.6619522861      -14.8996596465  W2        10079           0.0000000000
     30237     10079  TIP3      H2            -22.9530266405      -11.9168222861      -14.4419696465  W2        10079           0.0000000000
     30238     10080  TIP3      OH2           -25.6287066405       -5.4031722861       -1.7108896465  W2        10080           0.0000000000
     30239     10080  TIP3      H1            -25.9740966405       -5.7849322861       -0.9039296465  W2        10080           0.0000000000
     30240     10080  TIP3      H2            -25.8286966405       -4.4698122861       -1.6395996465  W2        10080           0.0000000000
     30241     10081  TIP3      OH2           -22.5318866405      -10.9062422861      -13.0877996465  W2        10081           0.0000000000
     30242     10081  TIP3      H1            -21.6399866405      -11.0437422861      -12.7686796465  W2        10081           0.0000000000
     30243     10081  TIP3      H2            -22.4755266405      -10.1156322861      -13.6244496465  W2        10081           0.0000000000
     30244     10082  TIP3      OH2           -32.0230866405       -6.2925022861       -7.1780096465  W2        10082           0.0000000000
     30245     10082  TIP3      H1            -31.2783666405       -6.2949322861       -7.7793596465  W2        10082           0.0000000000
     30246     10082  TIP3      H2            -31.9454266405       -7.1161222861       -6.6964996465  W2        10082           0.0000000000
     30247     10083  TIP3      OH2           -25.0225066405       -4.1290722861      -13.9223396465  W2        10083           0.0000000000
     30248     10083  TIP3      H1            -25.3176666405       -3.3022822861      -13.5408596465  W2        10083           0.0000000000
     30249     10083  TIP3      H2            -25.7255066405       -4.7483822861      -13.7261996465  W2        10083           0.0000000000
     30250     10084  TIP3      OH2           -35.0151166405       -7.8318122861       -1.8631596465  W2        10084           0.0000000000
     30251     10084  TIP3      H1            -34.7922566405       -8.2498522861       -1.0314096465  W2        10084           0.0000000000
     30252     10084  TIP3      H2            -35.6171066405       -8.4443122861       -2.2858796465  W2        10084           0.0000000000
     30253     10085  TIP3      OH2           -27.9986266405       -8.3148222861        0.3498103535  W2        10085           0.0000000000
     30254     10085  TIP3      H1            -28.2945466405       -8.4805222861       -0.5452796465  W2        10085           0.0000000000
     30255     10085  TIP3      H2            -27.0671066405       -8.5347922861        0.3392003535  W2        10085           0.0000000000
     30256     10086  TIP3      OH2           -23.3783466405       -2.9416222861       -1.7603896465  W2        10086           0.0000000000
     30257     10086  TIP3      H1            -24.2789166405       -2.7583622861       -2.0279996465  W2        10086           0.0000000000
     30258     10086  TIP3      H2            -23.3442366405       -2.6826922861       -0.8395096465  W2        10086           0.0000000000
     30259     10087  TIP3      OH2           -17.6470166405      -10.6968322861      -13.3931296465  W2        10087           0.0000000000
     30260     10087  TIP3      H1            -18.2013866405      -11.0930322861      -14.0653796465  W2        10087           0.0000000000
     30261     10087  TIP3      H2            -17.5466566405       -9.7863122861      -13.6707996465  W2        10087           0.0000000000
     30262     10088  TIP3      OH2           -17.6838166405       -4.8966622861       -0.5559796465  W2        10088           0.0000000000
     30263     10088  TIP3      H1            -18.5349666405       -4.6582822861       -0.9233396465  W2        10088           0.0000000000
     30264     10088  TIP3      H2            -17.0934766405       -4.9133422861       -1.3092696465  W2        10088           0.0000000000
     30265     10089  TIP3      OH2           -19.3518466405       -1.9107922861      -12.9279196465  W2        10089           0.0000000000
     30266     10089  TIP3      H1            -19.7247366405       -2.7364122861      -12.6188596465  W2        10089           0.0000000000
     30267     10089  TIP3      H2            -19.0744966405       -2.0938522861      -13.8255796465  W2        10089           0.0000000000
     30268     10090  TIP3      OH2           -22.1914566405       -7.1028422861       -5.9067296465  W2        10090           0.0000000000
     30269     10090  TIP3      H1            -23.1197666405       -7.3346522861       -5.9337996465  W2        10090           0.0000000000
     30270     10090  TIP3      H2            -21.7403466405       -7.8798622861       -6.2368496465  W2        10090           0.0000000000
     30271     10091  TIP3      OH2           -29.6481466405       -2.7746822861       -9.7738596465  W2        10091           0.0000000000
     30272     10091  TIP3      H1            -29.1209266405       -2.0012422861       -9.9739796465  W2        10091           0.0000000000
     30273     10091  TIP3      H2            -30.5282966405       -2.5497622861      -10.0754596465  W2        10091           0.0000000000
     30274     10092  TIP3      OH2           -33.8933766405       -7.9122722861      -15.1866196465  W2        10092           0.0000000000
     30275     10092  TIP3      H1            -33.2773866405       -7.2855522861      -14.8071396465  W2        10092           0.0000000000
     30276     10092  TIP3      H2            -34.7551166405       -7.5962922861      -14.9149696465  W2        10092           0.0000000000
     30277     10093  TIP3      OH2           -28.2209166405       -5.1116922861      -10.1974296465  W2        10093           0.0000000000
     30278     10093  TIP3      H1            -28.4619166405       -4.1862522861      -10.1558996465  W2        10093           0.0000000000
     30279     10093  TIP3      H2            -28.9615566405       -5.5705622861       -9.8010396465  W2        10093           0.0000000000
     30280     10094  TIP3      OH2           -27.7062566405       -0.9623322861       -3.8823196465  W2        10094           0.0000000000
     30281     10094  TIP3      H1            -27.3437866405       -0.1077722861       -4.1158796465  W2        10094           0.0000000000
     30282     10094  TIP3      H2            -27.1747366405       -1.2541722861       -3.1416896465  W2        10094           0.0000000000
     30283     10095  TIP3      OH2           -29.5378366405       -0.0899322861      -10.6522096465  W2        10095           0.0000000000
     30284     10095  TIP3      H1            -30.4877866405        0.0158077139      -10.6008796465  W2        10095           0.0000000000
     30285     10095  TIP3      H2            -29.1860266405        0.7308077139      -10.3074596465  W2        10095           0.0000000000
     30286     10096  TIP3      OH2           -24.1621766405       -4.8632622861       -4.1817596465  W2        10096           0.0000000000
     30287     10096  TIP3      H1            -24.5880466405       -5.0910922861       -3.3553596465  W2        10096           0.0000000000
     30288     10096  TIP3      H2            -23.5815966405       -5.6020822861       -4.3642296465  W2        10096           0.0000000000
     30289     10097  TIP3      OH2           -21.9592866405       -3.9342122861      -15.1078596465  W2        10097           0.0000000000
     30290     10097  TIP3      H1            -21.6059766405       -4.3142322861      -14.3035096465  W2        10097           0.0000000000
     30291     10097  TIP3      H2            -22.9079366405       -4.0277322861      -15.0209296465  W2        10097           0.0000000000
     30292     10098  TIP3      OH2           -21.5037566405       -0.3113122861       -1.7122796465  W2        10098           0.0000000000
     30293     10098  TIP3      H1            -22.1054366405       -0.8670222861       -2.2076496465  W2        10098           0.0000000000
     30294     10098  TIP3      H2            -21.2223866405        0.3556677139       -2.3385396465  W2        10098           0.0000000000
     30295     10099  TIP3      OH2           -17.4558466405        0.5450377139      -14.9068396465  W2        10099           0.0000000000
     30296     10099  TIP3      H1            -16.7120566405        1.1310877139      -15.0466796465  W2        10099           0.0000000000
     30297     10099  TIP3      H2            -18.1500366405        1.1136177139      -14.5735996465  W2        10099           0.0000000000
     30298     10100  TIP3      OH2           -33.3811666405      -13.0785422861       -2.3050196465  W2        10100           0.0000000000
     30299     10100  TIP3      H1            -34.2739366405      -12.7400022861       -2.3726196465  W2        10100           0.0000000000
     30300     10100  TIP3      H2            -33.4798866405      -13.9339322861       -1.8869396465  W2        10100           0.0000000000
     30301     10101  TIP3      OH2           -21.0933566405       -5.2620122861      -12.8810696465  W2        10101           0.0000000000
     30302     10101  TIP3      H1            -21.3705966405       -5.9900822861      -12.3249596465  W2        10101           0.0000000000
     30303     10101  TIP3      H2            -20.1660566405       -5.1428122861      -12.6758096465  W2        10101           0.0000000000
     30304     10102  TIP3      OH2           -33.7299666405       -1.2741022861       -3.8700796465  W2        10102           0.0000000000
     30305     10102  TIP3      H1            -33.5129366405       -2.2058622861       -3.9011096465  W2        10102           0.0000000000
     30306     10102  TIP3      H2            -33.4836166405       -0.9996022861       -2.9867996465  W2        10102           0.0000000000
     30307     10103  TIP3      OH2           -27.8685066405       -2.8226022861      -16.6608596465  W2        10103           0.0000000000
     30308     10103  TIP3      H1            -27.6295266405       -3.5707922861      -17.2079696465  W2        10103           0.0000000000
     30309     10103  TIP3      H2            -28.1373766405       -3.2104322861      -15.8280796465  W2        10103           0.0000000000
     30310     10104  TIP3      OH2           -28.9314466405       -3.2522222861      -14.2045996465  W2        10104           0.0000000000
     30311     10104  TIP3      H1            -28.7846466405       -3.7722422861      -13.4145096465  W2        10104           0.0000000000
     30312     10104  TIP3      H2            -28.9342766405       -2.3454622861      -13.8980096465  W2        10104           0.0000000000
     30313     10105  TIP3      OH2           -32.4783366405       -5.9998922861      -13.6940596465  W2        10105           0.0000000000
     30314     10105  TIP3      H1            -33.1644066405       -5.6476422861      -13.1270896465  W2        10105           0.0000000000
     30315     10105  TIP3      H2            -31.9555466405       -5.2369322861      -13.9406296465  W2        10105           0.0000000000
     30316     10106  TIP3      OH2           -24.6468266405      -13.3375122861       -3.4151596465  W2        10106           0.0000000000
     30317     10106  TIP3      H1            -23.9480366405      -13.2636422861       -2.7651896465  W2        10106           0.0000000000
     30318     10106  TIP3      H2            -25.0276866405      -14.2020122861       -3.2608696465  W2        10106           0.0000000000
     30319     10107  TIP3      OH2           -23.8623366405      -13.6853422861      -12.3179296465  W2        10107           0.0000000000
     30320     10107  TIP3      H1            -23.6425066405      -13.2138022861      -13.1213896465  W2        10107           0.0000000000
     30321     10107  TIP3      H2            -23.3039366405      -13.2910822861      -11.6478696465  W2        10107           0.0000000000
     30322     10108  TIP3      OH2           -26.1937266405       -1.5548622861      -13.4551796465  W2        10108           0.0000000000
     30323     10108  TIP3      H1            -27.0101166405       -1.0578922861      -13.4027496465  W2        10108           0.0000000000
     30324     10108  TIP3      H2            -25.6640966405       -1.0795122861      -14.0952996465  W2        10108           0.0000000000
     30325     10109  TIP3      OH2           -26.6623466405      -11.9574622861      -11.4830896465  W2        10109           0.0000000000
     30326     10109  TIP3      H1            -25.8500866405      -11.4531422861      -11.4369196465  W2        10109           0.0000000000
     30327     10109  TIP3      H2            -26.9070466405      -12.1024922861      -10.5691296465  W2        10109           0.0000000000
     30328     10110  TIP3      OH2           -26.1267066405      -10.9711922861       -2.2984296465  W2        10110           0.0000000000
     30329     10110  TIP3      H1            -26.0076766405      -10.3976522861       -1.5413896465  W2        10110           0.0000000000
     30330     10110  TIP3      H2            -25.4712466405      -11.6592522861       -2.1836496465  W2        10110           0.0000000000
     30331     10111  TIP3      OH2           -25.7786766405      -14.8761622861      -10.5449796465  W2        10111           0.0000000000
     30332     10111  TIP3      H1            -26.1253266405      -14.2591022861       -9.9005496465  W2        10111           0.0000000000
     30333     10111  TIP3      H2            -25.1199866405      -14.3755922861      -11.0264296465  W2        10111           0.0000000000
     30334     10112  TIP3      OH2           -28.8554166405       -0.5111422861      -13.4734896465  W2        10112           0.0000000000
     30335     10112  TIP3      H1            -28.6945466405        0.2886077139      -13.9742296465  W2        10112           0.0000000000
     30336     10112  TIP3      H2            -29.0526366405       -0.2045422861      -12.5884296465  W2        10112           0.0000000000
     30337     10113  TIP3      OH2           -30.1209766405      -13.8132222861      -13.8577296465  W2        10113           0.0000000000
     30338     10113  TIP3      H1            -30.2044966405      -12.9249122861      -13.5110896465  W2        10113           0.0000000000
     30339     10113  TIP3      H2            -29.2309466405      -14.0785522861      -13.6260496465  W2        10113           0.0000000000
     30340     10114  TIP3      OH2           -19.9221266405      -13.0641622861       -1.4634596465  W2        10114           0.0000000000
     30341     10114  TIP3      H1            -20.8385466405      -12.8019922861       -1.5510896465  W2        10114           0.0000000000
     30342     10114  TIP3      H2            -19.5866266405      -13.0672622861       -2.3599296465  W2        10114           0.0000000000
     30343     10115  TIP3      OH2           -21.3200266405       -9.3140622861       -7.3677296465  W2        10115           0.0000000000
     30344     10115  TIP3      H1            -22.1175866405       -9.7290422861       -7.6962296465  W2        10115           0.0000000000
     30345     10115  TIP3      H2            -20.8749166405      -10.0046922861       -6.8766796465  W2        10115           0.0000000000
     30346     10116  TIP3      OH2           -31.8624466405       -3.3860022861      -14.7972796465  W2        10116           0.0000000000
     30347     10116  TIP3      H1            -31.2702966405       -2.6865222861      -14.5210396465  W2        10116           0.0000000000
     30348     10116  TIP3      H2            -31.4031466405       -3.8190522861      -15.5168196465  W2        10116           0.0000000000
     30349     10117  TIP3      OH2           -33.5465266405      -10.7217022861      -15.6813396465  W2        10117           0.0000000000
     30350     10117  TIP3      H1            -33.5912666405       -9.7823922861      -15.5026396465  W2        10117           0.0000000000
     30351     10117  TIP3      H2            -34.4342066405      -10.9572122861      -15.9511296465  W2        10117           0.0000000000
     30352     10118  TIP3      OH2           -20.2335666405       -0.0578122861       -5.7453796465  W2        10118           0.0000000000
     30353     10118  TIP3      H1            -20.3891366405        0.6206277139       -6.4024496465  W2        10118           0.0000000000
     30354     10118  TIP3      H2            -19.3009266405        0.0141177139       -5.5423196465  W2        10118           0.0000000000
     30355     10119  TIP3      OH2           -32.7383266405      -15.9400422861       -7.0082396465  W2        10119           0.0000000000
     30356     10119  TIP3      H1            -32.9673466405      -15.8807922861       -7.9357396465  W2        10119           0.0000000000
     30357     10119  TIP3      H2            -33.1809866405      -16.7314922861       -6.7018296465  W2        10119           0.0000000000
     30358     10120  TIP3      OH2           -33.8079966405       -1.9993322861      -10.8476596465  W2        10120           0.0000000000
     30359     10120  TIP3      H1            -34.6401366405       -1.5270622861      -10.8205196465  W2        10120           0.0000000000
     30360     10120  TIP3      H2            -33.2621666405       -1.4895722861      -11.4463496465  W2        10120           0.0000000000
     30361     10121  TIP3      OH2           -34.5196266405        0.6130377139        0.4821403535  W2        10121           0.0000000000
     30362     10121  TIP3      H1            -33.9794066405        0.3964377139        1.2420603535  W2        10121           0.0000000000
     30363     10121  TIP3      H2            -35.0008266405       -0.1923622861        0.2923903535  W2        10121           0.0000000000
     30364     10122  TIP3      OH2           -29.9222866405       -0.4675222861        2.1025603535  W2        10122           0.0000000000
     30365     10122  TIP3      H1            -29.1545666405       -0.9264422861        2.4434803535  W2        10122           0.0000000000
     30366     10122  TIP3      H2            -29.9436666405       -0.6935422861        1.1726803535  W2        10122           0.0000000000
     30367     10123  TIP3      OH2           -25.8303266405       -0.9594622861      -16.5222596465  W2        10123           0.0000000000
     30368     10123  TIP3      H1            -26.4742266405       -1.5906022861      -16.2008896465  W2        10123           0.0000000000
     30369     10123  TIP3      H2            -25.0684966405       -1.4906622861      -16.7539096465  W2        10123           0.0000000000
     30370     10124  TIP3      OH2           -23.3454166405       -2.0874122861        0.8317103535  W2        10124           0.0000000000
     30371     10124  TIP3      H1            -23.6964666405       -2.9441122861        1.0747503535  W2        10124           0.0000000000
     30372     10124  TIP3      H2            -22.6190966405       -1.9447422861        1.4386103535  W2        10124           0.0000000000
     30373     10125  TIP3      OH2           -21.2260366405       -1.1424722861      -16.2884596465  W2        10125           0.0000000000
     30374     10125  TIP3      H1            -20.9429966405       -1.9369522861      -15.8357696465  W2        10125           0.0000000000
     30375     10125  TIP3      H2            -20.4862466405       -0.9093722861      -16.8493496465  W2        10125           0.0000000000
     30376     10126  TIP3      OH2           -34.6126766405       -5.5765522861        1.4365703535  W2        10126           0.0000000000
     30377     10126  TIP3      H1            -34.4686266405       -6.4784822861        1.1502403535  W2        10126           0.0000000000
     30378     10126  TIP3      H2            -35.3849366405       -5.2903422861        0.9488003535  W2        10126           0.0000000000
     30379     10127  TIP3      OH2           -30.2713066405       -5.2329822861      -16.4309696465  W2        10127           0.0000000000
     30380     10127  TIP3      H1            -30.2068966405       -6.0270222861      -15.9003296465  W2        10127           0.0000000000
     30381     10127  TIP3      H2            -29.6183866405       -5.3517022861      -17.1207696465  W2        10127           0.0000000000
     30382     10128  TIP3      OH2           -27.9570666405       -5.6067422861        0.8692103535  W2        10128           0.0000000000
     30383     10128  TIP3      H1            -28.2856866405       -5.3359322861        0.0119503535  W2        10128           0.0000000000
     30384     10128  TIP3      H2            -27.8052466405       -6.5477622861        0.7817103535  W2        10128           0.0000000000
     30385     10129  TIP3      OH2           -24.9189666405       -4.1858122861      -16.6951696465  W2        10129           0.0000000000
     30386     10129  TIP3      H1            -25.1875566405       -4.0056022861      -15.7942796465  W2        10129           0.0000000000
     30387     10129  TIP3      H2            -25.1254066405       -5.1111922861      -16.8265896465  W2        10129           0.0000000000
     30388     10130  TIP3      OH2           -22.2225466405       -5.6910122861       -1.7475596465  W2        10130           0.0000000000
     30389     10130  TIP3      H1            -21.4770666405       -5.1026422861       -1.8671596465  W2        10130           0.0000000000
     30390     10130  TIP3      H2            -22.9798666405       -5.1090422861       -1.6842496465  W2        10130           0.0000000000
     30391     10131  TIP3      OH2           -33.7800266405       -8.3762222861        0.8565003535  W2        10131           0.0000000000
     30392     10131  TIP3      H1            -33.3719066405       -9.2335622861        0.7355603535  W2        10131           0.0000000000
     30393     10131  TIP3      H2            -34.0402666405       -8.3620922861        1.7775303535  W2        10131           0.0000000000
     30394     10132  TIP3      OH2           -29.1219266405       -7.2603622861      -14.1251696465  W2        10132           0.0000000000
     30395     10132  TIP3      H1            -29.5817266405       -7.7445322861      -13.4393196465  W2        10132           0.0000000000
     30396     10132  TIP3      H2            -28.8670566405       -7.9288222861      -14.7611196465  W2        10132           0.0000000000
     30397     10133  TIP3      OH2           -29.8329966405       -9.3676522861       -1.7692096465  W2        10133           0.0000000000
     30398     10133  TIP3      H1            -30.4513866405       -8.6929922861       -1.4887396465  W2        10133           0.0000000000
     30399     10133  TIP3      H2            -29.4888766405       -9.0462622861       -2.6025896465  W2        10133           0.0000000000
     30400     10134  TIP3      OH2           -28.0508866405       -9.0171822861      -15.8628496465  W2        10134           0.0000000000
     30401     10134  TIP3      H1            -28.2313866405       -9.1720622861      -16.7900196465  W2        10134           0.0000000000
     30402     10134  TIP3      H2            -27.1008366405       -8.9093122861      -15.8180596465  W2        10134           0.0000000000
     30403     10135  TIP3      OH2           -24.8131766405       -6.8961222861        1.5082703535  W2        10135           0.0000000000
     30404     10135  TIP3      H1            -23.8600566405       -6.8122122861        1.4808703535  W2        10135           0.0000000000
     30405     10135  TIP3      H2            -24.9737166405       -7.6079422861        2.1277603535  W2        10135           0.0000000000
     30406     10136  TIP3      OH2           -18.6610566405       -6.6627622861      -16.4170396465  W2        10136           0.0000000000
     30407     10136  TIP3      H1            -18.9345766405       -7.0872122861      -17.2302096465  W2        10136           0.0000000000
     30408     10136  TIP3      H2            -18.6216466405       -5.7313122861      -16.6339996465  W2        10136           0.0000000000
     30409     10137  TIP3      OH2           -29.4936266405      -12.0125722861       -0.6868996465  W2        10137           0.0000000000
     30410     10137  TIP3      H1            -29.3435366405      -12.7414422861       -1.2889296465  W2        10137           0.0000000000
     30411     10137  TIP3      H2            -29.4913866405      -11.2354022861       -1.2456796465  W2        10137           0.0000000000
     30412     10138  TIP3      OH2           -29.0810566405      -13.6429922861       -3.1941596465  W2        10138           0.0000000000
     30413     10138  TIP3      H1            -28.5453066405      -13.1913222861       -3.8462296465  W2        10138           0.0000000000
     30414     10138  TIP3      H2            -29.9330966405      -13.7510122861       -3.6167496465  W2        10138           0.0000000000
     30415     10139  TIP3      OH2           -27.4992166405       -8.2033722861       -2.9546396465  W2        10139           0.0000000000
     30416     10139  TIP3      H1            -26.7487366405       -8.3596222861       -3.5278596465  W2        10139           0.0000000000
     30417     10139  TIP3      H2            -27.8383866405       -7.3517122861       -3.2300896465  W2        10139           0.0000000000
     30418     10140  TIP3      OH2           -23.0835966405      -10.3881922861        2.0738903535  W2        10140           0.0000000000
     30419     10140  TIP3      H1            -22.8914666405      -11.3192522861        1.9623403535  W2        10140           0.0000000000
     30420     10140  TIP3      H2            -22.2259666405       -9.9632422861        2.0634303535  W2        10140           0.0000000000
     30421     10141  TIP3      OH2           -21.7668766405       -7.5996722861        0.1511603535  W2        10141           0.0000000000
     30422     10141  TIP3      H1            -22.0483766405       -6.8902122861       -0.4264596465  W2        10141           0.0000000000
     30423     10141  TIP3      H2            -20.8244466405       -7.6723722861        0.0002803535  W2        10141           0.0000000000
     30424     10142  TIP3      OH2           -31.0149966405      -10.8142222861        1.2246603535  W2        10142           0.0000000000
     30425     10142  TIP3      H1            -31.7820966405      -11.3467422861        1.0144203535  W2        10142           0.0000000000
     30426     10142  TIP3      H2            -30.3360966405      -11.1241822861        0.6252903535  W2        10142           0.0000000000
     30427     10143  TIP3      OH2           -28.2755066405      -16.1864222861       -2.7627996465  W2        10143           0.0000000000
     30428     10143  TIP3      H1            -28.3735466405      -15.2401022861       -2.8681796465  W2        10143           0.0000000000
     30429     10143  TIP3      H2            -29.0178866405      -16.5590422861       -3.2384496465  W2        10143           0.0000000000
     30430     10144  TIP3      OH2           -27.0114566405      -11.8648822861        0.8010403535  W2        10144           0.0000000000
     30431     10144  TIP3      H1            -27.2469166405      -12.0842122861        1.7025303535  W2        10144           0.0000000000
     30432     10144  TIP3      H2            -27.7947666405      -12.0717622861        0.2912903535  W2        10144           0.0000000000
     30433     10145  TIP3      OH2           -24.2957966405      -12.7375322861       -0.1236096465  W2        10145           0.0000000000
     30434     10145  TIP3      H1            -25.2432566405      -12.7055622861        0.0087203535  W2        10145           0.0000000000
     30435     10145  TIP3      H2            -23.9831266405      -13.3628222861        0.5302103535  W2        10145           0.0000000000
     30436     10146  TIP3      OH2           -22.6616466405      -14.1034222861        1.8815803535  W2        10146           0.0000000000
     30437     10146  TIP3      H1            -22.7584666405      -15.0556922861        1.8757703535  W2        10146           0.0000000000
     30438     10146  TIP3      H2            -22.9833366405      -13.8347422861        2.7421303535  W2        10146           0.0000000000
     30439     10147  TIP3      OH2           -32.8347166405      -12.8938422861        0.9291303535  W2        10147           0.0000000000
     30440     10147  TIP3      H1            -32.6229766405      -13.6002322861        0.3188803535  W2        10147           0.0000000000
     30441     10147  TIP3      H2            -32.9459666405      -13.3312422861        1.7732503535  W2        10147           0.0000000000
     30442     10148  TIP3      OH2           -28.0536966405      -16.8926822861       -0.0915196465  W2        10148           0.0000000000
     30443     10148  TIP3      H1            -27.3418566405      -17.5324622861       -0.1056096465  W2        10148           0.0000000000
     30444     10148  TIP3      H2            -28.1546566405      -16.6258522861       -1.0052096465  W2        10148           0.0000000000
     30445     10149  TIP3      OH2           -27.6999466405      -15.2098422861        1.9621103535  W2        10149           0.0000000000
     30446     10149  TIP3      H1            -27.8317266405      -15.6854622861        1.1419603535  W2        10149           0.0000000000
     30447     10149  TIP3      H2            -28.2992066405      -14.4654822861        1.9068203535  W2        10149           0.0000000000
     30448     10150  TIP3      OH2           -28.1537166405        1.6731877139      -14.8614896465  W2        10150           0.0000000000
     30449     10150  TIP3      H1            -27.2206466405        1.8310577139      -14.7176496465  W2        10150           0.0000000000
     30450     10150  TIP3      H2            -28.4178366405        2.3484877139      -15.4863396465  W2        10150           0.0000000000
     30451     10151  TIP3      OH2           -34.5852266405       -3.6904322861      -15.3786796465  W2        10151           0.0000000000
     30452     10151  TIP3      H1            -33.6713066405       -3.6115422861      -15.1052896465  W2        10151           0.0000000000
     30453     10151  TIP3      H2            -34.5779166405       -4.3774722861      -16.0451196465  W2        10151           0.0000000000
     30454     10152  TIP3      OH2           -35.9361666405        1.7024177139      -10.3012896465  W2        10152           0.0000000000
     30455     10152  TIP3      H1            -36.5834566405        1.2405877139      -10.8341696465  W2        10152           0.0000000000
     30456     10152  TIP3      H2            -35.5817066405        1.0307477139       -9.7186696465  W2        10152           0.0000000000
     30457     10153  TIP3      OH2           -35.0662466405       -0.2168822861       -8.4966696465  W2        10153           0.0000000000
     30458     10153  TIP3      H1            -35.4005666405       -1.0971522861       -8.3246496465  W2        10153           0.0000000000
     30459     10153  TIP3      H2            -34.8440066405        0.1286177139       -7.6321096465  W2        10153           0.0000000000
     30460     10154  TIP3      OH2           -17.5177666405        0.5927577139       -5.5161896465  W2        10154           0.0000000000
     30461     10154  TIP3      H1            -17.5390966405        0.7775977139       -4.5772496465  W2        10154           0.0000000000
     30462     10154  TIP3      H2            -16.8271466405        1.1611577139       -5.8570496465  W2        10154           0.0000000000
     30463     10155  TIP3      OH2           -17.9544766405        0.1598677139       -2.5942796465  W2        10155           0.0000000000
     30464     10155  TIP3      H1            -18.4416066405       -0.5757222861       -2.9655396465  W2        10155           0.0000000000
     30465     10155  TIP3      H2            -17.4052066405       -0.2337422861       -1.9163396465  W2        10155           0.0000000000
     30466     10156  TIP3      OH2           -19.5037466405       -4.0503222861        2.0437503535  W2        10156           0.0000000000
     30467     10156  TIP3      H1            -20.3696366405       -4.1553522861        2.4379803535  W2        10156           0.0000000000
     30468     10156  TIP3      H2            -19.1271566405       -3.2919922861        2.4902203535  W2        10156           0.0000000000
     30469     10157  TIP3      OH2           -18.2027766405       -5.7939522861      -12.4419996465  W2        10157           0.0000000000
     30470     10157  TIP3      H1            -17.3526366405       -5.3728622861      -12.3148396465  W2        10157           0.0000000000
     30471     10157  TIP3      H2            -18.1972666405       -6.5339422861      -11.8348596465  W2        10157           0.0000000000
     30472     10158  TIP3      OH2           -17.8082166405       -7.7402122861      -10.6184296465  W2        10158           0.0000000000
     30473     10158  TIP3      H1            -18.5347566405       -8.2199522861      -10.2206696465  W2        10158           0.0000000000
     30474     10158  TIP3      H2            -17.2268866405       -7.5347422861       -9.8862696465  W2        10158           0.0000000000
     30475     10159  TIP3      OH2           -18.0490966405       -4.9554622861       -5.6706696465  W2        10159           0.0000000000
     30476     10159  TIP3      H1            -17.2156766405       -5.3334622861       -5.9513096465  W2        10159           0.0000000000
     30477     10159  TIP3      H2            -17.9370666405       -4.0123422861       -5.7897596465  W2        10159           0.0000000000
     30478     10160  TIP3      OH2           -19.5628666405       -2.0777122861       -3.3638296465  W2        10160           0.0000000000
     30479     10160  TIP3      H1            -20.2103366405       -1.7525622861       -2.7383096465  W2        10160           0.0000000000
     30480     10160  TIP3      H2            -20.0804666405       -2.5179422861       -4.0379996465  W2        10160           0.0000000000
     30481     10161  TIP3      OH2           -17.5399066405       -7.8393622861      -14.2272996465  W2        10161           0.0000000000
     30482     10161  TIP3      H1            -18.0617966405       -7.4829522861      -14.9462096465  W2        10161           0.0000000000
     30483     10161  TIP3      H2            -17.5729866405       -7.1645822861      -13.5492096465  W2        10161           0.0000000000
     30484     10162  TIP3      OH2           -19.1910066405      -10.5998022861      -15.6765896465  W2        10162           0.0000000000
     30485     10162  TIP3      H1            -19.0945666405       -9.9331022861      -16.3566196465  W2        10162           0.0000000000
     30486     10162  TIP3      H2            -19.3310466405      -11.4151722861      -16.1580396465  W2        10162           0.0000000000
     30487     10163  TIP3      OH2           -20.0215366405       -9.2195622861      -10.0555596465  W2        10163           0.0000000000
     30488     10163  TIP3      H1            -20.1716566405      -10.1647022861      -10.0757796465  W2        10163           0.0000000000
     30489     10163  TIP3      H2            -20.3750866405       -8.9384222861       -9.2116496465  W2        10163           0.0000000000
     30490     10164  TIP3      OH2           -34.9862966405       -7.1413422861       -6.0451796465  W2        10164           0.0000000000
     30491     10164  TIP3      H1            -34.8020066405       -7.2231722861       -6.9808896465  W2        10164           0.0000000000
     30492     10164  TIP3      H2            -34.1370066405       -7.2656422861       -5.6215396465  W2        10164           0.0000000000
     30493     10165  TIP3      OH2           -19.1652466405       -7.2492322861       -0.4167296465  W2        10165           0.0000000000
     30494     10165  TIP3      H1            -18.5825166405       -7.9840022861       -0.2250096465  W2        10165           0.0000000000
     30495     10165  TIP3      H2            -18.6013166405       -6.4772022861       -0.3701496465  W2        10165           0.0000000000
     30496     10166  TIP3      OH2           -17.6685366405       -9.3466522861        0.2678103535  W2        10166           0.0000000000
     30497     10166  TIP3      H1            -18.5318666405       -9.7254422861        0.1022803535  W2        10166           0.0000000000
     30498     10166  TIP3      H2            -17.0641666405      -10.0851722861        0.1933903535  W2        10166           0.0000000000
     30499     10167  TIP3      OH2           -19.9436266405      -13.1918222861      -16.5590396465  W2        10167           0.0000000000
     30500     10167  TIP3      H1            -19.3330466405      -13.5631422861      -15.9222196465  W2        10167           0.0000000000
     30501     10167  TIP3      H2            -20.7804766405      -13.6131322861      -16.3630396465  W2        10167           0.0000000000
     30502     10168  TIP3      OH2           -20.3110566405      -11.6369822861      -11.5930496465  W2        10168           0.0000000000
     30503     10168  TIP3      H1            -20.0313466405      -12.5439422861      -11.4688796465  W2        10168           0.0000000000
     30504     10168  TIP3      H2            -19.5518866405      -11.2028322861      -11.9821296465  W2        10168           0.0000000000
     30505     10169  TIP3      OH2           -19.6992266405      -11.0552422861       -6.1571596465  W2        10169           0.0000000000
     30506     10169  TIP3      H1            -18.7664266405      -10.8432522861       -6.1915596465  W2        10169           0.0000000000
     30507     10169  TIP3      H2            -19.9344766405      -10.9540322861       -5.2348596465  W2        10169           0.0000000000
     30508     10170  TIP3      OH2           -19.6700366405      -10.3187122861       -3.3812196465  W2        10170           0.0000000000
     30509     10170  TIP3      H1            -20.5129066405      -10.0506722861       -3.0152396465  W2        10170           0.0000000000
     30510     10170  TIP3      H2            -19.2276066405       -9.4965222861       -3.5921096465  W2        10170           0.0000000000
     30511     10171  TIP3      OH2           -35.3888166405      -11.8708422861        0.0957003535  W2        10171           0.0000000000
     30512     10171  TIP3      H1            -34.4693266405      -11.9930122861        0.3320103535  W2        10171           0.0000000000
     30513     10171  TIP3      H2            -35.8383666405      -12.6208722861        0.4850503535  W2        10171           0.0000000000
     30514     10172  TIP3      OH2           -17.3868766405      -16.3386922861        1.9722803535  W2        10172           0.0000000000
     30515     10172  TIP3      H1            -17.0371766405      -16.9923422861        1.3667503535  W2        10172           0.0000000000
     30516     10172  TIP3      H2            -17.2399266405      -15.5012822861        1.5325403535  W2        10172           0.0000000000
     30517     10173  TIP3      OH2           -19.6975766405      -14.3740522861      -11.5448496465  W2        10173           0.0000000000
     30518     10173  TIP3      H1            -19.5150766405      -14.8229022861      -10.7193496465  W2        10173           0.0000000000
     30519     10173  TIP3      H2            -20.2972866405      -14.9586122861      -12.0083896465  W2        10173           0.0000000000
     30520     10174  TIP3      OH2           -34.1675666405      -13.5586822861       -7.0130096465  W2        10174           0.0000000000
     30521     10174  TIP3      H1            -33.7224066405      -14.3504322861       -6.7110396465  W2        10174           0.0000000000
     30522     10174  TIP3      H2            -33.7012666405      -12.8421622861       -6.5824496465  W2        10174           0.0000000000
     30523     10175  TIP3      OH2           -35.8635366405      -10.5593822861       -5.9439896465  W2        10175           0.0000000000
     30524     10175  TIP3      H1            -35.3715566405      -10.7803322861       -6.7347896465  W2        10175           0.0000000000
     30525     10175  TIP3      H2            -35.5014466405       -9.7190422861       -5.6630396465  W2        10175           0.0000000000
     30526     10176  TIP3      OH2           -17.8671566405      -14.2292322861        0.3214103535  W2        10176           0.0000000000
     30527     10176  TIP3      H1            -18.7845866405      -13.9585222861        0.2857603535  W2        10176           0.0000000000
     30528     10176  TIP3      H2            -17.7442166405      -14.7643922861       -0.4626196465  W2        10176           0.0000000000
     30529     10177  TIP3      OH2           -17.8309566405      -14.3062422861      -15.0168196465  W2        10177           0.0000000000
     30530     10177  TIP3      H1            -17.4186966405      -15.0276722861      -15.4920196465  W2        10177           0.0000000000
     30531     10177  TIP3      H2            -17.1493066405      -13.6367822861      -14.9583896465  W2        10177           0.0000000000
     30532     10178  TIP3      OH2           -35.5498866405      -14.3014722861      -11.8897496465  W2        10178           0.0000000000
     30533     10178  TIP3      H1            -36.4750466405      -14.0928122861      -12.0191996465  W2        10178           0.0000000000
     30534     10178  TIP3      H2            -35.0958966405      -13.8173922861      -12.5795196465  W2        10178           0.0000000000
     30535     10179  TIP3      OH2           -20.7791666405        0.6826977139       -9.9440096465  W2        10179           0.0000000000
     30536     10179  TIP3      H1            -20.1268766405        0.3349077139      -10.5520996465  W2        10179           0.0000000000
     30537     10179  TIP3      H2            -20.2687866405        1.1710177139       -9.2980396465  W2        10179           0.0000000000
     30538     10180  TIP3      OH2           -35.5863466405      -15.5635722861       -3.5454996465  W2        10180           0.0000000000
     30539     10180  TIP3      H1            -36.2512966405      -15.8095422861       -2.9024096465  W2        10180           0.0000000000
     30540     10180  TIP3      H2            -36.0292166405      -14.9415322861       -4.1226996465  W2        10180           0.0000000000
     30541     10181  TIP3      OH2           -33.3944166405       -2.3881622861        0.5990803535  W2        10181           0.0000000000
     30542     10181  TIP3      H1            -34.2151666405       -2.2135122861        0.1385503535  W2        10181           0.0000000000
     30543     10181  TIP3      H2            -33.6466366405       -2.4616922861        1.5195203535  W2        10181           0.0000000000
     30544     10182  TIP3      OH2           -30.4401266405       -1.4140422861       -3.1425196465  W2        10182           0.0000000000
     30545     10182  TIP3      H1            -30.8650166405       -0.6041922861       -3.4250596465  W2        10182           0.0000000000
     30546     10182  TIP3      H2            -29.5358466405       -1.3286322861       -3.4445396465  W2        10182           0.0000000000
     30547     10183  TIP3      OH2           -26.1289866405       -0.0150422861       -0.1831496465  W2        10183           0.0000000000
     30548     10183  TIP3      H1            -25.9442366405       -0.3484322861        0.6948803535  W2        10183           0.0000000000
     30549     10183  TIP3      H2            -25.2825366405        0.2948177139       -0.5052296465  W2        10183           0.0000000000
     30550     10184  TIP3      OH2           -23.7839466405        1.2708477139       -0.9390096465  W2        10184           0.0000000000
     30551     10184  TIP3      H1            -23.1070566405        0.6380777139       -1.1790896465  W2        10184           0.0000000000
     30552     10184  TIP3      H2            -23.4620666405        1.6718977139       -0.1316796465  W2        10184           0.0000000000
     30553     10185  TIP3      OH2           -18.8665666405      -16.1396022861       -1.8595096465  W2        10185           0.0000000000
     30554     10185  TIP3      H1            -19.6792166405      -15.8145722861       -2.2470396465  W2        10185           0.0000000000
     30555     10185  TIP3      H2            -18.6337166405      -16.8997522861       -2.3925996465  W2        10185           0.0000000000
     30556     10186  TIP3      OH2           -33.0384566405        1.8423477139       -3.0949896465  W2        10186           0.0000000000
     30557     10186  TIP3      H1            -33.7588166405        2.2824477139       -3.5462196465  W2        10186           0.0000000000
     30558     10186  TIP3      H2            -33.4040566405        1.5918177139       -2.2465896465  W2        10186           0.0000000000
     30559     10187  TIP3      OH2           -30.5711966405        1.4427377139       -4.0652696465  W2        10187           0.0000000000
     30560     10187  TIP3      H1            -31.4359766405        1.5145877139       -3.6612596465  W2        10187           0.0000000000
     30561     10187  TIP3      H2            -30.6262966405        1.9894677139       -4.8490196465  W2        10187           0.0000000000
     30562     10188  TIP3      OH2           -25.8606366405        1.3306277139       -4.8896696465  W2        10188           0.0000000000
     30563     10188  TIP3      H1            -26.3172366405        1.8595977139       -5.5438296465  W2        10188           0.0000000000
     30564     10188  TIP3      H2            -25.6978366405        1.9337677139       -4.1644396465  W2        10188           0.0000000000
     30565     10189  TIP3      OH2           -23.5330066405        0.2085877139       -3.9446396465  W2        10189           0.0000000000
     30566     10189  TIP3      H1            -24.4376366405        0.3736077139       -4.2104296465  W2        10189           0.0000000000
     30567     10189  TIP3      H2            -23.1041466405        1.0618077139       -4.0102996465  W2        10189           0.0000000000
     30568     10190  TIP3      OH2           -20.9288166405        1.7784977139       -3.6498596465  W2        10190           0.0000000000
     30569     10190  TIP3      H1            -21.1106166405        2.6943877139       -3.8603696465  W2        10190           0.0000000000
     30570     10190  TIP3      H2            -20.7520366405        1.3682077139       -4.4963996465  W2        10190           0.0000000000
     30571     10191  TIP3      OH2           -33.6236466405        0.4655977139       -6.1848096465  W2        10191           0.0000000000
     30572     10191  TIP3      H1            -33.6420466405        0.0401077139       -5.3275796465  W2        10191           0.0000000000
     30573     10191  TIP3      H2            -32.8188566405        0.1470977139       -6.5935896465  W2        10191           0.0000000000
     30574     10192  TIP3      OH2           -31.4823366405       -0.8245322861       -7.5298196465  W2        10192           0.0000000000
     30575     10192  TIP3      H1            -31.7012666405       -1.7407922861       -7.3602196465  W2        10192           0.0000000000
     30576     10192  TIP3      H2            -30.6581166405       -0.6844922861       -7.0636796465  W2        10192           0.0000000000
     30577     10193  TIP3      OH2           -28.9450866405       -0.3546022861       -6.6810196465  W2        10193           0.0000000000
     30578     10193  TIP3      H1            -28.7325166405       -1.2427022861       -6.9679296465  W2        10193           0.0000000000
     30579     10193  TIP3      H2            -28.8805766405       -0.3888322861       -5.7266196465  W2        10193           0.0000000000
     30580     10194  TIP3      OH2           -25.4367166405      -14.6905422861       -7.5366896465  W2        10194           0.0000000000
     30581     10194  TIP3      H1            -26.1110366405      -15.3199822861       -7.2811096465  W2        10194           0.0000000000
     30582     10194  TIP3      H2            -24.8727966405      -15.1746522861       -8.1398996465  W2        10194           0.0000000000
     30583     10195  TIP3      OH2           -20.2939966405      -16.5831422861       -7.4239796465  W2        10195           0.0000000000
     30584     10195  TIP3      H1            -19.6902366405      -16.0356022861       -7.9258796465  W2        10195           0.0000000000
     30585     10195  TIP3      H2            -21.1637966405      -16.2641022861       -7.6645696465  W2        10195           0.0000000000
     30586     10196  TIP3      OH2           -18.5669566405      -15.4442722861       -9.0908896465  W2        10196           0.0000000000
     30587     10196  TIP3      H1            -17.9552066405      -15.9587022861       -9.6175296465  W2        10196           0.0000000000
     30588     10196  TIP3      H2            -18.1846166405      -14.5670622861       -9.0674496465  W2        10196           0.0000000000
     30589     10197  TIP3      OH2           -33.1099666405      -16.0565122861       -9.7146996465  W2        10197           0.0000000000
     30590     10197  TIP3      H1            -33.8869866405      -16.2910222861      -10.2221096465  W2        10197           0.0000000000
     30591     10197  TIP3      H2            -32.5796066405      -16.8533022861       -9.7058996465  W2        10197           0.0000000000
     30592     10198  TIP3      OH2           -34.2736266405      -16.2587022861      -13.9110896465  W2        10198           0.0000000000
     30593     10198  TIP3      H1            -33.8345566405      -15.6476522861      -14.5027396465  W2        10198           0.0000000000
     30594     10198  TIP3      H2            -34.9073866405      -15.7202922861      -13.4370896465  W2        10198           0.0000000000
     30595     10199  TIP3      OH2           -28.5307066405      -16.1298022861       -9.9013896465  W2        10199           0.0000000000
     30596     10199  TIP3      H1            -27.6563666405      -15.7413722861       -9.9309596465  W2        10199           0.0000000000
     30597     10199  TIP3      H2            -28.6666266405      -16.3450222861       -8.9786696465  W2        10199           0.0000000000
     30598     10200  TIP3      OH2           -22.9738666405      -16.0998222861       -8.2522196465  W2        10200           0.0000000000
     30599     10200  TIP3      H1            -22.8977066405      -16.0046622861       -9.2016196465  W2        10200           0.0000000000
     30600     10200  TIP3      H2            -23.2489466405      -17.0075322861       -8.1233096465  W2        10200           0.0000000000
     30601     10201  TIP3      OH2           -21.6206066405      -16.0740422861      -12.5597196465  W2        10201           0.0000000000
     30602     10201  TIP3      H1            -22.3234966405      -15.4591222861      -12.7695796465  W2        10201           0.0000000000
     30603     10201  TIP3      H2            -22.0654666405      -16.9113722861      -12.4286296465  W2        10201           0.0000000000
     30604     10202  TIP3      OH2           -34.3726766405       -0.3104822861      -13.0135796465  W2        10202           0.0000000000
     30605     10202  TIP3      H1            -35.0576866405       -0.3485922861      -13.6810696465  W2        10202           0.0000000000
     30606     10202  TIP3      H2            -34.3689566405        0.6022777139      -12.7253696465  W2        10202           0.0000000000
     30607     10203  TIP3      OH2           -32.4127166405      -14.3425522861      -15.4686796465  W2        10203           0.0000000000
     30608     10203  TIP3      H1            -31.9213766405      -14.9723122861      -15.9961296465  W2        10203           0.0000000000
     30609     10203  TIP3      H2            -31.7890866405      -14.0466122861      -14.8055596465  W2        10203           0.0000000000
     30610     10204  TIP3      OH2           -27.3867066405      -14.0494022861      -13.0116296465  W2        10204           0.0000000000
     30611     10204  TIP3      H1            -27.2085766405      -14.6960822861      -12.3287696465  W2        10204           0.0000000000
     30612     10204  TIP3      H2            -27.4400866405      -13.2156322861      -12.5445196465  W2        10204           0.0000000000
     30613     10205  TIP3      OH2           -25.5083266405        0.8990077139      -14.6159596465  W2        10205           0.0000000000
     30614     10205  TIP3      H1            -24.6423066405        1.2657477139      -14.7941396465  W2        10205           0.0000000000
     30615     10205  TIP3      H2            -25.7550466405        0.4598077139      -15.4298796465  W2        10205           0.0000000000
     30616     10206  TIP3      OH2           -18.7993666405        0.4620377139      -11.9368496465  W2        10206           0.0000000000
     30617     10206  TIP3      H1            -18.9936566405       -0.2857522861      -12.5018896465  W2        10206           0.0000000000
     30618     10206  TIP3      H2            -18.8383566405        1.2200477139      -12.5200596465  W2        10206           0.0000000000
     30619     10207  TIP3      OH2           -33.1521666405      -15.5423222861       -0.1970796465  W2        10207           0.0000000000
     30620     10207  TIP3      H1            -33.5183466405      -16.3080622861        0.2453903535  W2        10207           0.0000000000
     30621     10207  TIP3      H2            -32.2393166405      -15.5133022861        0.0894303535  W2        10207           0.0000000000
     30622     10208  TIP3      OH2           -31.1790866405      -16.1918822861        1.3386303535  W2        10208           0.0000000000
     30623     10208  TIP3      H1            -30.2807266405      -16.4658622861        1.1539703535  W2        10208           0.0000000000
     30624     10208  TIP3      H2            -31.5657766405      -16.9342822861        1.8028903535  W2        10208           0.0000000000
     30625     10209  TIP3      OH2           -32.5545566405        0.6095977139      -15.9883696465  W2        10209           0.0000000000
     30626     10209  TIP3      H1            -32.8220966405        0.8958877139      -15.1150596465  W2        10209           0.0000000000
     30627     10209  TIP3      H2            -31.7832966405        0.0635177139      -15.8361196465  W2        10209           0.0000000000
     30628     10210  TIP3      OH2           -22.7578566405      -16.8593522861        1.5209103535  W2        10210           0.0000000000
     30629     10210  TIP3      H1            -22.6811366405      -17.2852822861        2.3746803535  W2        10210           0.0000000000
     30630     10210  TIP3      H2            -21.8641966405      -16.8458822861        1.1782603535  W2        10210           0.0000000000
     30631     10211  TIP3      OH2           -19.5817466405       -0.7867222861        0.2133303535  W2        10211           0.0000000000
     30632     10211  TIP3      H1            -20.3635566405       -0.9729222861       -0.3066096465  W2        10211           0.0000000000
     30633     10211  TIP3      H2            -19.6537566405        0.1427077139        0.4305803535  W2        10211           0.0000000000
     30634     10212  TIP3      OH2            -5.1757066405       -6.9002822861       -9.7559496465  W2        10212           0.0000000000
     30635     10212  TIP3      H1             -5.0865966405       -5.9564622861       -9.8882396465  W2        10212           0.0000000000
     30636     10212  TIP3      H2             -5.8139466405       -7.1756422861      -10.4140096465  W2        10212           0.0000000000
     30637     10213  TIP3      OH2            -6.2425766405       -7.6452122861       -6.3371296465  W2        10213           0.0000000000
     30638     10213  TIP3      H1             -6.2808266405       -8.2915822861       -5.6321696465  W2        10213           0.0000000000
     30639     10213  TIP3      H2             -6.5649266405       -8.1117722861       -7.1082596465  W2        10213           0.0000000000
     30640     10214  TIP3      OH2           -13.8740766405       -8.0310022861       -4.7441396465  W2        10214           0.0000000000
     30641     10214  TIP3      H1            -13.8328666405       -8.6566722861       -4.0208996465  W2        10214           0.0000000000
     30642     10214  TIP3      H2            -13.1713066405       -7.4071422861       -4.5620996465  W2        10214           0.0000000000
     30643     10215  TIP3      OH2            -2.5365566405       -4.7061722861       -8.0356196465  W2        10215           0.0000000000
     30644     10215  TIP3      H1             -2.9772866405       -5.4265722861       -7.5850596465  W2        10215           0.0000000000
     30645     10215  TIP3      H2             -2.5495866405       -3.9854522861       -7.4058496465  W2        10215           0.0000000000
     30646     10216  TIP3      OH2           -12.9507666405       -3.5811122861       -6.2092296465  W2        10216           0.0000000000
     30647     10216  TIP3      H1            -13.3202466405       -4.3830622861       -6.5787996465  W2        10216           0.0000000000
     30648     10216  TIP3      H2            -12.0096566405       -3.7496222861       -6.1628896465  W2        10216           0.0000000000
     30649     10217  TIP3      OH2           -16.3407166405       -9.9208522861      -10.8163496465  W2        10217           0.0000000000
     30650     10217  TIP3      H1            -16.7883766405       -9.0749822861      -10.8346996465  W2        10217           0.0000000000
     30651     10217  TIP3      H2            -16.9015966405      -10.5004322861      -11.3318396465  W2        10217           0.0000000000
     30652     10218  TIP3      OH2           -15.6301066405       -7.7588922861       -8.6905496465  W2        10218           0.0000000000
     30653     10218  TIP3      H1            -15.4167566405       -8.5287322861       -8.1632496465  W2        10218           0.0000000000
     30654     10218  TIP3      H2            -14.8923466405       -7.6692222861       -9.2937896465  W2        10218           0.0000000000
     30655     10219  TIP3      OH2            -5.4250066405        0.3979977139       -7.8235796465  W2        10219           0.0000000000
     30656     10219  TIP3      H1             -4.8053666405       -0.2785322861       -8.0966596465  W2        10219           0.0000000000
     30657     10219  TIP3      H2             -5.6332666405        0.1800777139       -6.9150896465  W2        10219           0.0000000000
     30658     10220  TIP3      OH2            -7.8531366405       -5.2130722861       -5.9310296465  W2        10220           0.0000000000
     30659     10220  TIP3      H1             -7.5493466405       -5.8989322861       -6.5256196465  W2        10220           0.0000000000
     30660     10220  TIP3      H2             -7.1317366405       -5.0942022861       -5.3132296465  W2        10220           0.0000000000
     30661     10221  TIP3      OH2             0.8098433595      -13.6115422861       -5.0704096465  W2        10221           0.0000000000
     30662     10221  TIP3      H1              0.8590633595      -13.0014222861       -4.3344996465  W2        10221           0.0000000000
     30663     10221  TIP3      H2              1.2353533595      -13.1504522861       -5.7932996465  W2        10221           0.0000000000
     30664     10222  TIP3      OH2            -4.7124366405      -10.8188322861       -5.6035496465  W2        10222           0.0000000000
     30665     10222  TIP3      H1             -4.5698466405      -11.7651322861       -5.5833896465  W2        10222           0.0000000000
     30666     10222  TIP3      H2             -4.8185366405      -10.6118522861       -6.5320596465  W2        10222           0.0000000000
     30667     10223  TIP3      OH2           -11.5576066405      -12.7171922861       -8.3310696465  W2        10223           0.0000000000
     30668     10223  TIP3      H1            -11.5144966405      -11.8573422861       -8.7494396465  W2        10223           0.0000000000
     30669     10223  TIP3      H2            -12.0151966405      -13.2697222861       -8.9647496465  W2        10223           0.0000000000
     30670     10224  TIP3      OH2            -3.8353366405      -12.5866322861       -9.9302396465  W2        10224           0.0000000000
     30671     10224  TIP3      H1             -3.1889066405      -12.9153122861       -9.3054796465  W2        10224           0.0000000000
     30672     10224  TIP3      H2             -3.3253966405      -12.0687322861      -10.5530996465  W2        10224           0.0000000000
     30673     10225  TIP3      OH2           -14.9374566405      -10.3206122861       -7.5689296465  W2        10225           0.0000000000
     30674     10225  TIP3      H1            -14.2837966405      -10.8704422861       -7.1369196465  W2        10225           0.0000000000
     30675     10225  TIP3      H2            -14.9135266405      -10.5947122861       -8.4857296465  W2        10225           0.0000000000
     30676     10226  TIP3      OH2            -9.7810066405       -8.7704822861       -8.3537796465  W2        10226           0.0000000000
     30677     10226  TIP3      H1             -9.1649066405       -9.2969422861       -7.8443796465  W2        10226           0.0000000000
     30678     10226  TIP3      H2            -10.3671266405       -9.4106122861       -8.7574196465  W2        10226           0.0000000000
     30679     10227  TIP3      OH2             1.2013033595      -12.1336222861       -2.8344296465  W2        10227           0.0000000000
     30680     10227  TIP3      H1              0.5127633595      -11.4755522861       -2.9297696465  W2        10227           0.0000000000
     30681     10227  TIP3      H2              1.2167633595      -12.3308322861       -1.8978896465  W2        10227           0.0000000000
     30682     10228  TIP3      OH2           -12.7474166405      -13.7993522861       -4.2569896465  W2        10228           0.0000000000
     30683     10228  TIP3      H1            -12.9662466405      -13.2692922861       -5.0233896465  W2        10228           0.0000000000
     30684     10228  TIP3      H2            -13.4153266405      -13.5728022861       -3.6098496465  W2        10228           0.0000000000
     30685     10229  TIP3      OH2            -5.3784366405       -4.2992422861      -10.7130796465  W2        10229           0.0000000000
     30686     10229  TIP3      H1             -5.6739266405       -4.6220122861      -11.5643896465  W2        10229           0.0000000000
     30687     10229  TIP3      H2             -5.7026566405       -3.3995722861      -10.6718196465  W2        10229           0.0000000000
     30688     10230  TIP3      OH2           -10.1782766405       -6.1237822861       -3.9696196465  W2        10230           0.0000000000
     30689     10230  TIP3      H1            -10.9183666405       -5.5256322861       -3.8660996465  W2        10230           0.0000000000
     30690     10230  TIP3      H2             -9.4643266405       -5.5698222861       -4.2852596465  W2        10230           0.0000000000
     30691     10231  TIP3      OH2            -2.0714966405      -13.2957022861       -7.9496496465  W2        10231           0.0000000000
     30692     10231  TIP3      H1             -2.2866966405      -14.0613622861       -7.4170496465  W2        10231           0.0000000000
     30693     10231  TIP3      H2             -1.4157566405      -12.8232422861       -7.4367996465  W2        10231           0.0000000000
     30694     10232  TIP3      OH2           -13.1536866405      -11.9071722861       -6.3047696465  W2        10232           0.0000000000
     30695     10232  TIP3      H1            -12.5400566405      -11.2744122861       -5.9315296465  W2        10232           0.0000000000
     30696     10232  TIP3      H2            -12.6416166405      -12.3796722861       -6.9610796465  W2        10232           0.0000000000
     30697     10233  TIP3      OH2           -11.7708466405       -4.1594822861       -3.1824696465  W2        10233           0.0000000000
     30698     10233  TIP3      H1            -11.7760866405       -3.2801322861       -3.5605396465  W2        10233           0.0000000000
     30699     10233  TIP3      H2            -12.6244366405       -4.2430722861       -2.7574796465  W2        10233           0.0000000000
     30700     10234  TIP3      OH2           -15.6497566405       -4.4886922861      -12.4005396465  W2        10234           0.0000000000
     30701     10234  TIP3      H1            -15.9216666405       -4.2595922861      -13.2892496465  W2        10234           0.0000000000
     30702     10234  TIP3      H2            -15.6041866405       -3.6508122861      -11.9400096465  W2        10234           0.0000000000
     30703     10235  TIP3      OH2            -2.0247866405       -2.8671022861       -5.6876896465  W2        10235           0.0000000000
     30704     10235  TIP3      H1             -2.9664166405       -2.8087122861       -5.5259996465  W2        10235           0.0000000000
     30705     10235  TIP3      H2             -1.7481766405       -1.9610522861       -5.8247196465  W2        10235           0.0000000000
     30706     10236  TIP3      OH2            -1.7240866405      -14.5805722861       -4.2702996465  W2        10236           0.0000000000
     30707     10236  TIP3      H1             -2.4601666405      -13.9698622861       -4.3081696465  W2        10236           0.0000000000
     30708     10236  TIP3      H2             -1.0406866405      -14.1656722861       -4.7966596465  W2        10236           0.0000000000
     30709     10237  TIP3      OH2            -8.7209466405      -16.4938422861       -6.8044996465  W2        10237           0.0000000000
     30710     10237  TIP3      H1             -8.8385266405      -17.4422422861       -6.8586696465  W2        10237           0.0000000000
     30711     10237  TIP3      H2             -9.5759366405      -16.1612322861       -6.5313896465  W2        10237           0.0000000000
     30712     10238  TIP3      OH2            -3.7726666405       -1.0857522861       -9.0625296465  W2        10238           0.0000000000
     30713     10238  TIP3      H1             -3.3474366405       -1.7929622861       -9.5475696465  W2        10238           0.0000000000
     30714     10238  TIP3      H2             -3.4556666405       -0.2844822861       -9.4793096465  W2        10238           0.0000000000
     30715     10239  TIP3      OH2            -2.6130166405       -3.1849022861      -10.5538696465  W2        10239           0.0000000000
     30716     10239  TIP3      H1             -2.8705366405       -3.8748922861      -11.1652796465  W2        10239           0.0000000000
     30717     10239  TIP3      H2             -2.5419366405       -3.6277822861       -9.7082796465  W2        10239           0.0000000000
     30718     10240  TIP3      OH2            -0.9269966405       -4.6182322861       -2.0765196465  W2        10240           0.0000000000
     30719     10240  TIP3      H1             -0.7873666405       -5.2099822861       -2.8158196465  W2        10240           0.0000000000
     30720     10240  TIP3      H2             -0.7597166405       -3.7456422861       -2.4326396465  W2        10240           0.0000000000
     30721     10241  TIP3      OH2            -6.4544566405       -7.6562822861      -12.3039196465  W2        10241           0.0000000000
     30722     10241  TIP3      H1             -7.1659066405       -7.1213122861      -12.6558696465  W2        10241           0.0000000000
     30723     10241  TIP3      H2             -5.7634966405       -7.6010722861      -12.9640296465  W2        10241           0.0000000000
     30724     10242  TIP3      OH2            -6.4005366405       -9.1988522861      -15.2654196465  W2        10242           0.0000000000
     30725     10242  TIP3      H1             -5.6995466405       -9.1761622861      -14.6140196465  W2        10242           0.0000000000
     30726     10242  TIP3      H2             -6.0982466405       -9.8268822861      -15.9214896465  W2        10242           0.0000000000
     30727     10243  TIP3      OH2             0.9149333595       -8.2784322861       -4.0104796465  W2        10243           0.0000000000
     30728     10243  TIP3      H1              0.2623433595       -7.5838722861       -3.9213896465  W2        10243           0.0000000000
     30729     10243  TIP3      H2              1.3799633595       -8.0683422861       -4.8203196465  W2        10243           0.0000000000
     30730     10244  TIP3      OH2            -3.0486866405       -7.4469522861      -11.3523296465  W2        10244           0.0000000000
     30731     10244  TIP3      H1             -3.7805866405       -7.2185822861      -10.7792696465  W2        10244           0.0000000000
     30732     10244  TIP3      H2             -2.6014666405       -8.1606822861      -10.8975796465  W2        10244           0.0000000000
     30733     10245  TIP3      OH2            -3.1513366405       -9.2726922861       -2.2846296465  W2        10245           0.0000000000
     30734     10245  TIP3      H1             -3.0714266405       -8.5092522861       -1.7127796465  W2        10245           0.0000000000
     30735     10245  TIP3      H2             -3.7525666405       -8.9934522861       -2.9751196465  W2        10245           0.0000000000
     30736     10246  TIP3      OH2           -11.4033166405       -6.8163322861       -9.4698296465  W2        10246           0.0000000000
     30737     10246  TIP3      H1            -11.7337966405       -7.1869922861      -10.2881296465  W2        10246           0.0000000000
     30738     10246  TIP3      H2            -10.8149066405       -7.4869322861       -9.1229996465  W2        10246           0.0000000000
     30739     10247  TIP3      OH2           -10.0365666405       -3.3882722861       -6.7886096465  W2        10247           0.0000000000
     30740     10247  TIP3      H1            -10.1314366405       -3.9669622861       -7.5451496465  W2        10247           0.0000000000
     30741     10247  TIP3      H2             -9.3072066405       -3.7597022861       -6.2923296465  W2        10247           0.0000000000
     30742     10248  TIP3      OH2           -11.0367666405       -8.0477722861       -5.8363296465  W2        10248           0.0000000000
     30743     10248  TIP3      H1            -10.4715166405       -7.9263522861       -6.5992096465  W2        10248           0.0000000000
     30744     10248  TIP3      H2            -10.7178766405       -7.4102722861       -5.1974796465  W2        10248           0.0000000000
     30745     10249  TIP3      OH2            -4.7275466405       -2.5445822861       -5.1022796465  W2        10249           0.0000000000
     30746     10249  TIP3      H1             -4.9678866405       -1.8822722861       -4.4543596465  W2        10249           0.0000000000
     30747     10249  TIP3      H2             -4.9257266405       -3.3790622861       -4.6773196465  W2        10249           0.0000000000
     30748     10250  TIP3      OH2           -10.1566966405       -3.6485022861       -1.1191396465  W2        10250           0.0000000000
     30749     10250  TIP3      H1            -10.4679466405       -2.8661822861       -0.6638196465  W2        10250           0.0000000000
     30750     10250  TIP3      H2            -10.8066766405       -3.8015922861       -1.8049396465  W2        10250           0.0000000000
     30751     10251  TIP3      OH2            -4.1777366405       -8.2846622861      -13.6672096465  W2        10251           0.0000000000
     30752     10251  TIP3      H1             -3.5981866405       -8.1346322861      -12.9203196465  W2        10251           0.0000000000
     30753     10251  TIP3      H2             -3.7637366405       -7.8139222861      -14.3905696465  W2        10251           0.0000000000
     30754     10252  TIP3      OH2           -13.2367066405       -7.4503922861       -1.8905696465  W2        10252           0.0000000000
     30755     10252  TIP3      H1            -13.1663866405       -6.7997122861       -1.1920696465  W2        10252           0.0000000000
     30756     10252  TIP3      H2            -14.1274866405       -7.3476422861       -2.2254796465  W2        10252           0.0000000000
     30757     10253  TIP3      OH2            -6.4512466405       -1.5478122861      -10.2318996465  W2        10253           0.0000000000
     30758     10253  TIP3      H1             -5.9774866405       -1.2521822861       -9.4544796465  W2        10253           0.0000000000
     30759     10253  TIP3      H2             -7.0143166405       -0.8096522861      -10.4649396465  W2        10253           0.0000000000
     30760     10254  TIP3      OH2           -11.9171066405       -1.5770022861       -0.3557596465  W2        10254           0.0000000000
     30761     10254  TIP3      H1            -11.9095766405       -1.7130322861       -1.3032096465  W2        10254           0.0000000000
     30762     10254  TIP3      H2            -12.8330666405       -1.6941922861       -0.1037596465  W2        10254           0.0000000000
     30763     10255  TIP3      OH2            -0.4788966405      -16.5346222861      -13.8542396465  W2        10255           0.0000000000
     30764     10255  TIP3      H1             -1.3788266405      -16.3957222861      -13.5591796465  W2        10255           0.0000000000
     30765     10255  TIP3      H2             -0.2270566405      -15.7031622861      -14.2560696465  W2        10255           0.0000000000
     30766     10256  TIP3      OH2           -12.4130466405       -7.7469022861      -11.8805496465  W2        10256           0.0000000000
     30767     10256  TIP3      H1            -12.7049166405       -6.9787322861      -12.3714196465  W2        10256           0.0000000000
     30768     10256  TIP3      H2            -13.0875266405       -8.4062822861      -12.0434096465  W2        10256           0.0000000000
     30769     10257  TIP3      OH2             0.7102433595       -2.1683822861      -15.4778496465  W2        10257           0.0000000000
     30770     10257  TIP3      H1              0.7835933595       -1.2293622861      -15.3073196465  W2        10257           0.0000000000
     30771     10257  TIP3      H2              1.6157533595       -2.4735222861      -15.5341196465  W2        10257           0.0000000000
     30772     10258  TIP3      OH2           -16.3200366405       -5.3839822861       -3.0655696465  W2        10258           0.0000000000
     30773     10258  TIP3      H1            -16.8211966405       -5.4120422861       -3.8805996465  W2        10258           0.0000000000
     30774     10258  TIP3      H2            -16.3146666405       -6.2896622861       -2.7558396465  W2        10258           0.0000000000
     30775     10259  TIP3      OH2           -16.5697666405       -2.6036022861       -6.1815496465  W2        10259           0.0000000000
     30776     10259  TIP3      H1            -15.6237066405       -2.7479022861       -6.2005996465  W2        10259           0.0000000000
     30777     10259  TIP3      H2            -16.6821366405       -1.8193222861       -5.6444296465  W2        10259           0.0000000000
     30778     10260  TIP3      OH2             1.6280833595       -1.9376322861       -0.4991796465  W2        10260           0.0000000000
     30779     10260  TIP3      H1              1.5787633595       -2.8928222861       -0.5364196465  W2        10260           0.0000000000
     30780     10260  TIP3      H2              0.8013133595       -1.6701022861       -0.0977996465  W2        10260           0.0000000000
     30781     10261  TIP3      OH2            -7.3935166405       -2.3637122861       -1.6230396465  W2        10261           0.0000000000
     30782     10261  TIP3      H1             -7.3060566405       -1.5372522861       -1.1481296465  W2        10261           0.0000000000
     30783     10261  TIP3      H2             -8.2570066405       -2.6933322861       -1.3741096465  W2        10261           0.0000000000
     30784     10262  TIP3      OH2            -6.9789366405        1.4086577139      -11.8169796465  W2        10262           0.0000000000
     30785     10262  TIP3      H1             -7.0543366405        1.2873777139      -12.7634596465  W2        10262           0.0000000000
     30786     10262  TIP3      H2             -6.9460666405        2.3579277139      -11.6985196465  W2        10262           0.0000000000
     30787     10263  TIP3      OH2           -13.3255566405        0.1973577139      -10.0360796465  W2        10263           0.0000000000
     30788     10263  TIP3      H1            -13.1735166405       -0.1506022861       -9.1574296465  W2        10263           0.0000000000
     30789     10263  TIP3      H2            -14.1765166405       -0.1589122861      -10.2913596465  W2        10263           0.0000000000
     30790     10264  TIP3      OH2            -3.8773366405        0.5626777139      -14.8147396465  W2        10264           0.0000000000
     30791     10264  TIP3      H1             -3.5024966405       -0.1817122861      -15.2854796465  W2        10264           0.0000000000
     30792     10264  TIP3      H2             -3.8729666405        0.2927377139      -13.8964096465  W2        10264           0.0000000000
     30793     10265  TIP3      OH2            -4.2085266405        0.4883877139      -12.0655196465  W2        10265           0.0000000000
     30794     10265  TIP3      H1             -5.1435466405        0.5885777139      -11.8868196465  W2        10265           0.0000000000
     30795     10265  TIP3      H2             -3.9283366405       -0.2210122861      -11.4871996465  W2        10265           0.0000000000
     30796     10266  TIP3      OH2            -1.2199366405      -10.4443822861       -0.0189596465  W2        10266           0.0000000000
     30797     10266  TIP3      H1             -1.6272566405       -9.9638222861       -0.7396296465  W2        10266           0.0000000000
     30798     10266  TIP3      H2             -1.1793666405      -11.3497822861       -0.3268796465  W2        10266           0.0000000000
     30799     10267  TIP3      OH2           -14.0709866405       -4.0604422861       -2.0222896465  W2        10267           0.0000000000
     30800     10267  TIP3      H1            -13.8548566405       -4.4218822861       -1.1627096465  W2        10267           0.0000000000
     30801     10267  TIP3      H2            -14.9265166405       -4.4350622861       -2.2319396465  W2        10267           0.0000000000
     30802     10268  TIP3      OH2           -11.4521866405      -15.5903922861       -6.0268696465  W2        10268           0.0000000000
     30803     10268  TIP3      H1            -12.3138166405      -15.6775722861       -6.4345796465  W2        10268           0.0000000000
     30804     10268  TIP3      H2            -11.4746166405      -14.7343822861       -5.5991096465  W2        10268           0.0000000000
     30805     10269  TIP3      OH2            -6.7894066405      -15.8683522861       -2.6521696465  W2        10269           0.0000000000
     30806     10269  TIP3      H1             -6.3690966405      -16.2836422861       -1.8991096465  W2        10269           0.0000000000
     30807     10269  TIP3      H2             -7.7224466405      -16.0470222861       -2.5349696465  W2        10269           0.0000000000
     30808     10270  TIP3      OH2            -3.4629166405      -12.1128322861       -1.7987196465  W2        10270           0.0000000000
     30809     10270  TIP3      H1             -3.9769666405      -12.2386122861       -1.0011196465  W2        10270           0.0000000000
     30810     10270  TIP3      H2             -3.6184466405      -11.2005222861       -2.0430996465  W2        10270           0.0000000000
     30811     10271  TIP3      OH2            -2.7004266405       -7.2518322861      -16.0374196465  W2        10271           0.0000000000
     30812     10271  TIP3      H1             -2.6583466405       -7.4744422861      -16.9674196465  W2        10271           0.0000000000
     30813     10271  TIP3      H2             -1.8512166405       -6.8531222861      -15.8474296465  W2        10271           0.0000000000
     30814     10272  TIP3      OH2            -7.1276766405      -13.3760122861      -15.3670896465  W2        10272           0.0000000000
     30815     10272  TIP3      H1             -7.3811966405      -13.3568522861      -14.4442796465  W2        10272           0.0000000000
     30816     10272  TIP3      H2             -7.3844666405      -14.2474722861      -15.6684696465  W2        10272           0.0000000000
     30817     10273  TIP3      OH2           -11.3611766405      -10.6249422861       -4.9318496465  W2        10273           0.0000000000
     30818     10273  TIP3      H1            -12.0029666405      -10.6652122861       -4.2228396465  W2        10273           0.0000000000
     30819     10273  TIP3      H2            -11.3239766405       -9.6984722861       -5.1695496465  W2        10273           0.0000000000
     30820     10274  TIP3      OH2           -11.3642666405      -10.4039322861      -10.0198496465  W2        10274           0.0000000000
     30821     10274  TIP3      H1            -12.2569766405      -10.7443222861      -10.0784696465  W2        10274           0.0000000000
     30822     10274  TIP3      H2            -10.9136066405      -10.7808422861      -10.7755296465  W2        10274           0.0000000000
     30823     10275  TIP3      OH2            -5.8287166405       -9.9879022861      -11.2027696465  W2        10275           0.0000000000
     30824     10275  TIP3      H1             -6.2376866405       -9.1730422861      -11.4942896465  W2        10275           0.0000000000
     30825     10275  TIP3      H2             -5.1080966405      -10.1278922861      -11.8170596465  W2        10275           0.0000000000
     30826     10276  TIP3      OH2            -6.7265566405       -9.8122622861        0.2853003535  W2        10276           0.0000000000
     30827     10276  TIP3      H1             -7.2891766405      -10.5171022861        0.6060803535  W2        10276           0.0000000000
     30828     10276  TIP3      H2             -5.9002166405       -9.9330722861        0.7530603535  W2        10276           0.0000000000
     30829     10277  TIP3      OH2            -4.8239466405      -10.5418622861       -8.3887996465  W2        10277           0.0000000000
     30830     10277  TIP3      H1             -5.0194966405       -9.9361822861       -9.1037396465  W2        10277           0.0000000000
     30831     10277  TIP3      H2             -4.6426866405      -11.3753422861       -8.8231696465  W2        10277           0.0000000000
     30832     10278  TIP3      OH2           -13.6111266405      -10.3045922861       -3.0646496465  W2        10278           0.0000000000
     30833     10278  TIP3      H1            -13.6491866405       -9.9044322861       -2.1959396465  W2        10278           0.0000000000
     30834     10278  TIP3      H2            -14.1020166405      -11.1213522861       -2.9743596465  W2        10278           0.0000000000
     30835     10279  TIP3      OH2           -10.2453866405      -12.9303622861      -16.2660496465  W2        10279           0.0000000000
     30836     10279  TIP3      H1            -10.6763166405      -13.3753522861      -15.5363096465  W2        10279           0.0000000000
     30837     10279  TIP3      H2            -10.9635166405      -12.5587322861      -16.7782996465  W2        10279           0.0000000000
     30838     10280  TIP3      OH2           -17.0030466405      -13.1884122861       -9.2141796465  W2        10280           0.0000000000
     30839     10280  TIP3      H1            -16.3722766405      -13.2172022861       -8.4947896465  W2        10280           0.0000000000
     30840     10280  TIP3      H2            -16.5536166405      -13.6135422861       -9.9445896465  W2        10280           0.0000000000
     30841     10281  TIP3      OH2           -15.7288366405      -12.4422122861      -13.7901396465  W2        10281           0.0000000000
     30842     10281  TIP3      H1            -15.2546666405      -11.8512222861      -14.3750496465  W2        10281           0.0000000000
     30843     10281  TIP3      H2            -16.4461966405      -11.9119222861      -13.4431296465  W2        10281           0.0000000000
     30844     10282  TIP3      OH2            -5.5600266405       -8.9037322861       -3.7175596465  W2        10282           0.0000000000
     30845     10282  TIP3      H1             -5.2365466405       -9.5347622861       -4.3605096465  W2        10282           0.0000000000
     30846     10282  TIP3      H2             -6.0000966405       -9.4385122861       -3.0568196465  W2        10282           0.0000000000
     30847     10283  TIP3      OH2            -8.7827366405      -12.9761822861       -8.9334396465  W2        10283           0.0000000000
     30848     10283  TIP3      H1             -9.6936266405      -12.9195022861       -8.6448396465  W2        10283           0.0000000000
     30849     10283  TIP3      H2             -8.2774466405      -13.0366322861       -8.1227196465  W2        10283           0.0000000000
     30850     10284  TIP3      OH2           -13.9543966405      -11.3475522861      -10.1066796465  W2        10284           0.0000000000
     30851     10284  TIP3      H1            -14.8435966405      -11.2480022861      -10.4467196465  W2        10284           0.0000000000
     30852     10284  TIP3      H2            -13.6579066405      -12.1892522861      -10.4528896465  W2        10284           0.0000000000
     30853     10285  TIP3      OH2           -10.3012166405      -11.3472922861      -12.4502196465  W2        10285           0.0000000000
     30854     10285  TIP3      H1             -9.3696666405      -11.2182922861      -12.2719096465  W2        10285           0.0000000000
     30855     10285  TIP3      H2            -10.5161866405      -10.6778622861      -13.0997496465  W2        10285           0.0000000000
     30856     10286  TIP3      OH2            -4.3775466405      -13.7415522861       -5.6692596465  W2        10286           0.0000000000
     30857     10286  TIP3      H1             -5.0543866405      -13.6102422861       -5.0052896465  W2        10286           0.0000000000
     30858     10286  TIP3      H2             -4.8630566405      -13.8966022861       -6.4794896465  W2        10286           0.0000000000
     30859     10287  TIP3      OH2           -11.6271966405      -10.1530722861      -14.8836096465  W2        10287           0.0000000000
     30860     10287  TIP3      H1            -12.1696866405      -10.5326922861      -15.5748496465  W2        10287           0.0000000000
     30861     10287  TIP3      H2            -10.7937066405       -9.9586022861      -15.3121996465  W2        10287           0.0000000000
     30862     10288  TIP3      OH2            -1.0900366405        1.9299877139        0.6075003535  W2        10288           0.0000000000
     30863     10288  TIP3      H1             -0.8901666405        2.3541777139       -0.2269696465  W2        10288           0.0000000000
     30864     10288  TIP3      H2             -0.4346666405        2.2738077139        1.2145403535  W2        10288           0.0000000000
     30865     10289  TIP3      OH2           -13.4920566405       -5.5958822861        0.2155503535  W2        10289           0.0000000000
     30866     10289  TIP3      H1            -12.7598166405       -5.3412922861        0.7770003535  W2        10289           0.0000000000
     30867     10289  TIP3      H2            -14.2721866405       -5.3913422861        0.7310903535  W2        10289           0.0000000000
     30868     10290  TIP3      OH2            -7.4627666405      -10.1888822861       -7.0464796465  W2        10290           0.0000000000
     30869     10290  TIP3      H1             -6.8984266405      -10.7352222861       -7.5935196465  W2        10290           0.0000000000
     30870     10290  TIP3      H2             -7.6104266405      -10.7106922861       -6.2577196465  W2        10290           0.0000000000
     30871     10291  TIP3      OH2           -12.4607966405      -14.0522722861      -10.6279996465  W2        10291           0.0000000000
     30872     10291  TIP3      H1            -12.7778466405      -14.9547422861      -10.6634596465  W2        10291           0.0000000000
     30873     10291  TIP3      H2            -11.6793866405      -14.0505322861      -11.1808396465  W2        10291           0.0000000000
     30874     10292  TIP3      OH2            -8.8361766405      -11.8002722861       -4.6324396465  W2        10292           0.0000000000
     30875     10292  TIP3      H1             -9.6716466405      -11.3463222861       -4.5221996465  W2        10292           0.0000000000
     30876     10292  TIP3      H2             -8.3121166405      -11.5244222861       -3.8804496465  W2        10292           0.0000000000
     30877     10293  TIP3      OH2            -8.2919166405       -5.5875022861      -12.9477996465  W2        10293           0.0000000000
     30878     10293  TIP3      H1             -9.0368166405       -6.0949722861      -13.2700096465  W2        10293           0.0000000000
     30879     10293  TIP3      H2             -8.4261966405       -5.5387022861      -12.0013196465  W2        10293           0.0000000000
     30880     10294  TIP3      OH2            -1.1420266405       -6.4546822861       -4.1610396465  W2        10294           0.0000000000
     30881     10294  TIP3      H1             -0.5001466405       -5.9980522861       -4.7048196465  W2        10294           0.0000000000
     30882     10294  TIP3      H2             -1.9723366405       -6.3414422861       -4.6236296465  W2        10294           0.0000000000
     30883     10295  TIP3      OH2            -4.3942366405      -12.7735122861      -14.7485396465  W2        10295           0.0000000000
     30884     10295  TIP3      H1             -5.3328166405      -12.6619522861      -14.8996596465  W2        10295           0.0000000000
     30885     10295  TIP3      H2             -4.0970266405      -11.9168222861      -14.4419696465  W2        10295           0.0000000000
     30886     10296  TIP3      OH2            -6.7727066405       -5.4031722861       -1.7108896465  W2        10296           0.0000000000
     30887     10296  TIP3      H1             -7.1180966405       -5.7849322861       -0.9039296465  W2        10296           0.0000000000
     30888     10296  TIP3      H2             -6.9726966405       -4.4698122861       -1.6395996465  W2        10296           0.0000000000
     30889     10297  TIP3      OH2            -3.6758866405      -10.9062422861      -13.0877996465  W2        10297           0.0000000000
     30890     10297  TIP3      H1             -2.7839866405      -11.0437422861      -12.7686796465  W2        10297           0.0000000000
     30891     10297  TIP3      H2             -3.6195266405      -10.1156322861      -13.6244496465  W2        10297           0.0000000000
     30892     10298  TIP3      OH2           -13.1670866405       -6.2925022861       -7.1780096465  W2        10298           0.0000000000
     30893     10298  TIP3      H1            -12.4223666405       -6.2949322861       -7.7793596465  W2        10298           0.0000000000
     30894     10298  TIP3      H2            -13.0894266405       -7.1161222861       -6.6964996465  W2        10298           0.0000000000
     30895     10299  TIP3      OH2            -6.1665066405       -4.1290722861      -13.9223396465  W2        10299           0.0000000000
     30896     10299  TIP3      H1             -6.4616666405       -3.3022822861      -13.5408596465  W2        10299           0.0000000000
     30897     10299  TIP3      H2             -6.8695066405       -4.7483822861      -13.7261996465  W2        10299           0.0000000000
     30898     10300  TIP3      OH2           -16.1591166405       -7.8318122861       -1.8631596465  W2        10300           0.0000000000
     30899     10300  TIP3      H1            -15.9362566405       -8.2498522861       -1.0314096465  W2        10300           0.0000000000
     30900     10300  TIP3      H2            -16.7611066405       -8.4443122861       -2.2858796465  W2        10300           0.0000000000
     30901     10301  TIP3      OH2            -9.1426266405       -8.3148222861        0.3498103535  W2        10301           0.0000000000
     30902     10301  TIP3      H1             -9.4385466405       -8.4805222861       -0.5452796465  W2        10301           0.0000000000
     30903     10301  TIP3      H2             -8.2111066405       -8.5347922861        0.3392003535  W2        10301           0.0000000000
     30904     10302  TIP3      OH2            -4.5223466405       -2.9416222861       -1.7603896465  W2        10302           0.0000000000
     30905     10302  TIP3      H1             -5.4229166405       -2.7583622861       -2.0279996465  W2        10302           0.0000000000
     30906     10302  TIP3      H2             -4.4882366405       -2.6826922861       -0.8395096465  W2        10302           0.0000000000
     30907     10303  TIP3      OH2             1.2089833595      -10.6968322861      -13.3931296465  W2        10303           0.0000000000
     30908     10303  TIP3      H1              0.6546133595      -11.0930322861      -14.0653796465  W2        10303           0.0000000000
     30909     10303  TIP3      H2              1.3093433595       -9.7863122861      -13.6707996465  W2        10303           0.0000000000
     30910     10304  TIP3      OH2             1.1721833595       -4.8966622861       -0.5559796465  W2        10304           0.0000000000
     30911     10304  TIP3      H1              0.3210333595       -4.6582822861       -0.9233396465  W2        10304           0.0000000000
     30912     10304  TIP3      H2              1.7625233595       -4.9133422861       -1.3092696465  W2        10304           0.0000000000
     30913     10305  TIP3      OH2            -0.4958466405       -1.9107922861      -12.9279196465  W2        10305           0.0000000000
     30914     10305  TIP3      H1             -0.8687366405       -2.7364122861      -12.6188596465  W2        10305           0.0000000000
     30915     10305  TIP3      H2             -0.2184966405       -2.0938522861      -13.8255796465  W2        10305           0.0000000000
     30916     10306  TIP3      OH2            -3.3354566405       -7.1028422861       -5.9067296465  W2        10306           0.0000000000
     30917     10306  TIP3      H1             -4.2637666405       -7.3346522861       -5.9337996465  W2        10306           0.0000000000
     30918     10306  TIP3      H2             -2.8843466405       -7.8798622861       -6.2368496465  W2        10306           0.0000000000
     30919     10307  TIP3      OH2           -10.7921466405       -2.7746822861       -9.7738596465  W2        10307           0.0000000000
     30920     10307  TIP3      H1            -10.2649266405       -2.0012422861       -9.9739796465  W2        10307           0.0000000000
     30921     10307  TIP3      H2            -11.6722966405       -2.5497622861      -10.0754596465  W2        10307           0.0000000000
     30922     10308  TIP3      OH2           -15.0373766405       -7.9122722861      -15.1866196465  W2        10308           0.0000000000
     30923     10308  TIP3      H1            -14.4213866405       -7.2855522861      -14.8071396465  W2        10308           0.0000000000
     30924     10308  TIP3      H2            -15.8991166405       -7.5962922861      -14.9149696465  W2        10308           0.0000000000
     30925     10309  TIP3      OH2            -9.3649166405       -5.1116922861      -10.1974296465  W2        10309           0.0000000000
     30926     10309  TIP3      H1             -9.6059166405       -4.1862522861      -10.1558996465  W2        10309           0.0000000000
     30927     10309  TIP3      H2            -10.1055566405       -5.5705622861       -9.8010396465  W2        10309           0.0000000000
     30928     10310  TIP3      OH2            -8.8502566405       -0.9623322861       -3.8823196465  W2        10310           0.0000000000
     30929     10310  TIP3      H1             -8.4877866405       -0.1077722861       -4.1158796465  W2        10310           0.0000000000
     30930     10310  TIP3      H2             -8.3187366405       -1.2541722861       -3.1416896465  W2        10310           0.0000000000
     30931     10311  TIP3      OH2           -10.6818366405       -0.0899322861      -10.6522096465  W2        10311           0.0000000000
     30932     10311  TIP3      H1            -11.6317866405        0.0158077139      -10.6008796465  W2        10311           0.0000000000
     30933     10311  TIP3      H2            -10.3300266405        0.7308077139      -10.3074596465  W2        10311           0.0000000000
     30934     10312  TIP3      OH2            -5.3061766405       -4.8632622861       -4.1817596465  W2        10312           0.0000000000
     30935     10312  TIP3      H1             -5.7320466405       -5.0910922861       -3.3553596465  W2        10312           0.0000000000
     30936     10312  TIP3      H2             -4.7255966405       -5.6020822861       -4.3642296465  W2        10312           0.0000000000
     30937     10313  TIP3      OH2            -3.1032866405       -3.9342122861      -15.1078596465  W2        10313           0.0000000000
     30938     10313  TIP3      H1             -2.7499766405       -4.3142322861      -14.3035096465  W2        10313           0.0000000000
     30939     10313  TIP3      H2             -4.0519366405       -4.0277322861      -15.0209296465  W2        10313           0.0000000000
     30940     10314  TIP3      OH2            -2.6477566405       -0.3113122861       -1.7122796465  W2        10314           0.0000000000
     30941     10314  TIP3      H1             -3.2494366405       -0.8670222861       -2.2076496465  W2        10314           0.0000000000
     30942     10314  TIP3      H2             -2.3663866405        0.3556677139       -2.3385396465  W2        10314           0.0000000000
     30943     10315  TIP3      OH2             1.4001533595        0.5450377139      -14.9068396465  W2        10315           0.0000000000
     30944     10315  TIP3      H1              2.1439433595        1.1310877139      -15.0466796465  W2        10315           0.0000000000
     30945     10315  TIP3      H2              0.7059633595        1.1136177139      -14.5735996465  W2        10315           0.0000000000
     30946     10316  TIP3      OH2           -14.5251666405      -13.0785422861       -2.3050196465  W2        10316           0.0000000000
     30947     10316  TIP3      H1            -15.4179366405      -12.7400022861       -2.3726196465  W2        10316           0.0000000000
     30948     10316  TIP3      H2            -14.6238866405      -13.9339322861       -1.8869396465  W2        10316           0.0000000000
     30949     10317  TIP3      OH2            -2.2373566405       -5.2620122861      -12.8810696465  W2        10317           0.0000000000
     30950     10317  TIP3      H1             -2.5145966405       -5.9900822861      -12.3249596465  W2        10317           0.0000000000
     30951     10317  TIP3      H2             -1.3100566405       -5.1428122861      -12.6758096465  W2        10317           0.0000000000
     30952     10318  TIP3      OH2           -14.8739666405       -1.2741022861       -3.8700796465  W2        10318           0.0000000000
     30953     10318  TIP3      H1            -14.6569366405       -2.2058622861       -3.9011096465  W2        10318           0.0000000000
     30954     10318  TIP3      H2            -14.6276166405       -0.9996022861       -2.9867996465  W2        10318           0.0000000000
     30955     10319  TIP3      OH2            -9.0125066405       -2.8226022861      -16.6608596465  W2        10319           0.0000000000
     30956     10319  TIP3      H1             -8.7735266405       -3.5707922861      -17.2079696465  W2        10319           0.0000000000
     30957     10319  TIP3      H2             -9.2813766405       -3.2104322861      -15.8280796465  W2        10319           0.0000000000
     30958     10320  TIP3      OH2           -10.0754466405       -3.2522222861      -14.2045996465  W2        10320           0.0000000000
     30959     10320  TIP3      H1             -9.9286466405       -3.7722422861      -13.4145096465  W2        10320           0.0000000000
     30960     10320  TIP3      H2            -10.0782766405       -2.3454622861      -13.8980096465  W2        10320           0.0000000000
     30961     10321  TIP3      OH2           -13.6223366405       -5.9998922861      -13.6940596465  W2        10321           0.0000000000
     30962     10321  TIP3      H1            -14.3084066405       -5.6476422861      -13.1270896465  W2        10321           0.0000000000
     30963     10321  TIP3      H2            -13.0995466405       -5.2369322861      -13.9406296465  W2        10321           0.0000000000
     30964     10322  TIP3      OH2            -5.7908266405      -13.3375122861       -3.4151596465  W2        10322           0.0000000000
     30965     10322  TIP3      H1             -5.0920366405      -13.2636422861       -2.7651896465  W2        10322           0.0000000000
     30966     10322  TIP3      H2             -6.1716866405      -14.2020122861       -3.2608696465  W2        10322           0.0000000000
     30967     10323  TIP3      OH2            -5.0063366405      -13.6853422861      -12.3179296465  W2        10323           0.0000000000
     30968     10323  TIP3      H1             -4.7865066405      -13.2138022861      -13.1213896465  W2        10323           0.0000000000
     30969     10323  TIP3      H2             -4.4479366405      -13.2910822861      -11.6478696465  W2        10323           0.0000000000
     30970     10324  TIP3      OH2            -7.3377266405       -1.5548622861      -13.4551796465  W2        10324           0.0000000000
     30971     10324  TIP3      H1             -8.1541166405       -1.0578922861      -13.4027496465  W2        10324           0.0000000000
     30972     10324  TIP3      H2             -6.8080966405       -1.0795122861      -14.0952996465  W2        10324           0.0000000000
     30973     10325  TIP3      OH2            -7.8063466405      -11.9574622861      -11.4830896465  W2        10325           0.0000000000
     30974     10325  TIP3      H1             -6.9940866405      -11.4531422861      -11.4369196465  W2        10325           0.0000000000
     30975     10325  TIP3      H2             -8.0510466405      -12.1024922861      -10.5691296465  W2        10325           0.0000000000
     30976     10326  TIP3      OH2            -7.2707066405      -10.9711922861       -2.2984296465  W2        10326           0.0000000000
     30977     10326  TIP3      H1             -7.1516766405      -10.3976522861       -1.5413896465  W2        10326           0.0000000000
     30978     10326  TIP3      H2             -6.6152466405      -11.6592522861       -2.1836496465  W2        10326           0.0000000000
     30979     10327  TIP3      OH2            -6.9226766405      -14.8761622861      -10.5449796465  W2        10327           0.0000000000
     30980     10327  TIP3      H1             -7.2693266405      -14.2591022861       -9.9005496465  W2        10327           0.0000000000
     30981     10327  TIP3      H2             -6.2639866405      -14.3755922861      -11.0264296465  W2        10327           0.0000000000
     30982     10328  TIP3      OH2            -9.9994166405       -0.5111422861      -13.4734896465  W2        10328           0.0000000000
     30983     10328  TIP3      H1             -9.8385466405        0.2886077139      -13.9742296465  W2        10328           0.0000000000
     30984     10328  TIP3      H2            -10.1966366405       -0.2045422861      -12.5884296465  W2        10328           0.0000000000
     30985     10329  TIP3      OH2           -11.2649766405      -13.8132222861      -13.8577296465  W2        10329           0.0000000000
     30986     10329  TIP3      H1            -11.3484966405      -12.9249122861      -13.5110896465  W2        10329           0.0000000000
     30987     10329  TIP3      H2            -10.3749466405      -14.0785522861      -13.6260496465  W2        10329           0.0000000000
     30988     10330  TIP3      OH2            -1.0661266405      -13.0641622861       -1.4634596465  W2        10330           0.0000000000
     30989     10330  TIP3      H1             -1.9825466405      -12.8019922861       -1.5510896465  W2        10330           0.0000000000
     30990     10330  TIP3      H2             -0.7306266405      -13.0672622861       -2.3599296465  W2        10330           0.0000000000
     30991     10331  TIP3      OH2            -2.4640266405       -9.3140622861       -7.3677296465  W2        10331           0.0000000000
     30992     10331  TIP3      H1             -3.2615866405       -9.7290422861       -7.6962296465  W2        10331           0.0000000000
     30993     10331  TIP3      H2             -2.0189166405      -10.0046922861       -6.8766796465  W2        10331           0.0000000000
     30994     10332  TIP3      OH2           -13.0064466405       -3.3860022861      -14.7972796465  W2        10332           0.0000000000
     30995     10332  TIP3      H1            -12.4142966405       -2.6865222861      -14.5210396465  W2        10332           0.0000000000
     30996     10332  TIP3      H2            -12.5471466405       -3.8190522861      -15.5168196465  W2        10332           0.0000000000
     30997     10333  TIP3      OH2           -14.6905266405      -10.7217022861      -15.6813396465  W2        10333           0.0000000000
     30998     10333  TIP3      H1            -14.7352666405       -9.7823922861      -15.5026396465  W2        10333           0.0000000000
     30999     10333  TIP3      H2            -15.5782066405      -10.9572122861      -15.9511296465  W2        10333           0.0000000000
     31000     10334  TIP3      OH2            -1.3775666405       -0.0578122861       -5.7453796465  W2        10334           0.0000000000
     31001     10334  TIP3      H1             -1.5331366405        0.6206277139       -6.4024496465  W2        10334           0.0000000000
     31002     10334  TIP3      H2             -0.4449266405        0.0141177139       -5.5423196465  W2        10334           0.0000000000
     31003     10335  TIP3      OH2           -13.8823266405      -15.9400422861       -7.0082396465  W2        10335           0.0000000000
     31004     10335  TIP3      H1            -14.1113466405      -15.8807922861       -7.9357396465  W2        10335           0.0000000000
     31005     10335  TIP3      H2            -14.3249866405      -16.7314922861       -6.7018296465  W2        10335           0.0000000000
     31006     10336  TIP3      OH2           -14.9519966405       -1.9993322861      -10.8476596465  W2        10336           0.0000000000
     31007     10336  TIP3      H1            -15.7841366405       -1.5270622861      -10.8205196465  W2        10336           0.0000000000
     31008     10336  TIP3      H2            -14.4061666405       -1.4895722861      -11.4463496465  W2        10336           0.0000000000
     31009     10337  TIP3      OH2           -15.6636266405        0.6130377139        0.4821403535  W2        10337           0.0000000000
     31010     10337  TIP3      H1            -15.1234066405        0.3964377139        1.2420603535  W2        10337           0.0000000000
     31011     10337  TIP3      H2            -16.1448266405       -0.1923622861        0.2923903535  W2        10337           0.0000000000
     31012     10338  TIP3      OH2           -11.0662866405       -0.4675222861        2.1025603535  W2        10338           0.0000000000
     31013     10338  TIP3      H1            -10.2985666405       -0.9264422861        2.4434803535  W2        10338           0.0000000000
     31014     10338  TIP3      H2            -11.0876666405       -0.6935422861        1.1726803535  W2        10338           0.0000000000
     31015     10339  TIP3      OH2            -6.9743266405       -0.9594622861      -16.5222596465  W2        10339           0.0000000000
     31016     10339  TIP3      H1             -7.6182266405       -1.5906022861      -16.2008896465  W2        10339           0.0000000000
     31017     10339  TIP3      H2             -6.2124966405       -1.4906622861      -16.7539096465  W2        10339           0.0000000000
     31018     10340  TIP3      OH2            -4.4894166405       -2.0874122861        0.8317103535  W2        10340           0.0000000000
     31019     10340  TIP3      H1             -4.8404666405       -2.9441122861        1.0747503535  W2        10340           0.0000000000
     31020     10340  TIP3      H2             -3.7630966405       -1.9447422861        1.4386103535  W2        10340           0.0000000000
     31021     10341  TIP3      OH2            -2.3700366405       -1.1424722861      -16.2884596465  W2        10341           0.0000000000
     31022     10341  TIP3      H1             -2.0869966405       -1.9369522861      -15.8357696465  W2        10341           0.0000000000
     31023     10341  TIP3      H2             -1.6302466405       -0.9093722861      -16.8493496465  W2        10341           0.0000000000
     31024     10342  TIP3      OH2           -15.7566766405       -5.5765522861        1.4365703535  W2        10342           0.0000000000
     31025     10342  TIP3      H1            -15.6126266405       -6.4784822861        1.1502403535  W2        10342           0.0000000000
     31026     10342  TIP3      H2            -16.5289366405       -5.2903422861        0.9488003535  W2        10342           0.0000000000
     31027     10343  TIP3      OH2           -11.4153066405       -5.2329822861      -16.4309696465  W2        10343           0.0000000000
     31028     10343  TIP3      H1            -11.3508966405       -6.0270222861      -15.9003296465  W2        10343           0.0000000000
     31029     10343  TIP3      H2            -10.7623866405       -5.3517022861      -17.1207696465  W2        10343           0.0000000000
     31030     10344  TIP3      OH2            -9.1010666405       -5.6067422861        0.8692103535  W2        10344           0.0000000000
     31031     10344  TIP3      H1             -9.4296866405       -5.3359322861        0.0119503535  W2        10344           0.0000000000
     31032     10344  TIP3      H2             -8.9492466405       -6.5477622861        0.7817103535  W2        10344           0.0000000000
     31033     10345  TIP3      OH2            -6.0629666405       -4.1858122861      -16.6951696465  W2        10345           0.0000000000
     31034     10345  TIP3      H1             -6.3315566405       -4.0056022861      -15.7942796465  W2        10345           0.0000000000
     31035     10345  TIP3      H2             -6.2694066405       -5.1111922861      -16.8265896465  W2        10345           0.0000000000
     31036     10346  TIP3      OH2            -3.3665466405       -5.6910122861       -1.7475596465  W2        10346           0.0000000000
     31037     10346  TIP3      H1             -2.6210666405       -5.1026422861       -1.8671596465  W2        10346           0.0000000000
     31038     10346  TIP3      H2             -4.1238666405       -5.1090422861       -1.6842496465  W2        10346           0.0000000000
     31039     10347  TIP3      OH2           -14.9240266405       -8.3762222861        0.8565003535  W2        10347           0.0000000000
     31040     10347  TIP3      H1            -14.5159066405       -9.2335622861        0.7355603535  W2        10347           0.0000000000
     31041     10347  TIP3      H2            -15.1842666405       -8.3620922861        1.7775303535  W2        10347           0.0000000000
     31042     10348  TIP3      OH2           -10.2659266405       -7.2603622861      -14.1251696465  W2        10348           0.0000000000
     31043     10348  TIP3      H1            -10.7257266405       -7.7445322861      -13.4393196465  W2        10348           0.0000000000
     31044     10348  TIP3      H2            -10.0110566405       -7.9288222861      -14.7611196465  W2        10348           0.0000000000
     31045     10349  TIP3      OH2           -10.9769966405       -9.3676522861       -1.7692096465  W2        10349           0.0000000000
     31046     10349  TIP3      H1            -11.5953866405       -8.6929922861       -1.4887396465  W2        10349           0.0000000000
     31047     10349  TIP3      H2            -10.6328766405       -9.0462622861       -2.6025896465  W2        10349           0.0000000000
     31048     10350  TIP3      OH2            -9.1948866405       -9.0171822861      -15.8628496465  W2        10350           0.0000000000
     31049     10350  TIP3      H1             -9.3753866405       -9.1720622861      -16.7900196465  W2        10350           0.0000000000
     31050     10350  TIP3      H2             -8.2448366405       -8.9093122861      -15.8180596465  W2        10350           0.0000000000
     31051     10351  TIP3      OH2            -5.9571766405       -6.8961222861        1.5082703535  W2        10351           0.0000000000
     31052     10351  TIP3      H1             -5.0040566405       -6.8122122861        1.4808703535  W2        10351           0.0000000000
     31053     10351  TIP3      H2             -6.1177166405       -7.6079422861        2.1277603535  W2        10351           0.0000000000
     31054     10352  TIP3      OH2             0.1949433595       -6.6627622861      -16.4170396465  W2        10352           0.0000000000
     31055     10352  TIP3      H1             -0.0785766405       -7.0872122861      -17.2302096465  W2        10352           0.0000000000
     31056     10352  TIP3      H2              0.2343533595       -5.7313122861      -16.6339996465  W2        10352           0.0000000000
     31057     10353  TIP3      OH2           -10.6376266405      -12.0125722861       -0.6868996465  W2        10353           0.0000000000
     31058     10353  TIP3      H1            -10.4875366405      -12.7414422861       -1.2889296465  W2        10353           0.0000000000
     31059     10353  TIP3      H2            -10.6353866405      -11.2354022861       -1.2456796465  W2        10353           0.0000000000
     31060     10354  TIP3      OH2           -10.2250566405      -13.6429922861       -3.1941596465  W2        10354           0.0000000000
     31061     10354  TIP3      H1             -9.6893066405      -13.1913222861       -3.8462296465  W2        10354           0.0000000000
     31062     10354  TIP3      H2            -11.0770966405      -13.7510122861       -3.6167496465  W2        10354           0.0000000000
     31063     10355  TIP3      OH2            -8.6432166405       -8.2033722861       -2.9546396465  W2        10355           0.0000000000
     31064     10355  TIP3      H1             -7.8927366405       -8.3596222861       -3.5278596465  W2        10355           0.0000000000
     31065     10355  TIP3      H2             -8.9823866405       -7.3517122861       -3.2300896465  W2        10355           0.0000000000
     31066     10356  TIP3      OH2            -4.2275966405      -10.3881922861        2.0738903535  W2        10356           0.0000000000
     31067     10356  TIP3      H1             -4.0354666405      -11.3192522861        1.9623403535  W2        10356           0.0000000000
     31068     10356  TIP3      H2             -3.3699666405       -9.9632422861        2.0634303535  W2        10356           0.0000000000
     31069     10357  TIP3      OH2            -2.9108766405       -7.5996722861        0.1511603535  W2        10357           0.0000000000
     31070     10357  TIP3      H1             -3.1923766405       -6.8902122861       -0.4264596465  W2        10357           0.0000000000
     31071     10357  TIP3      H2             -1.9684466405       -7.6723722861        0.0002803535  W2        10357           0.0000000000
     31072     10358  TIP3      OH2           -12.1589966405      -10.8142222861        1.2246603535  W2        10358           0.0000000000
     31073     10358  TIP3      H1            -12.9260966405      -11.3467422861        1.0144203535  W2        10358           0.0000000000
     31074     10358  TIP3      H2            -11.4800966405      -11.1241822861        0.6252903535  W2        10358           0.0000000000
     31075     10359  TIP3      OH2            -9.4195066405      -16.1864222861       -2.7627996465  W2        10359           0.0000000000
     31076     10359  TIP3      H1             -9.5175466405      -15.2401022861       -2.8681796465  W2        10359           0.0000000000
     31077     10359  TIP3      H2            -10.1618866405      -16.5590422861       -3.2384496465  W2        10359           0.0000000000
     31078     10360  TIP3      OH2            -8.1554566405      -11.8648822861        0.8010403535  W2        10360           0.0000000000
     31079     10360  TIP3      H1             -8.3909166405      -12.0842122861        1.7025303535  W2        10360           0.0000000000
     31080     10360  TIP3      H2             -8.9387666405      -12.0717622861        0.2912903535  W2        10360           0.0000000000
     31081     10361  TIP3      OH2            -5.4397966405      -12.7375322861       -0.1236096465  W2        10361           0.0000000000
     31082     10361  TIP3      H1             -6.3872566405      -12.7055622861        0.0087203535  W2        10361           0.0000000000
     31083     10361  TIP3      H2             -5.1271266405      -13.3628222861        0.5302103535  W2        10361           0.0000000000
     31084     10362  TIP3      OH2            -3.8056466405      -14.1034222861        1.8815803535  W2        10362           0.0000000000
     31085     10362  TIP3      H1             -3.9024666405      -15.0556922861        1.8757703535  W2        10362           0.0000000000
     31086     10362  TIP3      H2             -4.1273366405      -13.8347422861        2.7421303535  W2        10362           0.0000000000
     31087     10363  TIP3      OH2           -13.9787166405      -12.8938422861        0.9291303535  W2        10363           0.0000000000
     31088     10363  TIP3      H1            -13.7669766405      -13.6002322861        0.3188803535  W2        10363           0.0000000000
     31089     10363  TIP3      H2            -14.0899666405      -13.3312422861        1.7732503535  W2        10363           0.0000000000
     31090     10364  TIP3      OH2            -9.1976966405      -16.8926822861       -0.0915196465  W2        10364           0.0000000000
     31091     10364  TIP3      H1             -8.4858566405      -17.5324622861       -0.1056096465  W2        10364           0.0000000000
     31092     10364  TIP3      H2             -9.2986566405      -16.6258522861       -1.0052096465  W2        10364           0.0000000000
     31093     10365  TIP3      OH2            -8.8439466405      -15.2098422861        1.9621103535  W2        10365           0.0000000000
     31094     10365  TIP3      H1             -8.9757266405      -15.6854622861        1.1419603535  W2        10365           0.0000000000
     31095     10365  TIP3      H2             -9.4432066405      -14.4654822861        1.9068203535  W2        10365           0.0000000000
     31096     10366  TIP3      OH2            -9.2977166405        1.6731877139      -14.8614896465  W2        10366           0.0000000000
     31097     10366  TIP3      H1             -8.3646466405        1.8310577139      -14.7176496465  W2        10366           0.0000000000
     31098     10366  TIP3      H2             -9.5618366405        2.3484877139      -15.4863396465  W2        10366           0.0000000000
     31099     10367  TIP3      OH2           -15.7292266405       -3.6904322861      -15.3786796465  W2        10367           0.0000000000
     31100     10367  TIP3      H1            -14.8153066405       -3.6115422861      -15.1052896465  W2        10367           0.0000000000
     31101     10367  TIP3      H2            -15.7219166405       -4.3774722861      -16.0451196465  W2        10367           0.0000000000
     31102     10368  TIP3      OH2           -17.0801666405        1.7024177139      -10.3012896465  W2        10368           0.0000000000
     31103     10368  TIP3      H1            -17.7274566405        1.2405877139      -10.8341696465  W2        10368           0.0000000000
     31104     10368  TIP3      H2            -16.7257066405        1.0307477139       -9.7186696465  W2        10368           0.0000000000
     31105     10369  TIP3      OH2           -16.2102466405       -0.2168822861       -8.4966696465  W2        10369           0.0000000000
     31106     10369  TIP3      H1            -16.5445666405       -1.0971522861       -8.3246496465  W2        10369           0.0000000000
     31107     10369  TIP3      H2            -15.9880066405        0.1286177139       -7.6321096465  W2        10369           0.0000000000
     31108     10370  TIP3      OH2             1.3382333595        0.5927577139       -5.5161896465  W2        10370           0.0000000000
     31109     10370  TIP3      H1              1.3169033595        0.7775977139       -4.5772496465  W2        10370           0.0000000000
     31110     10370  TIP3      H2              2.0288533595        1.1611577139       -5.8570496465  W2        10370           0.0000000000
     31111     10371  TIP3      OH2             0.9015233595        0.1598677139       -2.5942796465  W2        10371           0.0000000000
     31112     10371  TIP3      H1              0.4143933595       -0.5757222861       -2.9655396465  W2        10371           0.0000000000
     31113     10371  TIP3      H2              1.4507933595       -0.2337422861       -1.9163396465  W2        10371           0.0000000000
     31114     10372  TIP3      OH2            -0.6477466405       -4.0503222861        2.0437503535  W2        10372           0.0000000000
     31115     10372  TIP3      H1             -1.5136366405       -4.1553522861        2.4379803535  W2        10372           0.0000000000
     31116     10372  TIP3      H2             -0.2711566405       -3.2919922861        2.4902203535  W2        10372           0.0000000000
     31117     10373  TIP3      OH2             0.6532233595       -5.7939522861      -12.4419996465  W2        10373           0.0000000000
     31118     10373  TIP3      H1              1.5033633595       -5.3728622861      -12.3148396465  W2        10373           0.0000000000
     31119     10373  TIP3      H2              0.6587333595       -6.5339422861      -11.8348596465  W2        10373           0.0000000000
     31120     10374  TIP3      OH2             1.0477833595       -7.7402122861      -10.6184296465  W2        10374           0.0000000000
     31121     10374  TIP3      H1              0.3212433595       -8.2199522861      -10.2206696465  W2        10374           0.0000000000
     31122     10374  TIP3      H2              1.6291133595       -7.5347422861       -9.8862696465  W2        10374           0.0000000000
     31123     10375  TIP3      OH2             0.8069033595       -4.9554622861       -5.6706696465  W2        10375           0.0000000000
     31124     10375  TIP3      H1              1.6403233595       -5.3334622861       -5.9513096465  W2        10375           0.0000000000
     31125     10375  TIP3      H2              0.9189333595       -4.0123422861       -5.7897596465  W2        10375           0.0000000000
     31126     10376  TIP3      OH2            -0.7068666405       -2.0777122861       -3.3638296465  W2        10376           0.0000000000
     31127     10376  TIP3      H1             -1.3543366405       -1.7525622861       -2.7383096465  W2        10376           0.0000000000
     31128     10376  TIP3      H2             -1.2244666405       -2.5179422861       -4.0379996465  W2        10376           0.0000000000
     31129     10377  TIP3      OH2             1.3160933595       -7.8393622861      -14.2272996465  W2        10377           0.0000000000
     31130     10377  TIP3      H1              0.7942033595       -7.4829522861      -14.9462096465  W2        10377           0.0000000000
     31131     10377  TIP3      H2              1.2830133595       -7.1645822861      -13.5492096465  W2        10377           0.0000000000
     31132     10378  TIP3      OH2            -0.3350066405      -10.5998022861      -15.6765896465  W2        10378           0.0000000000
     31133     10378  TIP3      H1             -0.2385666405       -9.9331022861      -16.3566196465  W2        10378           0.0000000000
     31134     10378  TIP3      H2             -0.4750466405      -11.4151722861      -16.1580396465  W2        10378           0.0000000000
     31135     10379  TIP3      OH2            -1.1655366405       -9.2195622861      -10.0555596465  W2        10379           0.0000000000
     31136     10379  TIP3      H1             -1.3156566405      -10.1647022861      -10.0757796465  W2        10379           0.0000000000
     31137     10379  TIP3      H2             -1.5190866405       -8.9384222861       -9.2116496465  W2        10379           0.0000000000
     31138     10380  TIP3      OH2           -16.1302966405       -7.1413422861       -6.0451796465  W2        10380           0.0000000000
     31139     10380  TIP3      H1            -15.9460066405       -7.2231722861       -6.9808896465  W2        10380           0.0000000000
     31140     10380  TIP3      H2            -15.2810066405       -7.2656422861       -5.6215396465  W2        10380           0.0000000000
     31141     10381  TIP3      OH2            -0.3092466405       -7.2492322861       -0.4167296465  W2        10381           0.0000000000
     31142     10381  TIP3      H1              0.2734833595       -7.9840022861       -0.2250096465  W2        10381           0.0000000000
     31143     10381  TIP3      H2              0.2546833595       -6.4772022861       -0.3701496465  W2        10381           0.0000000000
     31144     10382  TIP3      OH2             1.1874633595       -9.3466522861        0.2678103535  W2        10382           0.0000000000
     31145     10382  TIP3      H1              0.3241333595       -9.7254422861        0.1022803535  W2        10382           0.0000000000
     31146     10382  TIP3      H2              1.7918333595      -10.0851722861        0.1933903535  W2        10382           0.0000000000
     31147     10383  TIP3      OH2            -1.0876266405      -13.1918222861      -16.5590396465  W2        10383           0.0000000000
     31148     10383  TIP3      H1             -0.4770466405      -13.5631422861      -15.9222196465  W2        10383           0.0000000000
     31149     10383  TIP3      H2             -1.9244766405      -13.6131322861      -16.3630396465  W2        10383           0.0000000000
     31150     10384  TIP3      OH2            -1.4550566405      -11.6369822861      -11.5930496465  W2        10384           0.0000000000
     31151     10384  TIP3      H1             -1.1753466405      -12.5439422861      -11.4688796465  W2        10384           0.0000000000
     31152     10384  TIP3      H2             -0.6958866405      -11.2028322861      -11.9821296465  W2        10384           0.0000000000
     31153     10385  TIP3      OH2            -0.8432266405      -11.0552422861       -6.1571596465  W2        10385           0.0000000000
     31154     10385  TIP3      H1              0.0895733595      -10.8432522861       -6.1915596465  W2        10385           0.0000000000
     31155     10385  TIP3      H2             -1.0784766405      -10.9540322861       -5.2348596465  W2        10385           0.0000000000
     31156     10386  TIP3      OH2            -0.8140366405      -10.3187122861       -3.3812196465  W2        10386           0.0000000000
     31157     10386  TIP3      H1             -1.6569066405      -10.0506722861       -3.0152396465  W2        10386           0.0000000000
     31158     10386  TIP3      H2             -0.3716066405       -9.4965222861       -3.5921096465  W2        10386           0.0000000000
     31159     10387  TIP3      OH2           -16.5328166405      -11.8708422861        0.0957003535  W2        10387           0.0000000000
     31160     10387  TIP3      H1            -15.6133266405      -11.9930122861        0.3320103535  W2        10387           0.0000000000
     31161     10387  TIP3      H2            -16.9823666405      -12.6208722861        0.4850503535  W2        10387           0.0000000000
     31162     10388  TIP3      OH2             1.4691233595      -16.3386922861        1.9722803535  W2        10388           0.0000000000
     31163     10388  TIP3      H1              1.8188233595      -16.9923422861        1.3667503535  W2        10388           0.0000000000
     31164     10388  TIP3      H2              1.6160733595      -15.5012822861        1.5325403535  W2        10388           0.0000000000
     31165     10389  TIP3      OH2            -0.8415766405      -14.3740522861      -11.5448496465  W2        10389           0.0000000000
     31166     10389  TIP3      H1             -0.6590766405      -14.8229022861      -10.7193496465  W2        10389           0.0000000000
     31167     10389  TIP3      H2             -1.4412866405      -14.9586122861      -12.0083896465  W2        10389           0.0000000000
     31168     10390  TIP3      OH2           -15.3115666405      -13.5586822861       -7.0130096465  W2        10390           0.0000000000
     31169     10390  TIP3      H1            -14.8664066405      -14.3504322861       -6.7110396465  W2        10390           0.0000000000
     31170     10390  TIP3      H2            -14.8452666405      -12.8421622861       -6.5824496465  W2        10390           0.0000000000
     31171     10391  TIP3      OH2           -17.0075366405      -10.5593822861       -5.9439896465  W2        10391           0.0000000000
     31172     10391  TIP3      H1            -16.5155566405      -10.7803322861       -6.7347896465  W2        10391           0.0000000000
     31173     10391  TIP3      H2            -16.6454466405       -9.7190422861       -5.6630396465  W2        10391           0.0000000000
     31174     10392  TIP3      OH2             0.9888433595      -14.2292322861        0.3214103535  W2        10392           0.0000000000
     31175     10392  TIP3      H1              0.0714133595      -13.9585222861        0.2857603535  W2        10392           0.0000000000
     31176     10392  TIP3      H2              1.1117833595      -14.7643922861       -0.4626196465  W2        10392           0.0000000000
     31177     10393  TIP3      OH2             1.0250433595      -14.3062422861      -15.0168196465  W2        10393           0.0000000000
     31178     10393  TIP3      H1              1.4373033595      -15.0276722861      -15.4920196465  W2        10393           0.0000000000
     31179     10393  TIP3      H2              1.7066933595      -13.6367822861      -14.9583896465  W2        10393           0.0000000000
     31180     10394  TIP3      OH2           -16.6938866405      -14.3014722861      -11.8897496465  W2        10394           0.0000000000
     31181     10394  TIP3      H1            -17.6190466405      -14.0928122861      -12.0191996465  W2        10394           0.0000000000
     31182     10394  TIP3      H2            -16.2398966405      -13.8173922861      -12.5795196465  W2        10394           0.0000000000
     31183     10395  TIP3      OH2            -1.9231666405        0.6826977139       -9.9440096465  W2        10395           0.0000000000
     31184     10395  TIP3      H1             -1.2708766405        0.3349077139      -10.5520996465  W2        10395           0.0000000000
     31185     10395  TIP3      H2             -1.4127866405        1.1710177139       -9.2980396465  W2        10395           0.0000000000
     31186     10396  TIP3      OH2           -16.7303466405      -15.5635722861       -3.5454996465  W2        10396           0.0000000000
     31187     10396  TIP3      H1            -17.3952966405      -15.8095422861       -2.9024096465  W2        10396           0.0000000000
     31188     10396  TIP3      H2            -17.1732166405      -14.9415322861       -4.1226996465  W2        10396           0.0000000000
     31189     10397  TIP3      OH2           -14.5384166405       -2.3881622861        0.5990803535  W2        10397           0.0000000000
     31190     10397  TIP3      H1            -15.3591666405       -2.2135122861        0.1385503535  W2        10397           0.0000000000
     31191     10397  TIP3      H2            -14.7906366405       -2.4616922861        1.5195203535  W2        10397           0.0000000000
     31192     10398  TIP3      OH2           -11.5841266405       -1.4140422861       -3.1425196465  W2        10398           0.0000000000
     31193     10398  TIP3      H1            -12.0090166405       -0.6041922861       -3.4250596465  W2        10398           0.0000000000
     31194     10398  TIP3      H2            -10.6798466405       -1.3286322861       -3.4445396465  W2        10398           0.0000000000
     31195     10399  TIP3      OH2            -7.2729866405       -0.0150422861       -0.1831496465  W2        10399           0.0000000000
     31196     10399  TIP3      H1             -7.0882366405       -0.3484322861        0.6948803535  W2        10399           0.0000000000
     31197     10399  TIP3      H2             -6.4265366405        0.2948177139       -0.5052296465  W2        10399           0.0000000000
     31198     10400  TIP3      OH2            -4.9279466405        1.2708477139       -0.9390096465  W2        10400           0.0000000000
     31199     10400  TIP3      H1             -4.2510566405        0.6380777139       -1.1790896465  W2        10400           0.0000000000
     31200     10400  TIP3      H2             -4.6060666405        1.6718977139       -0.1316796465  W2        10400           0.0000000000
     31201     10401  TIP3      OH2            -0.0105666405      -16.1396022861       -1.8595096465  W2        10401           0.0000000000
     31202     10401  TIP3      H1             -0.8232166405      -15.8145722861       -2.2470396465  W2        10401           0.0000000000
     31203     10401  TIP3      H2              0.2222833595      -16.8997522861       -2.3925996465  W2        10401           0.0000000000
     31204     10402  TIP3      OH2           -14.1824566405        1.8423477139       -3.0949896465  W2        10402           0.0000000000
     31205     10402  TIP3      H1            -14.9028166405        2.2824477139       -3.5462196465  W2        10402           0.0000000000
     31206     10402  TIP3      H2            -14.5480566405        1.5918177139       -2.2465896465  W2        10402           0.0000000000
     31207     10403  TIP3      OH2           -11.7151966405        1.4427377139       -4.0652696465  W2        10403           0.0000000000
     31208     10403  TIP3      H1            -12.5799766405        1.5145877139       -3.6612596465  W2        10403           0.0000000000
     31209     10403  TIP3      H2            -11.7702966405        1.9894677139       -4.8490196465  W2        10403           0.0000000000
     31210     10404  TIP3      OH2            -7.0046366405        1.3306277139       -4.8896696465  W2        10404           0.0000000000
     31211     10404  TIP3      H1             -7.4612366405        1.8595977139       -5.5438296465  W2        10404           0.0000000000
     31212     10404  TIP3      H2             -6.8418366405        1.9337677139       -4.1644396465  W2        10404           0.0000000000
     31213     10405  TIP3      OH2            -4.6770066405        0.2085877139       -3.9446396465  W2        10405           0.0000000000
     31214     10405  TIP3      H1             -5.5816366405        0.3736077139       -4.2104296465  W2        10405           0.0000000000
     31215     10405  TIP3      H2             -4.2481466405        1.0618077139       -4.0102996465  W2        10405           0.0000000000
     31216     10406  TIP3      OH2            -2.0728166405        1.7784977139       -3.6498596465  W2        10406           0.0000000000
     31217     10406  TIP3      H1             -2.2546166405        2.6943877139       -3.8603696465  W2        10406           0.0000000000
     31218     10406  TIP3      H2             -1.8960366405        1.3682077139       -4.4963996465  W2        10406           0.0000000000
     31219     10407  TIP3      OH2           -14.7676466405        0.4655977139       -6.1848096465  W2        10407           0.0000000000
     31220     10407  TIP3      H1            -14.7860466405        0.0401077139       -5.3275796465  W2        10407           0.0000000000
     31221     10407  TIP3      H2            -13.9628566405        0.1470977139       -6.5935896465  W2        10407           0.0000000000
     31222     10408  TIP3      OH2           -12.6263366405       -0.8245322861       -7.5298196465  W2        10408           0.0000000000
     31223     10408  TIP3      H1            -12.8452666405       -1.7407922861       -7.3602196465  W2        10408           0.0000000000
     31224     10408  TIP3      H2            -11.8021166405       -0.6844922861       -7.0636796465  W2        10408           0.0000000000
     31225     10409  TIP3      OH2           -10.0890866405       -0.3546022861       -6.6810196465  W2        10409           0.0000000000
     31226     10409  TIP3      H1             -9.8765166405       -1.2427022861       -6.9679296465  W2        10409           0.0000000000
     31227     10409  TIP3      H2            -10.0245766405       -0.3888322861       -5.7266196465  W2        10409           0.0000000000
     31228     10410  TIP3      OH2            -6.5807166405      -14.6905422861       -7.5366896465  W2        10410           0.0000000000
     31229     10410  TIP3      H1             -7.2550366405      -15.3199822861       -7.2811096465  W2        10410           0.0000000000
     31230     10410  TIP3      H2             -6.0167966405      -15.1746522861       -8.1398996465  W2        10410           0.0000000000
     31231     10411  TIP3      OH2            -1.4379966405      -16.5831422861       -7.4239796465  W2        10411           0.0000000000
     31232     10411  TIP3      H1             -0.8342366405      -16.0356022861       -7.9258796465  W2        10411           0.0000000000
     31233     10411  TIP3      H2             -2.3077966405      -16.2641022861       -7.6645696465  W2        10411           0.0000000000
     31234     10412  TIP3      OH2             0.2890433595      -15.4442722861       -9.0908896465  W2        10412           0.0000000000
     31235     10412  TIP3      H1              0.9007933595      -15.9587022861       -9.6175296465  W2        10412           0.0000000000
     31236     10412  TIP3      H2              0.6713833595      -14.5670622861       -9.0674496465  W2        10412           0.0000000000
     31237     10413  TIP3      OH2           -14.2539666405      -16.0565122861       -9.7146996465  W2        10413           0.0000000000
     31238     10413  TIP3      H1            -15.0309866405      -16.2910222861      -10.2221096465  W2        10413           0.0000000000
     31239     10413  TIP3      H2            -13.7236066405      -16.8533022861       -9.7058996465  W2        10413           0.0000000000
     31240     10414  TIP3      OH2           -15.4176266405      -16.2587022861      -13.9110896465  W2        10414           0.0000000000
     31241     10414  TIP3      H1            -14.9785566405      -15.6476522861      -14.5027396465  W2        10414           0.0000000000
     31242     10414  TIP3      H2            -16.0513866405      -15.7202922861      -13.4370896465  W2        10414           0.0000000000
     31243     10415  TIP3      OH2            -9.6747066405      -16.1298022861       -9.9013896465  W2        10415           0.0000000000
     31244     10415  TIP3      H1             -8.8003666405      -15.7413722861       -9.9309596465  W2        10415           0.0000000000
     31245     10415  TIP3      H2             -9.8106266405      -16.3450222861       -8.9786696465  W2        10415           0.0000000000
     31246     10416  TIP3      OH2            -4.1178666405      -16.0998222861       -8.2522196465  W2        10416           0.0000000000
     31247     10416  TIP3      H1             -4.0417066405      -16.0046622861       -9.2016196465  W2        10416           0.0000000000
     31248     10416  TIP3      H2             -4.3929466405      -17.0075322861       -8.1233096465  W2        10416           0.0000000000
     31249     10417  TIP3      OH2            -2.7646066405      -16.0740422861      -12.5597196465  W2        10417           0.0000000000
     31250     10417  TIP3      H1             -3.4674966405      -15.4591222861      -12.7695796465  W2        10417           0.0000000000
     31251     10417  TIP3      H2             -3.2094666405      -16.9113722861      -12.4286296465  W2        10417           0.0000000000
     31252     10418  TIP3      OH2           -15.5166766405       -0.3104822861      -13.0135796465  W2        10418           0.0000000000
     31253     10418  TIP3      H1            -16.2016866405       -0.3485922861      -13.6810696465  W2        10418           0.0000000000
     31254     10418  TIP3      H2            -15.5129566405        0.6022777139      -12.7253696465  W2        10418           0.0000000000
     31255     10419  TIP3      OH2           -13.5567166405      -14.3425522861      -15.4686796465  W2        10419           0.0000000000
     31256     10419  TIP3      H1            -13.0653766405      -14.9723122861      -15.9961296465  W2        10419           0.0000000000
     31257     10419  TIP3      H2            -12.9330866405      -14.0466122861      -14.8055596465  W2        10419           0.0000000000
     31258     10420  TIP3      OH2            -8.5307066405      -14.0494022861      -13.0116296465  W2        10420           0.0000000000
     31259     10420  TIP3      H1             -8.3525766405      -14.6960822861      -12.3287696465  W2        10420           0.0000000000
     31260     10420  TIP3      H2             -8.5840866405      -13.2156322861      -12.5445196465  W2        10420           0.0000000000
     31261     10421  TIP3      OH2            -6.6523266405        0.8990077139      -14.6159596465  W2        10421           0.0000000000
     31262     10421  TIP3      H1             -5.7863066405        1.2657477139      -14.7941396465  W2        10421           0.0000000000
     31263     10421  TIP3      H2             -6.8990466405        0.4598077139      -15.4298796465  W2        10421           0.0000000000
     31264     10422  TIP3      OH2             0.0566333595        0.4620377139      -11.9368496465  W2        10422           0.0000000000
     31265     10422  TIP3      H1             -0.1376566405       -0.2857522861      -12.5018896465  W2        10422           0.0000000000
     31266     10422  TIP3      H2              0.0176433595        1.2200477139      -12.5200596465  W2        10422           0.0000000000
     31267     10423  TIP3      OH2           -14.2961666405      -15.5423222861       -0.1970796465  W2        10423           0.0000000000
     31268     10423  TIP3      H1            -14.6623466405      -16.3080622861        0.2453903535  W2        10423           0.0000000000
     31269     10423  TIP3      H2            -13.3833166405      -15.5133022861        0.0894303535  W2        10423           0.0000000000
     31270     10424  TIP3      OH2           -12.3230866405      -16.1918822861        1.3386303535  W2        10424           0.0000000000
     31271     10424  TIP3      H1            -11.4247266405      -16.4658622861        1.1539703535  W2        10424           0.0000000000
     31272     10424  TIP3      H2            -12.7097766405      -16.9342822861        1.8028903535  W2        10424           0.0000000000
     31273     10425  TIP3      OH2           -13.6985566405        0.6095977139      -15.9883696465  W2        10425           0.0000000000
     31274     10425  TIP3      H1            -13.9660966405        0.8958877139      -15.1150596465  W2        10425           0.0000000000
     31275     10425  TIP3      H2            -12.9272966405        0.0635177139      -15.8361196465  W2        10425           0.0000000000
     31276     10426  TIP3      OH2            -3.9018566405      -16.8593522861        1.5209103535  W2        10426           0.0000000000
     31277     10426  TIP3      H1             -3.8251366405      -17.2852822861        2.3746803535  W2        10426           0.0000000000
     31278     10426  TIP3      H2             -3.0081966405      -16.8458822861        1.1782603535  W2        10426           0.0000000000
     31279     10427  TIP3      OH2            -0.7257466405       -0.7867222861        0.2133303535  W2        10427           0.0000000000
     31280     10427  TIP3      H1             -1.5075566405       -0.9729222861       -0.3066096465  W2        10427           0.0000000000
     31281     10427  TIP3      H2             -0.7977566405        0.1427077139        0.4305803535  W2        10427           0.0000000000
     31282     10428  TIP3      OH2            13.6802933595       -6.9002822861       -9.7559496465  W2        10428           0.0000000000
     31283     10428  TIP3      H1             13.7694033595       -5.9564622861       -9.8882396465  W2        10428           0.0000000000
     31284     10428  TIP3      H2             13.0420533595       -7.1756422861      -10.4140096465  W2        10428           0.0000000000
     31285     10429  TIP3      OH2            12.6134233595       -7.6452122861       -6.3371296465  W2        10429           0.0000000000
     31286     10429  TIP3      H1             12.5751733595       -8.2915822861       -5.6321696465  W2        10429           0.0000000000
     31287     10429  TIP3      H2             12.2910733595       -8.1117722861       -7.1082596465  W2        10429           0.0000000000
     31288     10430  TIP3      OH2             4.9819233595       -8.0310022861       -4.7441396465  W2        10430           0.0000000000
     31289     10430  TIP3      H1              5.0231333595       -8.6566722861       -4.0208996465  W2        10430           0.0000000000
     31290     10430  TIP3      H2              5.6846933595       -7.4071422861       -4.5620996465  W2        10430           0.0000000000
     31291     10431  TIP3      OH2            16.3194433595       -4.7061722861       -8.0356196465  W2        10431           0.0000000000
     31292     10431  TIP3      H1             15.8787133595       -5.4265722861       -7.5850596465  W2        10431           0.0000000000
     31293     10431  TIP3      H2             16.3064133595       -3.9854522861       -7.4058496465  W2        10431           0.0000000000
     31294     10432  TIP3      OH2             5.9052333595       -3.5811122861       -6.2092296465  W2        10432           0.0000000000
     31295     10432  TIP3      H1              5.5357533595       -4.3830622861       -6.5787996465  W2        10432           0.0000000000
     31296     10432  TIP3      H2              6.8463433595       -3.7496222861       -6.1628896465  W2        10432           0.0000000000
     31297     10433  TIP3      OH2             2.5152833595       -9.9208522861      -10.8163496465  W2        10433           0.0000000000
     31298     10433  TIP3      H1              2.0676233595       -9.0749822861      -10.8346996465  W2        10433           0.0000000000
     31299     10433  TIP3      H2              1.9544033595      -10.5004322861      -11.3318396465  W2        10433           0.0000000000
     31300     10434  TIP3      OH2             3.2258933595       -7.7588922861       -8.6905496465  W2        10434           0.0000000000
     31301     10434  TIP3      H1              3.4392433595       -8.5287322861       -8.1632496465  W2        10434           0.0000000000
     31302     10434  TIP3      H2              3.9636533595       -7.6692222861       -9.2937896465  W2        10434           0.0000000000
     31303     10435  TIP3      OH2            13.4309933595        0.3979977139       -7.8235796465  W2        10435           0.0000000000
     31304     10435  TIP3      H1             14.0506333595       -0.2785322861       -8.0966596465  W2        10435           0.0000000000
     31305     10435  TIP3      H2             13.2227333595        0.1800777139       -6.9150896465  W2        10435           0.0000000000
     31306     10436  TIP3      OH2            11.0028633595       -5.2130722861       -5.9310296465  W2        10436           0.0000000000
     31307     10436  TIP3      H1             11.3066533595       -5.8989322861       -6.5256196465  W2        10436           0.0000000000
     31308     10436  TIP3      H2             11.7242633595       -5.0942022861       -5.3132296465  W2        10436           0.0000000000
     31309     10437  TIP3      OH2            19.6658433595      -13.6115422861       -5.0704096465  W2        10437           0.0000000000
     31310     10437  TIP3      H1             19.7150633595      -13.0014222861       -4.3344996465  W2        10437           0.0000000000
     31311     10437  TIP3      H2             20.0913533595      -13.1504522861       -5.7932996465  W2        10437           0.0000000000
     31312     10438  TIP3      OH2            14.1435633595      -10.8188322861       -5.6035496465  W2        10438           0.0000000000
     31313     10438  TIP3      H1             14.2861533595      -11.7651322861       -5.5833896465  W2        10438           0.0000000000
     31314     10438  TIP3      H2             14.0374633595      -10.6118522861       -6.5320596465  W2        10438           0.0000000000
     31315     10439  TIP3      OH2             7.2983933595      -12.7171922861       -8.3310696465  W2        10439           0.0000000000
     31316     10439  TIP3      H1              7.3415033595      -11.8573422861       -8.7494396465  W2        10439           0.0000000000
     31317     10439  TIP3      H2              6.8408033595      -13.2697222861       -8.9647496465  W2        10439           0.0000000000
     31318     10440  TIP3      OH2            15.0206633595      -12.5866322861       -9.9302396465  W2        10440           0.0000000000
     31319     10440  TIP3      H1             15.6670933595      -12.9153122861       -9.3054796465  W2        10440           0.0000000000
     31320     10440  TIP3      H2             15.5306033595      -12.0687322861      -10.5530996465  W2        10440           0.0000000000
     31321     10441  TIP3      OH2             3.9185433595      -10.3206122861       -7.5689296465  W2        10441           0.0000000000
     31322     10441  TIP3      H1              4.5722033595      -10.8704422861       -7.1369196465  W2        10441           0.0000000000
     31323     10441  TIP3      H2              3.9424733595      -10.5947122861       -8.4857296465  W2        10441           0.0000000000
     31324     10442  TIP3      OH2             9.0749933595       -8.7704822861       -8.3537796465  W2        10442           0.0000000000
     31325     10442  TIP3      H1              9.6910933595       -9.2969422861       -7.8443796465  W2        10442           0.0000000000
     31326     10442  TIP3      H2              8.4888733595       -9.4106122861       -8.7574196465  W2        10442           0.0000000000
     31327     10443  TIP3      OH2            20.0573033595      -12.1336222861       -2.8344296465  W2        10443           0.0000000000
     31328     10443  TIP3      H1             19.3687633595      -11.4755522861       -2.9297696465  W2        10443           0.0000000000
     31329     10443  TIP3      H2             20.0727633595      -12.3308322861       -1.8978896465  W2        10443           0.0000000000
     31330     10444  TIP3      OH2             6.1085833595      -13.7993522861       -4.2569896465  W2        10444           0.0000000000
     31331     10444  TIP3      H1              5.8897533595      -13.2692922861       -5.0233896465  W2        10444           0.0000000000
     31332     10444  TIP3      H2              5.4406733595      -13.5728022861       -3.6098496465  W2        10444           0.0000000000
     31333     10445  TIP3      OH2            13.4775633595       -4.2992422861      -10.7130796465  W2        10445           0.0000000000
     31334     10445  TIP3      H1             13.1820733595       -4.6220122861      -11.5643896465  W2        10445           0.0000000000
     31335     10445  TIP3      H2             13.1533433595       -3.3995722861      -10.6718196465  W2        10445           0.0000000000
     31336     10446  TIP3      OH2             8.6777233595       -6.1237822861       -3.9696196465  W2        10446           0.0000000000
     31337     10446  TIP3      H1              7.9376333595       -5.5256322861       -3.8660996465  W2        10446           0.0000000000
     31338     10446  TIP3      H2              9.3916733595       -5.5698222861       -4.2852596465  W2        10446           0.0000000000
     31339     10447  TIP3      OH2            16.7845033595      -13.2957022861       -7.9496496465  W2        10447           0.0000000000
     31340     10447  TIP3      H1             16.5693033595      -14.0613622861       -7.4170496465  W2        10447           0.0000000000
     31341     10447  TIP3      H2             17.4402433595      -12.8232422861       -7.4367996465  W2        10447           0.0000000000
     31342     10448  TIP3      OH2             5.7023133595      -11.9071722861       -6.3047696465  W2        10448           0.0000000000
     31343     10448  TIP3      H1              6.3159433595      -11.2744122861       -5.9315296465  W2        10448           0.0000000000
     31344     10448  TIP3      H2              6.2143833595      -12.3796722861       -6.9610796465  W2        10448           0.0000000000
     31345     10449  TIP3      OH2             7.0851533595       -4.1594822861       -3.1824696465  W2        10449           0.0000000000
     31346     10449  TIP3      H1              7.0799133595       -3.2801322861       -3.5605396465  W2        10449           0.0000000000
     31347     10449  TIP3      H2              6.2315633595       -4.2430722861       -2.7574796465  W2        10449           0.0000000000
     31348     10450  TIP3      OH2             3.2062433595       -4.4886922861      -12.4005396465  W2        10450           0.0000000000
     31349     10450  TIP3      H1              2.9343333595       -4.2595922861      -13.2892496465  W2        10450           0.0000000000
     31350     10450  TIP3      H2              3.2518133595       -3.6508122861      -11.9400096465  W2        10450           0.0000000000
     31351     10451  TIP3      OH2            16.8312133595       -2.8671022861       -5.6876896465  W2        10451           0.0000000000
     31352     10451  TIP3      H1             15.8895833595       -2.8087122861       -5.5259996465  W2        10451           0.0000000000
     31353     10451  TIP3      H2             17.1078233595       -1.9610522861       -5.8247196465  W2        10451           0.0000000000
     31354     10452  TIP3      OH2            17.1319133595      -14.5805722861       -4.2702996465  W2        10452           0.0000000000
     31355     10452  TIP3      H1             16.3958333595      -13.9698622861       -4.3081696465  W2        10452           0.0000000000
     31356     10452  TIP3      H2             17.8153133595      -14.1656722861       -4.7966596465  W2        10452           0.0000000000
     31357     10453  TIP3      OH2            10.1350533595      -16.4938422861       -6.8044996465  W2        10453           0.0000000000
     31358     10453  TIP3      H1             10.0174733595      -17.4422422861       -6.8586696465  W2        10453           0.0000000000
     31359     10453  TIP3      H2              9.2800633595      -16.1612322861       -6.5313896465  W2        10453           0.0000000000
     31360     10454  TIP3      OH2            15.0833333595       -1.0857522861       -9.0625296465  W2        10454           0.0000000000
     31361     10454  TIP3      H1             15.5085633595       -1.7929622861       -9.5475696465  W2        10454           0.0000000000
     31362     10454  TIP3      H2             15.4003333595       -0.2844822861       -9.4793096465  W2        10454           0.0000000000
     31363     10455  TIP3      OH2            16.2429833595       -3.1849022861      -10.5538696465  W2        10455           0.0000000000
     31364     10455  TIP3      H1             15.9854633595       -3.8748922861      -11.1652796465  W2        10455           0.0000000000
     31365     10455  TIP3      H2             16.3140633595       -3.6277822861       -9.7082796465  W2        10455           0.0000000000
     31366     10456  TIP3      OH2            17.9290033595       -4.6182322861       -2.0765196465  W2        10456           0.0000000000
     31367     10456  TIP3      H1             18.0686333595       -5.2099822861       -2.8158196465  W2        10456           0.0000000000
     31368     10456  TIP3      H2             18.0962833595       -3.7456422861       -2.4326396465  W2        10456           0.0000000000
     31369     10457  TIP3      OH2            12.4015433595       -7.6562822861      -12.3039196465  W2        10457           0.0000000000
     31370     10457  TIP3      H1             11.6900933595       -7.1213122861      -12.6558696465  W2        10457           0.0000000000
     31371     10457  TIP3      H2             13.0925033595       -7.6010722861      -12.9640296465  W2        10457           0.0000000000
     31372     10458  TIP3      OH2            12.4554633595       -9.1988522861      -15.2654196465  W2        10458           0.0000000000
     31373     10458  TIP3      H1             13.1564533595       -9.1761622861      -14.6140196465  W2        10458           0.0000000000
     31374     10458  TIP3      H2             12.7577533595       -9.8268822861      -15.9214896465  W2        10458           0.0000000000
     31375     10459  TIP3      OH2            19.7709333595       -8.2784322861       -4.0104796465  W2        10459           0.0000000000
     31376     10459  TIP3      H1             19.1183433595       -7.5838722861       -3.9213896465  W2        10459           0.0000000000
     31377     10459  TIP3      H2             20.2359633595       -8.0683422861       -4.8203196465  W2        10459           0.0000000000
     31378     10460  TIP3      OH2            15.8073133595       -7.4469522861      -11.3523296465  W2        10460           0.0000000000
     31379     10460  TIP3      H1             15.0754133595       -7.2185822861      -10.7792696465  W2        10460           0.0000000000
     31380     10460  TIP3      H2             16.2545333595       -8.1606822861      -10.8975796465  W2        10460           0.0000000000
     31381     10461  TIP3      OH2            15.7046633595       -9.2726922861       -2.2846296465  W2        10461           0.0000000000
     31382     10461  TIP3      H1             15.7845733595       -8.5092522861       -1.7127796465  W2        10461           0.0000000000
     31383     10461  TIP3      H2             15.1034333595       -8.9934522861       -2.9751196465  W2        10461           0.0000000000
     31384     10462  TIP3      OH2             7.4526833595       -6.8163322861       -9.4698296465  W2        10462           0.0000000000
     31385     10462  TIP3      H1              7.1222033595       -7.1869922861      -10.2881296465  W2        10462           0.0000000000
     31386     10462  TIP3      H2              8.0410933595       -7.4869322861       -9.1229996465  W2        10462           0.0000000000
     31387     10463  TIP3      OH2             8.8194333595       -3.3882722861       -6.7886096465  W2        10463           0.0000000000
     31388     10463  TIP3      H1              8.7245633595       -3.9669622861       -7.5451496465  W2        10463           0.0000000000
     31389     10463  TIP3      H2              9.5487933595       -3.7597022861       -6.2923296465  W2        10463           0.0000000000
     31390     10464  TIP3      OH2             7.8192333595       -8.0477722861       -5.8363296465  W2        10464           0.0000000000
     31391     10464  TIP3      H1              8.3844833595       -7.9263522861       -6.5992096465  W2        10464           0.0000000000
     31392     10464  TIP3      H2              8.1381233595       -7.4102722861       -5.1974796465  W2        10464           0.0000000000
     31393     10465  TIP3      OH2            14.1284533595       -2.5445822861       -5.1022796465  W2        10465           0.0000000000
     31394     10465  TIP3      H1             13.8881133595       -1.8822722861       -4.4543596465  W2        10465           0.0000000000
     31395     10465  TIP3      H2             13.9302733595       -3.3790622861       -4.6773196465  W2        10465           0.0000000000
     31396     10466  TIP3      OH2             8.6993033595       -3.6485022861       -1.1191396465  W2        10466           0.0000000000
     31397     10466  TIP3      H1              8.3880533595       -2.8661822861       -0.6638196465  W2        10466           0.0000000000
     31398     10466  TIP3      H2              8.0493233595       -3.8015922861       -1.8049396465  W2        10466           0.0000000000
     31399     10467  TIP3      OH2            14.6782633595       -8.2846622861      -13.6672096465  W2        10467           0.0000000000
     31400     10467  TIP3      H1             15.2578133595       -8.1346322861      -12.9203196465  W2        10467           0.0000000000
     31401     10467  TIP3      H2             15.0922633595       -7.8139222861      -14.3905696465  W2        10467           0.0000000000
     31402     10468  TIP3      OH2             5.6192933595       -7.4503922861       -1.8905696465  W2        10468           0.0000000000
     31403     10468  TIP3      H1              5.6896133595       -6.7997122861       -1.1920696465  W2        10468           0.0000000000
     31404     10468  TIP3      H2              4.7285133595       -7.3476422861       -2.2254796465  W2        10468           0.0000000000
     31405     10469  TIP3      OH2            12.4047533595       -1.5478122861      -10.2318996465  W2        10469           0.0000000000
     31406     10469  TIP3      H1             12.8785133595       -1.2521822861       -9.4544796465  W2        10469           0.0000000000
     31407     10469  TIP3      H2             11.8416833595       -0.8096522861      -10.4649396465  W2        10469           0.0000000000
     31408     10470  TIP3      OH2             6.9388933595       -1.5770022861       -0.3557596465  W2        10470           0.0000000000
     31409     10470  TIP3      H1              6.9464233595       -1.7130322861       -1.3032096465  W2        10470           0.0000000000
     31410     10470  TIP3      H2              6.0229333595       -1.6941922861       -0.1037596465  W2        10470           0.0000000000
     31411     10471  TIP3      OH2            18.3771033595      -16.5346222861      -13.8542396465  W2        10471           0.0000000000
     31412     10471  TIP3      H1             17.4771733595      -16.3957222861      -13.5591796465  W2        10471           0.0000000000
     31413     10471  TIP3      H2             18.6289433595      -15.7031622861      -14.2560696465  W2        10471           0.0000000000
     31414     10472  TIP3      OH2             6.4429533595       -7.7469022861      -11.8805496465  W2        10472           0.0000000000
     31415     10472  TIP3      H1              6.1510833595       -6.9787322861      -12.3714196465  W2        10472           0.0000000000
     31416     10472  TIP3      H2              5.7684733595       -8.4062822861      -12.0434096465  W2        10472           0.0000000000
     31417     10473  TIP3      OH2            19.5662433595       -2.1683822861      -15.4778496465  W2        10473           0.0000000000
     31418     10473  TIP3      H1             19.6395933595       -1.2293622861      -15.3073196465  W2        10473           0.0000000000
     31419     10473  TIP3      H2             20.4717533595       -2.4735222861      -15.5341196465  W2        10473           0.0000000000
     31420     10474  TIP3      OH2             2.5359633595       -5.3839822861       -3.0655696465  W2        10474           0.0000000000
     31421     10474  TIP3      H1              2.0348033595       -5.4120422861       -3.8805996465  W2        10474           0.0000000000
     31422     10474  TIP3      H2              2.5413333595       -6.2896622861       -2.7558396465  W2        10474           0.0000000000
     31423     10475  TIP3      OH2             2.2862333595       -2.6036022861       -6.1815496465  W2        10475           0.0000000000
     31424     10475  TIP3      H1              3.2322933595       -2.7479022861       -6.2005996465  W2        10475           0.0000000000
     31425     10475  TIP3      H2              2.1738633595       -1.8193222861       -5.6444296465  W2        10475           0.0000000000
     31426     10476  TIP3      OH2            20.4840833595       -1.9376322861       -0.4991796465  W2        10476           0.0000000000
     31427     10476  TIP3      H1             20.4347633595       -2.8928222861       -0.5364196465  W2        10476           0.0000000000
     31428     10476  TIP3      H2             19.6573133595       -1.6701022861       -0.0977996465  W2        10476           0.0000000000
     31429     10477  TIP3      OH2            11.4624833595       -2.3637122861       -1.6230396465  W2        10477           0.0000000000
     31430     10477  TIP3      H1             11.5499433595       -1.5372522861       -1.1481296465  W2        10477           0.0000000000
     31431     10477  TIP3      H2             10.5989933595       -2.6933322861       -1.3741096465  W2        10477           0.0000000000
     31432     10478  TIP3      OH2            11.8770633595        1.4086577139      -11.8169796465  W2        10478           0.0000000000
     31433     10478  TIP3      H1             11.8016633595        1.2873777139      -12.7634596465  W2        10478           0.0000000000
     31434     10478  TIP3      H2             11.9099333595        2.3579277139      -11.6985196465  W2        10478           0.0000000000
     31435     10479  TIP3      OH2             5.5304433595        0.1973577139      -10.0360796465  W2        10479           0.0000000000
     31436     10479  TIP3      H1              5.6824833595       -0.1506022861       -9.1574296465  W2        10479           0.0000000000
     31437     10479  TIP3      H2              4.6794833595       -0.1589122861      -10.2913596465  W2        10479           0.0000000000
     31438     10480  TIP3      OH2            14.9786633595        0.5626777139      -14.8147396465  W2        10480           0.0000000000
     31439     10480  TIP3      H1             15.3535033595       -0.1817122861      -15.2854796465  W2        10480           0.0000000000
     31440     10480  TIP3      H2             14.9830333595        0.2927377139      -13.8964096465  W2        10480           0.0000000000
     31441     10481  TIP3      OH2            14.6474733595        0.4883877139      -12.0655196465  W2        10481           0.0000000000
     31442     10481  TIP3      H1             13.7124533595        0.5885777139      -11.8868196465  W2        10481           0.0000000000
     31443     10481  TIP3      H2             14.9276633595       -0.2210122861      -11.4871996465  W2        10481           0.0000000000
     31444     10482  TIP3      OH2            17.6360633595      -10.4443822861       -0.0189596465  W2        10482           0.0000000000
     31445     10482  TIP3      H1             17.2287433595       -9.9638222861       -0.7396296465  W2        10482           0.0000000000
     31446     10482  TIP3      H2             17.6766333595      -11.3497822861       -0.3268796465  W2        10482           0.0000000000
     31447     10483  TIP3      OH2             4.7850133595       -4.0604422861       -2.0222896465  W2        10483           0.0000000000
     31448     10483  TIP3      H1              5.0011433595       -4.4218822861       -1.1627096465  W2        10483           0.0000000000
     31449     10483  TIP3      H2              3.9294833595       -4.4350622861       -2.2319396465  W2        10483           0.0000000000
     31450     10484  TIP3      OH2             7.4038133595      -15.5903922861       -6.0268696465  W2        10484           0.0000000000
     31451     10484  TIP3      H1              6.5421833595      -15.6775722861       -6.4345796465  W2        10484           0.0000000000
     31452     10484  TIP3      H2              7.3813833595      -14.7343822861       -5.5991096465  W2        10484           0.0000000000
     31453     10485  TIP3      OH2            12.0665933595      -15.8683522861       -2.6521696465  W2        10485           0.0000000000
     31454     10485  TIP3      H1             12.4869033595      -16.2836422861       -1.8991096465  W2        10485           0.0000000000
     31455     10485  TIP3      H2             11.1335533595      -16.0470222861       -2.5349696465  W2        10485           0.0000000000
     31456     10486  TIP3      OH2            15.3930833595      -12.1128322861       -1.7987196465  W2        10486           0.0000000000
     31457     10486  TIP3      H1             14.8790333595      -12.2386122861       -1.0011196465  W2        10486           0.0000000000
     31458     10486  TIP3      H2             15.2375533595      -11.2005222861       -2.0430996465  W2        10486           0.0000000000
     31459     10487  TIP3      OH2            16.1555733595       -7.2518322861      -16.0374196465  W2        10487           0.0000000000
     31460     10487  TIP3      H1             16.1976533595       -7.4744422861      -16.9674196465  W2        10487           0.0000000000
     31461     10487  TIP3      H2             17.0047833595       -6.8531222861      -15.8474296465  W2        10487           0.0000000000
     31462     10488  TIP3      OH2            11.7283233595      -13.3760122861      -15.3670896465  W2        10488           0.0000000000
     31463     10488  TIP3      H1             11.4748033595      -13.3568522861      -14.4442796465  W2        10488           0.0000000000
     31464     10488  TIP3      H2             11.4715333595      -14.2474722861      -15.6684696465  W2        10488           0.0000000000
     31465     10489  TIP3      OH2             7.4948233595      -10.6249422861       -4.9318496465  W2        10489           0.0000000000
     31466     10489  TIP3      H1              6.8530333595      -10.6652122861       -4.2228396465  W2        10489           0.0000000000
     31467     10489  TIP3      H2              7.5320233595       -9.6984722861       -5.1695496465  W2        10489           0.0000000000
     31468     10490  TIP3      OH2             7.4917333595      -10.4039322861      -10.0198496465  W2        10490           0.0000000000
     31469     10490  TIP3      H1              6.5990233595      -10.7443222861      -10.0784696465  W2        10490           0.0000000000
     31470     10490  TIP3      H2              7.9423933595      -10.7808422861      -10.7755296465  W2        10490           0.0000000000
     31471     10491  TIP3      OH2            13.0272833595       -9.9879022861      -11.2027696465  W2        10491           0.0000000000
     31472     10491  TIP3      H1             12.6183133595       -9.1730422861      -11.4942896465  W2        10491           0.0000000000
     31473     10491  TIP3      H2             13.7479033595      -10.1278922861      -11.8170596465  W2        10491           0.0000000000
     31474     10492  TIP3      OH2            12.1294433595       -9.8122622861        0.2853003535  W2        10492           0.0000000000
     31475     10492  TIP3      H1             11.5668233595      -10.5171022861        0.6060803535  W2        10492           0.0000000000
     31476     10492  TIP3      H2             12.9557833595       -9.9330722861        0.7530603535  W2        10492           0.0000000000
     31477     10493  TIP3      OH2            14.0320533595      -10.5418622861       -8.3887996465  W2        10493           0.0000000000
     31478     10493  TIP3      H1             13.8365033595       -9.9361822861       -9.1037396465  W2        10493           0.0000000000
     31479     10493  TIP3      H2             14.2133133595      -11.3753422861       -8.8231696465  W2        10493           0.0000000000
     31480     10494  TIP3      OH2             5.2448733595      -10.3045922861       -3.0646496465  W2        10494           0.0000000000
     31481     10494  TIP3      H1              5.2068133595       -9.9044322861       -2.1959396465  W2        10494           0.0000000000
     31482     10494  TIP3      H2              4.7539833595      -11.1213522861       -2.9743596465  W2        10494           0.0000000000
     31483     10495  TIP3      OH2             8.6106133595      -12.9303622861      -16.2660496465  W2        10495           0.0000000000
     31484     10495  TIP3      H1              8.1796833595      -13.3753522861      -15.5363096465  W2        10495           0.0000000000
     31485     10495  TIP3      H2              7.8924833595      -12.5587322861      -16.7782996465  W2        10495           0.0000000000
     31486     10496  TIP3      OH2             1.8529533595      -13.1884122861       -9.2141796465  W2        10496           0.0000000000
     31487     10496  TIP3      H1              2.4837233595      -13.2172022861       -8.4947896465  W2        10496           0.0000000000
     31488     10496  TIP3      H2              2.3023833595      -13.6135422861       -9.9445896465  W2        10496           0.0000000000
     31489     10497  TIP3      OH2             3.1271633595      -12.4422122861      -13.7901396465  W2        10497           0.0000000000
     31490     10497  TIP3      H1              3.6013333595      -11.8512222861      -14.3750496465  W2        10497           0.0000000000
     31491     10497  TIP3      H2              2.4098033595      -11.9119222861      -13.4431296465  W2        10497           0.0000000000
     31492     10498  TIP3      OH2            13.2959733595       -8.9037322861       -3.7175596465  W2        10498           0.0000000000
     31493     10498  TIP3      H1             13.6194533595       -9.5347622861       -4.3605096465  W2        10498           0.0000000000
     31494     10498  TIP3      H2             12.8559033595       -9.4385122861       -3.0568196465  W2        10498           0.0000000000
     31495     10499  TIP3      OH2            10.0732633595      -12.9761822861       -8.9334396465  W2        10499           0.0000000000
     31496     10499  TIP3      H1              9.1623733595      -12.9195022861       -8.6448396465  W2        10499           0.0000000000
     31497     10499  TIP3      H2             10.5785533595      -13.0366322861       -8.1227196465  W2        10499           0.0000000000
     31498     10500  TIP3      OH2             4.9016033595      -11.3475522861      -10.1066796465  W2        10500           0.0000000000
     31499     10500  TIP3      H1              4.0124033595      -11.2480022861      -10.4467196465  W2        10500           0.0000000000
     31500     10500  TIP3      H2              5.1980933595      -12.1892522861      -10.4528896465  W2        10500           0.0000000000
     31501     10501  TIP3      OH2             8.5547833595      -11.3472922861      -12.4502196465  W2        10501           0.0000000000
     31502     10501  TIP3      H1              9.4863333595      -11.2182922861      -12.2719096465  W2        10501           0.0000000000
     31503     10501  TIP3      H2              8.3398133595      -10.6778622861      -13.0997496465  W2        10501           0.0000000000
     31504     10502  TIP3      OH2            14.4784533595      -13.7415522861       -5.6692596465  W2        10502           0.0000000000
     31505     10502  TIP3      H1             13.8016133595      -13.6102422861       -5.0052896465  W2        10502           0.0000000000
     31506     10502  TIP3      H2             13.9929433595      -13.8966022861       -6.4794896465  W2        10502           0.0000000000
     31507     10503  TIP3      OH2             7.2288033595      -10.1530722861      -14.8836096465  W2        10503           0.0000000000
     31508     10503  TIP3      H1              6.6863133595      -10.5326922861      -15.5748496465  W2        10503           0.0000000000
     31509     10503  TIP3      H2              8.0622933595       -9.9586022861      -15.3121996465  W2        10503           0.0000000000
     31510     10504  TIP3      OH2            17.7659633595        1.9299877139        0.6075003535  W2        10504           0.0000000000
     31511     10504  TIP3      H1             17.9658333595        2.3541777139       -0.2269696465  W2        10504           0.0000000000
     31512     10504  TIP3      H2             18.4213333595        2.2738077139        1.2145403535  W2        10504           0.0000000000
     31513     10505  TIP3      OH2             5.3639433595       -5.5958822861        0.2155503535  W2        10505           0.0000000000
     31514     10505  TIP3      H1              6.0961833595       -5.3412922861        0.7770003535  W2        10505           0.0000000000
     31515     10505  TIP3      H2              4.5838133595       -5.3913422861        0.7310903535  W2        10505           0.0000000000
     31516     10506  TIP3      OH2            11.3932333595      -10.1888822861       -7.0464796465  W2        10506           0.0000000000
     31517     10506  TIP3      H1             11.9575733595      -10.7352222861       -7.5935196465  W2        10506           0.0000000000
     31518     10506  TIP3      H2             11.2455733595      -10.7106922861       -6.2577196465  W2        10506           0.0000000000
     31519     10507  TIP3      OH2             6.3952033595      -14.0522722861      -10.6279996465  W2        10507           0.0000000000
     31520     10507  TIP3      H1              6.0781533595      -14.9547422861      -10.6634596465  W2        10507           0.0000000000
     31521     10507  TIP3      H2              7.1766133595      -14.0505322861      -11.1808396465  W2        10507           0.0000000000
     31522     10508  TIP3      OH2            10.0198233595      -11.8002722861       -4.6324396465  W2        10508           0.0000000000
     31523     10508  TIP3      H1              9.1843533595      -11.3463222861       -4.5221996465  W2        10508           0.0000000000
     31524     10508  TIP3      H2             10.5438833595      -11.5244222861       -3.8804496465  W2        10508           0.0000000000
     31525     10509  TIP3      OH2            10.5640833595       -5.5875022861      -12.9477996465  W2        10509           0.0000000000
     31526     10509  TIP3      H1              9.8191833595       -6.0949722861      -13.2700096465  W2        10509           0.0000000000
     31527     10509  TIP3      H2             10.4298033595       -5.5387022861      -12.0013196465  W2        10509           0.0000000000
     31528     10510  TIP3      OH2            17.7139733595       -6.4546822861       -4.1610396465  W2        10510           0.0000000000
     31529     10510  TIP3      H1             18.3558533595       -5.9980522861       -4.7048196465  W2        10510           0.0000000000
     31530     10510  TIP3      H2             16.8836633595       -6.3414422861       -4.6236296465  W2        10510           0.0000000000
     31531     10511  TIP3      OH2            14.4617633595      -12.7735122861      -14.7485396465  W2        10511           0.0000000000
     31532     10511  TIP3      H1             13.5231833595      -12.6619522861      -14.8996596465  W2        10511           0.0000000000
     31533     10511  TIP3      H2             14.7589733595      -11.9168222861      -14.4419696465  W2        10511           0.0000000000
     31534     10512  TIP3      OH2            12.0832933595       -5.4031722861       -1.7108896465  W2        10512           0.0000000000
     31535     10512  TIP3      H1             11.7379033595       -5.7849322861       -0.9039296465  W2        10512           0.0000000000
     31536     10512  TIP3      H2             11.8833033595       -4.4698122861       -1.6395996465  W2        10512           0.0000000000
     31537     10513  TIP3      OH2            15.1801133595      -10.9062422861      -13.0877996465  W2        10513           0.0000000000
     31538     10513  TIP3      H1             16.0720133595      -11.0437422861      -12.7686796465  W2        10513           0.0000000000
     31539     10513  TIP3      H2             15.2364733595      -10.1156322861      -13.6244496465  W2        10513           0.0000000000
     31540     10514  TIP3      OH2             5.6889133595       -6.2925022861       -7.1780096465  W2        10514           0.0000000000
     31541     10514  TIP3      H1              6.4336333595       -6.2949322861       -7.7793596465  W2        10514           0.0000000000
     31542     10514  TIP3      H2              5.7665733595       -7.1161222861       -6.6964996465  W2        10514           0.0000000000
     31543     10515  TIP3      OH2            12.6894933595       -4.1290722861      -13.9223396465  W2        10515           0.0000000000
     31544     10515  TIP3      H1             12.3943333595       -3.3022822861      -13.5408596465  W2        10515           0.0000000000
     31545     10515  TIP3      H2             11.9864933595       -4.7483822861      -13.7261996465  W2        10515           0.0000000000
     31546     10516  TIP3      OH2             2.6968833595       -7.8318122861       -1.8631596465  W2        10516           0.0000000000
     31547     10516  TIP3      H1              2.9197433595       -8.2498522861       -1.0314096465  W2        10516           0.0000000000
     31548     10516  TIP3      H2              2.0948933595       -8.4443122861       -2.2858796465  W2        10516           0.0000000000
     31549     10517  TIP3      OH2             9.7133733595       -8.3148222861        0.3498103535  W2        10517           0.0000000000
     31550     10517  TIP3      H1              9.4174533595       -8.4805222861       -0.5452796465  W2        10517           0.0000000000
     31551     10517  TIP3      H2             10.6448933595       -8.5347922861        0.3392003535  W2        10517           0.0000000000
     31552     10518  TIP3      OH2            14.3336533595       -2.9416222861       -1.7603896465  W2        10518           0.0000000000
     31553     10518  TIP3      H1             13.4330833595       -2.7583622861       -2.0279996465  W2        10518           0.0000000000
     31554     10518  TIP3      H2             14.3677633595       -2.6826922861       -0.8395096465  W2        10518           0.0000000000
     31555     10519  TIP3      OH2            20.0649833595      -10.6968322861      -13.3931296465  W2        10519           0.0000000000
     31556     10519  TIP3      H1             19.5106133595      -11.0930322861      -14.0653796465  W2        10519           0.0000000000
     31557     10519  TIP3      H2             20.1653433595       -9.7863122861      -13.6707996465  W2        10519           0.0000000000
     31558     10520  TIP3      OH2            20.0281833595       -4.8966622861       -0.5559796465  W2        10520           0.0000000000
     31559     10520  TIP3      H1             19.1770333595       -4.6582822861       -0.9233396465  W2        10520           0.0000000000
     31560     10520  TIP3      H2             20.6185233595       -4.9133422861       -1.3092696465  W2        10520           0.0000000000
     31561     10521  TIP3      OH2            18.3601533595       -1.9107922861      -12.9279196465  W2        10521           0.0000000000
     31562     10521  TIP3      H1             17.9872633595       -2.7364122861      -12.6188596465  W2        10521           0.0000000000
     31563     10521  TIP3      H2             18.6375033595       -2.0938522861      -13.8255796465  W2        10521           0.0000000000
     31564     10522  TIP3      OH2            15.5205433595       -7.1028422861       -5.9067296465  W2        10522           0.0000000000
     31565     10522  TIP3      H1             14.5922333595       -7.3346522861       -5.9337996465  W2        10522           0.0000000000
     31566     10522  TIP3      H2             15.9716533595       -7.8798622861       -6.2368496465  W2        10522           0.0000000000
     31567     10523  TIP3      OH2             8.0638533595       -2.7746822861       -9.7738596465  W2        10523           0.0000000000
     31568     10523  TIP3      H1              8.5910733595       -2.0012422861       -9.9739796465  W2        10523           0.0000000000
     31569     10523  TIP3      H2              7.1837033595       -2.5497622861      -10.0754596465  W2        10523           0.0000000000
     31570     10524  TIP3      OH2             3.8186233595       -7.9122722861      -15.1866196465  W2        10524           0.0000000000
     31571     10524  TIP3      H1              4.4346133595       -7.2855522861      -14.8071396465  W2        10524           0.0000000000
     31572     10524  TIP3      H2              2.9568833595       -7.5962922861      -14.9149696465  W2        10524           0.0000000000
     31573     10525  TIP3      OH2             9.4910833595       -5.1116922861      -10.1974296465  W2        10525           0.0000000000
     31574     10525  TIP3      H1              9.2500833595       -4.1862522861      -10.1558996465  W2        10525           0.0000000000
     31575     10525  TIP3      H2              8.7504433595       -5.5705622861       -9.8010396465  W2        10525           0.0000000000
     31576     10526  TIP3      OH2            10.0057433595       -0.9623322861       -3.8823196465  W2        10526           0.0000000000
     31577     10526  TIP3      H1             10.3682133595       -0.1077722861       -4.1158796465  W2        10526           0.0000000000
     31578     10526  TIP3      H2             10.5372633595       -1.2541722861       -3.1416896465  W2        10526           0.0000000000
     31579     10527  TIP3      OH2             8.1741633595       -0.0899322861      -10.6522096465  W2        10527           0.0000000000
     31580     10527  TIP3      H1              7.2242133595        0.0158077139      -10.6008796465  W2        10527           0.0000000000
     31581     10527  TIP3      H2              8.5259733595        0.7308077139      -10.3074596465  W2        10527           0.0000000000
     31582     10528  TIP3      OH2            13.5498233595       -4.8632622861       -4.1817596465  W2        10528           0.0000000000
     31583     10528  TIP3      H1             13.1239533595       -5.0910922861       -3.3553596465  W2        10528           0.0000000000
     31584     10528  TIP3      H2             14.1304033595       -5.6020822861       -4.3642296465  W2        10528           0.0000000000
     31585     10529  TIP3      OH2            15.7527133595       -3.9342122861      -15.1078596465  W2        10529           0.0000000000
     31586     10529  TIP3      H1             16.1060233595       -4.3142322861      -14.3035096465  W2        10529           0.0000000000
     31587     10529  TIP3      H2             14.8040633595       -4.0277322861      -15.0209296465  W2        10529           0.0000000000
     31588     10530  TIP3      OH2            16.2082433595       -0.3113122861       -1.7122796465  W2        10530           0.0000000000
     31589     10530  TIP3      H1             15.6065633595       -0.8670222861       -2.2076496465  W2        10530           0.0000000000
     31590     10530  TIP3      H2             16.4896133595        0.3556677139       -2.3385396465  W2        10530           0.0000000000
     31591     10531  TIP3      OH2            20.2561533595        0.5450377139      -14.9068396465  W2        10531           0.0000000000
     31592     10531  TIP3      H1             20.9999433595        1.1310877139      -15.0466796465  W2        10531           0.0000000000
     31593     10531  TIP3      H2             19.5619633595        1.1136177139      -14.5735996465  W2        10531           0.0000000000
     31594     10532  TIP3      OH2             4.3308333595      -13.0785422861       -2.3050196465  W2        10532           0.0000000000
     31595     10532  TIP3      H1              3.4380633595      -12.7400022861       -2.3726196465  W2        10532           0.0000000000
     31596     10532  TIP3      H2              4.2321133595      -13.9339322861       -1.8869396465  W2        10532           0.0000000000
     31597     10533  TIP3      OH2            16.6186433595       -5.2620122861      -12.8810696465  W2        10533           0.0000000000
     31598     10533  TIP3      H1             16.3414033595       -5.9900822861      -12.3249596465  W2        10533           0.0000000000
     31599     10533  TIP3      H2             17.5459433595       -5.1428122861      -12.6758096465  W2        10533           0.0000000000
     31600     10534  TIP3      OH2             3.9820333595       -1.2741022861       -3.8700796465  W2        10534           0.0000000000
     31601     10534  TIP3      H1              4.1990633595       -2.2058622861       -3.9011096465  W2        10534           0.0000000000
     31602     10534  TIP3      H2              4.2283833595       -0.9996022861       -2.9867996465  W2        10534           0.0000000000
     31603     10535  TIP3      OH2             9.8434933595       -2.8226022861      -16.6608596465  W2        10535           0.0000000000
     31604     10535  TIP3      H1             10.0824733595       -3.5707922861      -17.2079696465  W2        10535           0.0000000000
     31605     10535  TIP3      H2              9.5746233595       -3.2104322861      -15.8280796465  W2        10535           0.0000000000
     31606     10536  TIP3      OH2             8.7805533595       -3.2522222861      -14.2045996465  W2        10536           0.0000000000
     31607     10536  TIP3      H1              8.9273533595       -3.7722422861      -13.4145096465  W2        10536           0.0000000000
     31608     10536  TIP3      H2              8.7777233595       -2.3454622861      -13.8980096465  W2        10536           0.0000000000
     31609     10537  TIP3      OH2             5.2336633595       -5.9998922861      -13.6940596465  W2        10537           0.0000000000
     31610     10537  TIP3      H1              4.5475933595       -5.6476422861      -13.1270896465  W2        10537           0.0000000000
     31611     10537  TIP3      H2              5.7564533595       -5.2369322861      -13.9406296465  W2        10537           0.0000000000
     31612     10538  TIP3      OH2            13.0651733595      -13.3375122861       -3.4151596465  W2        10538           0.0000000000
     31613     10538  TIP3      H1             13.7639633595      -13.2636422861       -2.7651896465  W2        10538           0.0000000000
     31614     10538  TIP3      H2             12.6843133595      -14.2020122861       -3.2608696465  W2        10538           0.0000000000
     31615     10539  TIP3      OH2            13.8496633595      -13.6853422861      -12.3179296465  W2        10539           0.0000000000
     31616     10539  TIP3      H1             14.0694933595      -13.2138022861      -13.1213896465  W2        10539           0.0000000000
     31617     10539  TIP3      H2             14.4080633595      -13.2910822861      -11.6478696465  W2        10539           0.0000000000
     31618     10540  TIP3      OH2            11.5182733595       -1.5548622861      -13.4551796465  W2        10540           0.0000000000
     31619     10540  TIP3      H1             10.7018833595       -1.0578922861      -13.4027496465  W2        10540           0.0000000000
     31620     10540  TIP3      H2             12.0479033595       -1.0795122861      -14.0952996465  W2        10540           0.0000000000
     31621     10541  TIP3      OH2            11.0496533595      -11.9574622861      -11.4830896465  W2        10541           0.0000000000
     31622     10541  TIP3      H1             11.8619133595      -11.4531422861      -11.4369196465  W2        10541           0.0000000000
     31623     10541  TIP3      H2             10.8049533595      -12.1024922861      -10.5691296465  W2        10541           0.0000000000
     31624     10542  TIP3      OH2            11.5852933595      -10.9711922861       -2.2984296465  W2        10542           0.0000000000
     31625     10542  TIP3      H1             11.7043233595      -10.3976522861       -1.5413896465  W2        10542           0.0000000000
     31626     10542  TIP3      H2             12.2407533595      -11.6592522861       -2.1836496465  W2        10542           0.0000000000
     31627     10543  TIP3      OH2            11.9333233595      -14.8761622861      -10.5449796465  W2        10543           0.0000000000
     31628     10543  TIP3      H1             11.5866733595      -14.2591022861       -9.9005496465  W2        10543           0.0000000000
     31629     10543  TIP3      H2             12.5920133595      -14.3755922861      -11.0264296465  W2        10543           0.0000000000
     31630     10544  TIP3      OH2             8.8565833595       -0.5111422861      -13.4734896465  W2        10544           0.0000000000
     31631     10544  TIP3      H1              9.0174533595        0.2886077139      -13.9742296465  W2        10544           0.0000000000
     31632     10544  TIP3      H2              8.6593633595       -0.2045422861      -12.5884296465  W2        10544           0.0000000000
     31633     10545  TIP3      OH2             7.5910233595      -13.8132222861      -13.8577296465  W2        10545           0.0000000000
     31634     10545  TIP3      H1              7.5075033595      -12.9249122861      -13.5110896465  W2        10545           0.0000000000
     31635     10545  TIP3      H2              8.4810533595      -14.0785522861      -13.6260496465  W2        10545           0.0000000000
     31636     10546  TIP3      OH2            17.7898733595      -13.0641622861       -1.4634596465  W2        10546           0.0000000000
     31637     10546  TIP3      H1             16.8734533595      -12.8019922861       -1.5510896465  W2        10546           0.0000000000
     31638     10546  TIP3      H2             18.1253733595      -13.0672622861       -2.3599296465  W2        10546           0.0000000000
     31639     10547  TIP3      OH2            16.3919733595       -9.3140622861       -7.3677296465  W2        10547           0.0000000000
     31640     10547  TIP3      H1             15.5944133595       -9.7290422861       -7.6962296465  W2        10547           0.0000000000
     31641     10547  TIP3      H2             16.8370833595      -10.0046922861       -6.8766796465  W2        10547           0.0000000000
     31642     10548  TIP3      OH2             5.8495533595       -3.3860022861      -14.7972796465  W2        10548           0.0000000000
     31643     10548  TIP3      H1              6.4417033595       -2.6865222861      -14.5210396465  W2        10548           0.0000000000
     31644     10548  TIP3      H2              6.3088533595       -3.8190522861      -15.5168196465  W2        10548           0.0000000000
     31645     10549  TIP3      OH2             4.1654733595      -10.7217022861      -15.6813396465  W2        10549           0.0000000000
     31646     10549  TIP3      H1              4.1207333595       -9.7823922861      -15.5026396465  W2        10549           0.0000000000
     31647     10549  TIP3      H2              3.2777933595      -10.9572122861      -15.9511296465  W2        10549           0.0000000000
     31648     10550  TIP3      OH2            17.4784333595       -0.0578122861       -5.7453796465  W2        10550           0.0000000000
     31649     10550  TIP3      H1             17.3228633595        0.6206277139       -6.4024496465  W2        10550           0.0000000000
     31650     10550  TIP3      H2             18.4110733595        0.0141177139       -5.5423196465  W2        10550           0.0000000000
     31651     10551  TIP3      OH2             4.9736733595      -15.9400422861       -7.0082396465  W2        10551           0.0000000000
     31652     10551  TIP3      H1              4.7446533595      -15.8807922861       -7.9357396465  W2        10551           0.0000000000
     31653     10551  TIP3      H2              4.5310133595      -16.7314922861       -6.7018296465  W2        10551           0.0000000000
     31654     10552  TIP3      OH2             3.9040033595       -1.9993322861      -10.8476596465  W2        10552           0.0000000000
     31655     10552  TIP3      H1              3.0718633595       -1.5270622861      -10.8205196465  W2        10552           0.0000000000
     31656     10552  TIP3      H2              4.4498333595       -1.4895722861      -11.4463496465  W2        10552           0.0000000000
     31657     10553  TIP3      OH2             3.1923733595        0.6130377139        0.4821403535  W2        10553           0.0000000000
     31658     10553  TIP3      H1              3.7325933595        0.3964377139        1.2420603535  W2        10553           0.0000000000
     31659     10553  TIP3      H2              2.7111733595       -0.1923622861        0.2923903535  W2        10553           0.0000000000
     31660     10554  TIP3      OH2             7.7897133595       -0.4675222861        2.1025603535  W2        10554           0.0000000000
     31661     10554  TIP3      H1              8.5574333595       -0.9264422861        2.4434803535  W2        10554           0.0000000000
     31662     10554  TIP3      H2              7.7683333595       -0.6935422861        1.1726803535  W2        10554           0.0000000000
     31663     10555  TIP3      OH2            11.8816733595       -0.9594622861      -16.5222596465  W2        10555           0.0000000000
     31664     10555  TIP3      H1             11.2377733595       -1.5906022861      -16.2008896465  W2        10555           0.0000000000
     31665     10555  TIP3      H2             12.6435033595       -1.4906622861      -16.7539096465  W2        10555           0.0000000000
     31666     10556  TIP3      OH2            14.3665833595       -2.0874122861        0.8317103535  W2        10556           0.0000000000
     31667     10556  TIP3      H1             14.0155333595       -2.9441122861        1.0747503535  W2        10556           0.0000000000
     31668     10556  TIP3      H2             15.0929033595       -1.9447422861        1.4386103535  W2        10556           0.0000000000
     31669     10557  TIP3      OH2            16.4859633595       -1.1424722861      -16.2884596465  W2        10557           0.0000000000
     31670     10557  TIP3      H1             16.7690033595       -1.9369522861      -15.8357696465  W2        10557           0.0000000000
     31671     10557  TIP3      H2             17.2257533595       -0.9093722861      -16.8493496465  W2        10557           0.0000000000
     31672     10558  TIP3      OH2             3.0993233595       -5.5765522861        1.4365703535  W2        10558           0.0000000000
     31673     10558  TIP3      H1              3.2433733595       -6.4784822861        1.1502403535  W2        10558           0.0000000000
     31674     10558  TIP3      H2              2.3270633595       -5.2903422861        0.9488003535  W2        10558           0.0000000000
     31675     10559  TIP3      OH2             7.4406933595       -5.2329822861      -16.4309696465  W2        10559           0.0000000000
     31676     10559  TIP3      H1              7.5051033595       -6.0270222861      -15.9003296465  W2        10559           0.0000000000
     31677     10559  TIP3      H2              8.0936133595       -5.3517022861      -17.1207696465  W2        10559           0.0000000000
     31678     10560  TIP3      OH2             9.7549333595       -5.6067422861        0.8692103535  W2        10560           0.0000000000
     31679     10560  TIP3      H1              9.4263133595       -5.3359322861        0.0119503535  W2        10560           0.0000000000
     31680     10560  TIP3      H2              9.9067533595       -6.5477622861        0.7817103535  W2        10560           0.0000000000
     31681     10561  TIP3      OH2            12.7930333595       -4.1858122861      -16.6951696465  W2        10561           0.0000000000
     31682     10561  TIP3      H1             12.5244433595       -4.0056022861      -15.7942796465  W2        10561           0.0000000000
     31683     10561  TIP3      H2             12.5865933595       -5.1111922861      -16.8265896465  W2        10561           0.0000000000
     31684     10562  TIP3      OH2            15.4894533595       -5.6910122861       -1.7475596465  W2        10562           0.0000000000
     31685     10562  TIP3      H1             16.2349333595       -5.1026422861       -1.8671596465  W2        10562           0.0000000000
     31686     10562  TIP3      H2             14.7321333595       -5.1090422861       -1.6842496465  W2        10562           0.0000000000
     31687     10563  TIP3      OH2             3.9319733595       -8.3762222861        0.8565003535  W2        10563           0.0000000000
     31688     10563  TIP3      H1              4.3400933595       -9.2335622861        0.7355603535  W2        10563           0.0000000000
     31689     10563  TIP3      H2              3.6717333595       -8.3620922861        1.7775303535  W2        10563           0.0000000000
     31690     10564  TIP3      OH2             8.5900733595       -7.2603622861      -14.1251696465  W2        10564           0.0000000000
     31691     10564  TIP3      H1              8.1302733595       -7.7445322861      -13.4393196465  W2        10564           0.0000000000
     31692     10564  TIP3      H2              8.8449433595       -7.9288222861      -14.7611196465  W2        10564           0.0000000000
     31693     10565  TIP3      OH2             7.8790033595       -9.3676522861       -1.7692096465  W2        10565           0.0000000000
     31694     10565  TIP3      H1              7.2606133595       -8.6929922861       -1.4887396465  W2        10565           0.0000000000
     31695     10565  TIP3      H2              8.2231233595       -9.0462622861       -2.6025896465  W2        10565           0.0000000000
     31696     10566  TIP3      OH2             9.6611133595       -9.0171822861      -15.8628496465  W2        10566           0.0000000000
     31697     10566  TIP3      H1              9.4806133595       -9.1720622861      -16.7900196465  W2        10566           0.0000000000
     31698     10566  TIP3      H2             10.6111633595       -8.9093122861      -15.8180596465  W2        10566           0.0000000000
     31699     10567  TIP3      OH2            12.8988233595       -6.8961222861        1.5082703535  W2        10567           0.0000000000
     31700     10567  TIP3      H1             13.8519433595       -6.8122122861        1.4808703535  W2        10567           0.0000000000
     31701     10567  TIP3      H2             12.7382833595       -7.6079422861        2.1277603535  W2        10567           0.0000000000
     31702     10568  TIP3      OH2            19.0509433595       -6.6627622861      -16.4170396465  W2        10568           0.0000000000
     31703     10568  TIP3      H1             18.7774233595       -7.0872122861      -17.2302096465  W2        10568           0.0000000000
     31704     10568  TIP3      H2             19.0903533595       -5.7313122861      -16.6339996465  W2        10568           0.0000000000
     31705     10569  TIP3      OH2             8.2183733595      -12.0125722861       -0.6868996465  W2        10569           0.0000000000
     31706     10569  TIP3      H1              8.3684633595      -12.7414422861       -1.2889296465  W2        10569           0.0000000000
     31707     10569  TIP3      H2              8.2206133595      -11.2354022861       -1.2456796465  W2        10569           0.0000000000
     31708     10570  TIP3      OH2             8.6309433595      -13.6429922861       -3.1941596465  W2        10570           0.0000000000
     31709     10570  TIP3      H1              9.1666933595      -13.1913222861       -3.8462296465  W2        10570           0.0000000000
     31710     10570  TIP3      H2              7.7789033595      -13.7510122861       -3.6167496465  W2        10570           0.0000000000
     31711     10571  TIP3      OH2            10.2127833595       -8.2033722861       -2.9546396465  W2        10571           0.0000000000
     31712     10571  TIP3      H1             10.9632633595       -8.3596222861       -3.5278596465  W2        10571           0.0000000000
     31713     10571  TIP3      H2              9.8736133595       -7.3517122861       -3.2300896465  W2        10571           0.0000000000
     31714     10572  TIP3      OH2            14.6284033595      -10.3881922861        2.0738903535  W2        10572           0.0000000000
     31715     10572  TIP3      H1             14.8205333595      -11.3192522861        1.9623403535  W2        10572           0.0000000000
     31716     10572  TIP3      H2             15.4860333595       -9.9632422861        2.0634303535  W2        10572           0.0000000000
     31717     10573  TIP3      OH2            15.9451233595       -7.5996722861        0.1511603535  W2        10573           0.0000000000
     31718     10573  TIP3      H1             15.6636233595       -6.8902122861       -0.4264596465  W2        10573           0.0000000000
     31719     10573  TIP3      H2             16.8875533595       -7.6723722861        0.0002803535  W2        10573           0.0000000000
     31720     10574  TIP3      OH2             6.6970033595      -10.8142222861        1.2246603535  W2        10574           0.0000000000
     31721     10574  TIP3      H1              5.9299033595      -11.3467422861        1.0144203535  W2        10574           0.0000000000
     31722     10574  TIP3      H2              7.3759033595      -11.1241822861        0.6252903535  W2        10574           0.0000000000
     31723     10575  TIP3      OH2             9.4364933595      -16.1864222861       -2.7627996465  W2        10575           0.0000000000
     31724     10575  TIP3      H1              9.3384533595      -15.2401022861       -2.8681796465  W2        10575           0.0000000000
     31725     10575  TIP3      H2              8.6941133595      -16.5590422861       -3.2384496465  W2        10575           0.0000000000
     31726     10576  TIP3      OH2            10.7005433595      -11.8648822861        0.8010403535  W2        10576           0.0000000000
     31727     10576  TIP3      H1             10.4650833595      -12.0842122861        1.7025303535  W2        10576           0.0000000000
     31728     10576  TIP3      H2              9.9172333595      -12.0717622861        0.2912903535  W2        10576           0.0000000000
     31729     10577  TIP3      OH2            13.4162033595      -12.7375322861       -0.1236096465  W2        10577           0.0000000000
     31730     10577  TIP3      H1             12.4687433595      -12.7055622861        0.0087203535  W2        10577           0.0000000000
     31731     10577  TIP3      H2             13.7288733595      -13.3628222861        0.5302103535  W2        10577           0.0000000000
     31732     10578  TIP3      OH2            15.0503533595      -14.1034222861        1.8815803535  W2        10578           0.0000000000
     31733     10578  TIP3      H1             14.9535333595      -15.0556922861        1.8757703535  W2        10578           0.0000000000
     31734     10578  TIP3      H2             14.7286633595      -13.8347422861        2.7421303535  W2        10578           0.0000000000
     31735     10579  TIP3      OH2             4.8772833595      -12.8938422861        0.9291303535  W2        10579           0.0000000000
     31736     10579  TIP3      H1              5.0890233595      -13.6002322861        0.3188803535  W2        10579           0.0000000000
     31737     10579  TIP3      H2              4.7660333595      -13.3312422861        1.7732503535  W2        10579           0.0000000000
     31738     10580  TIP3      OH2             9.6583033595      -16.8926822861       -0.0915196465  W2        10580           0.0000000000
     31739     10580  TIP3      H1             10.3701433595      -17.5324622861       -0.1056096465  W2        10580           0.0000000000
     31740     10580  TIP3      H2              9.5573433595      -16.6258522861       -1.0052096465  W2        10580           0.0000000000
     31741     10581  TIP3      OH2            10.0120533595      -15.2098422861        1.9621103535  W2        10581           0.0000000000
     31742     10581  TIP3      H1              9.8802733595      -15.6854622861        1.1419603535  W2        10581           0.0000000000
     31743     10581  TIP3      H2              9.4127933595      -14.4654822861        1.9068203535  W2        10581           0.0000000000
     31744     10582  TIP3      OH2             9.5582833595        1.6731877139      -14.8614896465  W2        10582           0.0000000000
     31745     10582  TIP3      H1             10.4913533595        1.8310577139      -14.7176496465  W2        10582           0.0000000000
     31746     10582  TIP3      H2              9.2941633595        2.3484877139      -15.4863396465  W2        10582           0.0000000000
     31747     10583  TIP3      OH2             3.1267733595       -3.6904322861      -15.3786796465  W2        10583           0.0000000000
     31748     10583  TIP3      H1              4.0406933595       -3.6115422861      -15.1052896465  W2        10583           0.0000000000
     31749     10583  TIP3      H2              3.1340833595       -4.3774722861      -16.0451196465  W2        10583           0.0000000000
     31750     10584  TIP3      OH2             1.7758333595        1.7024177139      -10.3012896465  W2        10584           0.0000000000
     31751     10584  TIP3      H1              1.1285433595        1.2405877139      -10.8341696465  W2        10584           0.0000000000
     31752     10584  TIP3      H2              2.1302933595        1.0307477139       -9.7186696465  W2        10584           0.0000000000
     31753     10585  TIP3      OH2             2.6457533595       -0.2168822861       -8.4966696465  W2        10585           0.0000000000
     31754     10585  TIP3      H1              2.3114333595       -1.0971522861       -8.3246496465  W2        10585           0.0000000000
     31755     10585  TIP3      H2              2.8679933595        0.1286177139       -7.6321096465  W2        10585           0.0000000000
     31756     10586  TIP3      OH2            20.1942333595        0.5927577139       -5.5161896465  W2        10586           0.0000000000
     31757     10586  TIP3      H1             20.1729033595        0.7775977139       -4.5772496465  W2        10586           0.0000000000
     31758     10586  TIP3      H2             20.8848533595        1.1611577139       -5.8570496465  W2        10586           0.0000000000
     31759     10587  TIP3      OH2            19.7575233595        0.1598677139       -2.5942796465  W2        10587           0.0000000000
     31760     10587  TIP3      H1             19.2703933595       -0.5757222861       -2.9655396465  W2        10587           0.0000000000
     31761     10587  TIP3      H2             20.3067933595       -0.2337422861       -1.9163396465  W2        10587           0.0000000000
     31762     10588  TIP3      OH2            18.2082533595       -4.0503222861        2.0437503535  W2        10588           0.0000000000
     31763     10588  TIP3      H1             17.3423633595       -4.1553522861        2.4379803535  W2        10588           0.0000000000
     31764     10588  TIP3      H2             18.5848433595       -3.2919922861        2.4902203535  W2        10588           0.0000000000
     31765     10589  TIP3      OH2            19.5092233595       -5.7939522861      -12.4419996465  W2        10589           0.0000000000
     31766     10589  TIP3      H1             20.3593633595       -5.3728622861      -12.3148396465  W2        10589           0.0000000000
     31767     10589  TIP3      H2             19.5147333595       -6.5339422861      -11.8348596465  W2        10589           0.0000000000
     31768     10590  TIP3      OH2            19.9037833595       -7.7402122861      -10.6184296465  W2        10590           0.0000000000
     31769     10590  TIP3      H1             19.1772433595       -8.2199522861      -10.2206696465  W2        10590           0.0000000000
     31770     10590  TIP3      H2             20.4851133595       -7.5347422861       -9.8862696465  W2        10590           0.0000000000
     31771     10591  TIP3      OH2            19.6629033595       -4.9554622861       -5.6706696465  W2        10591           0.0000000000
     31772     10591  TIP3      H1             20.4963233595       -5.3334622861       -5.9513096465  W2        10591           0.0000000000
     31773     10591  TIP3      H2             19.7749333595       -4.0123422861       -5.7897596465  W2        10591           0.0000000000
     31774     10592  TIP3      OH2            18.1491333595       -2.0777122861       -3.3638296465  W2        10592           0.0000000000
     31775     10592  TIP3      H1             17.5016633595       -1.7525622861       -2.7383096465  W2        10592           0.0000000000
     31776     10592  TIP3      H2             17.6315333595       -2.5179422861       -4.0379996465  W2        10592           0.0000000000
     31777     10593  TIP3      OH2            20.1720933595       -7.8393622861      -14.2272996465  W2        10593           0.0000000000
     31778     10593  TIP3      H1             19.6502033595       -7.4829522861      -14.9462096465  W2        10593           0.0000000000
     31779     10593  TIP3      H2             20.1390133595       -7.1645822861      -13.5492096465  W2        10593           0.0000000000
     31780     10594  TIP3      OH2            18.5209933595      -10.5998022861      -15.6765896465  W2        10594           0.0000000000
     31781     10594  TIP3      H1             18.6174333595       -9.9331022861      -16.3566196465  W2        10594           0.0000000000
     31782     10594  TIP3      H2             18.3809533595      -11.4151722861      -16.1580396465  W2        10594           0.0000000000
     31783     10595  TIP3      OH2            17.6904633595       -9.2195622861      -10.0555596465  W2        10595           0.0000000000
     31784     10595  TIP3      H1             17.5403433595      -10.1647022861      -10.0757796465  W2        10595           0.0000000000
     31785     10595  TIP3      H2             17.3369133595       -8.9384222861       -9.2116496465  W2        10595           0.0000000000
     31786     10596  TIP3      OH2             2.7257033595       -7.1413422861       -6.0451796465  W2        10596           0.0000000000
     31787     10596  TIP3      H1              2.9099933595       -7.2231722861       -6.9808896465  W2        10596           0.0000000000
     31788     10596  TIP3      H2              3.5749933595       -7.2656422861       -5.6215396465  W2        10596           0.0000000000
     31789     10597  TIP3      OH2            18.5467533595       -7.2492322861       -0.4167296465  W2        10597           0.0000000000
     31790     10597  TIP3      H1             19.1294833595       -7.9840022861       -0.2250096465  W2        10597           0.0000000000
     31791     10597  TIP3      H2             19.1106833595       -6.4772022861       -0.3701496465  W2        10597           0.0000000000
     31792     10598  TIP3      OH2            20.0434633595       -9.3466522861        0.2678103535  W2        10598           0.0000000000
     31793     10598  TIP3      H1             19.1801333595       -9.7254422861        0.1022803535  W2        10598           0.0000000000
     31794     10598  TIP3      H2             20.6478333595      -10.0851722861        0.1933903535  W2        10598           0.0000000000
     31795     10599  TIP3      OH2            17.7683733595      -13.1918222861      -16.5590396465  W2        10599           0.0000000000
     31796     10599  TIP3      H1             18.3789533595      -13.5631422861      -15.9222196465  W2        10599           0.0000000000
     31797     10599  TIP3      H2             16.9315233595      -13.6131322861      -16.3630396465  W2        10599           0.0000000000
     31798     10600  TIP3      OH2            17.4009433595      -11.6369822861      -11.5930496465  W2        10600           0.0000000000
     31799     10600  TIP3      H1             17.6806533595      -12.5439422861      -11.4688796465  W2        10600           0.0000000000
     31800     10600  TIP3      H2             18.1601133595      -11.2028322861      -11.9821296465  W2        10600           0.0000000000
     31801     10601  TIP3      OH2            18.0127733595      -11.0552422861       -6.1571596465  W2        10601           0.0000000000
     31802     10601  TIP3      H1             18.9455733595      -10.8432522861       -6.1915596465  W2        10601           0.0000000000
     31803     10601  TIP3      H2             17.7775233595      -10.9540322861       -5.2348596465  W2        10601           0.0000000000
     31804     10602  TIP3      OH2            18.0419633595      -10.3187122861       -3.3812196465  W2        10602           0.0000000000
     31805     10602  TIP3      H1             17.1990933595      -10.0506722861       -3.0152396465  W2        10602           0.0000000000
     31806     10602  TIP3      H2             18.4843933595       -9.4965222861       -3.5921096465  W2        10602           0.0000000000
     31807     10603  TIP3      OH2             2.3231833595      -11.8708422861        0.0957003535  W2        10603           0.0000000000
     31808     10603  TIP3      H1              3.2426733595      -11.9930122861        0.3320103535  W2        10603           0.0000000000
     31809     10603  TIP3      H2              1.8736333595      -12.6208722861        0.4850503535  W2        10603           0.0000000000
     31810     10604  TIP3      OH2            20.3251233595      -16.3386922861        1.9722803535  W2        10604           0.0000000000
     31811     10604  TIP3      H1             20.6748233595      -16.9923422861        1.3667503535  W2        10604           0.0000000000
     31812     10604  TIP3      H2             20.4720733595      -15.5012822861        1.5325403535  W2        10604           0.0000000000
     31813     10605  TIP3      OH2            18.0144233595      -14.3740522861      -11.5448496465  W2        10605           0.0000000000
     31814     10605  TIP3      H1             18.1969233595      -14.8229022861      -10.7193496465  W2        10605           0.0000000000
     31815     10605  TIP3      H2             17.4147133595      -14.9586122861      -12.0083896465  W2        10605           0.0000000000
     31816     10606  TIP3      OH2             3.5444333595      -13.5586822861       -7.0130096465  W2        10606           0.0000000000
     31817     10606  TIP3      H1              3.9895933595      -14.3504322861       -6.7110396465  W2        10606           0.0000000000
     31818     10606  TIP3      H2              4.0107333595      -12.8421622861       -6.5824496465  W2        10606           0.0000000000
     31819     10607  TIP3      OH2             1.8484633595      -10.5593822861       -5.9439896465  W2        10607           0.0000000000
     31820     10607  TIP3      H1              2.3404433595      -10.7803322861       -6.7347896465  W2        10607           0.0000000000
     31821     10607  TIP3      H2              2.2105533595       -9.7190422861       -5.6630396465  W2        10607           0.0000000000
     31822     10608  TIP3      OH2            19.8448433595      -14.2292322861        0.3214103535  W2        10608           0.0000000000
     31823     10608  TIP3      H1             18.9274133595      -13.9585222861        0.2857603535  W2        10608           0.0000000000
     31824     10608  TIP3      H2             19.9677833595      -14.7643922861       -0.4626196465  W2        10608           0.0000000000
     31825     10609  TIP3      OH2            19.8810433595      -14.3062422861      -15.0168196465  W2        10609           0.0000000000
     31826     10609  TIP3      H1             20.2933033595      -15.0276722861      -15.4920196465  W2        10609           0.0000000000
     31827     10609  TIP3      H2             20.5626933595      -13.6367822861      -14.9583896465  W2        10609           0.0000000000
     31828     10610  TIP3      OH2             2.1621133595      -14.3014722861      -11.8897496465  W2        10610           0.0000000000
     31829     10610  TIP3      H1              1.2369533595      -14.0928122861      -12.0191996465  W2        10610           0.0000000000
     31830     10610  TIP3      H2              2.6161033595      -13.8173922861      -12.5795196465  W2        10610           0.0000000000
     31831     10611  TIP3      OH2            16.9328333595        0.6826977139       -9.9440096465  W2        10611           0.0000000000
     31832     10611  TIP3      H1             17.5851233595        0.3349077139      -10.5520996465  W2        10611           0.0000000000
     31833     10611  TIP3      H2             17.4432133595        1.1710177139       -9.2980396465  W2        10611           0.0000000000
     31834     10612  TIP3      OH2             2.1256533595      -15.5635722861       -3.5454996465  W2        10612           0.0000000000
     31835     10612  TIP3      H1              1.4607033595      -15.8095422861       -2.9024096465  W2        10612           0.0000000000
     31836     10612  TIP3      H2              1.6827833595      -14.9415322861       -4.1226996465  W2        10612           0.0000000000
     31837     10613  TIP3      OH2             4.3175833595       -2.3881622861        0.5990803535  W2        10613           0.0000000000
     31838     10613  TIP3      H1              3.4968333595       -2.2135122861        0.1385503535  W2        10613           0.0000000000
     31839     10613  TIP3      H2              4.0653633595       -2.4616922861        1.5195203535  W2        10613           0.0000000000
     31840     10614  TIP3      OH2             7.2718733595       -1.4140422861       -3.1425196465  W2        10614           0.0000000000
     31841     10614  TIP3      H1              6.8469833595       -0.6041922861       -3.4250596465  W2        10614           0.0000000000
     31842     10614  TIP3      H2              8.1761533595       -1.3286322861       -3.4445396465  W2        10614           0.0000000000
     31843     10615  TIP3      OH2            11.5830133595       -0.0150422861       -0.1831496465  W2        10615           0.0000000000
     31844     10615  TIP3      H1             11.7677633595       -0.3484322861        0.6948803535  W2        10615           0.0000000000
     31845     10615  TIP3      H2             12.4294633595        0.2948177139       -0.5052296465  W2        10615           0.0000000000
     31846     10616  TIP3      OH2            13.9280533595        1.2708477139       -0.9390096465  W2        10616           0.0000000000
     31847     10616  TIP3      H1             14.6049433595        0.6380777139       -1.1790896465  W2        10616           0.0000000000
     31848     10616  TIP3      H2             14.2499333595        1.6718977139       -0.1316796465  W2        10616           0.0000000000
     31849     10617  TIP3      OH2            18.8454333595      -16.1396022861       -1.8595096465  W2        10617           0.0000000000
     31850     10617  TIP3      H1             18.0327833595      -15.8145722861       -2.2470396465  W2        10617           0.0000000000
     31851     10617  TIP3      H2             19.0782833595      -16.8997522861       -2.3925996465  W2        10617           0.0000000000
     31852     10618  TIP3      OH2             4.6735433595        1.8423477139       -3.0949896465  W2        10618           0.0000000000
     31853     10618  TIP3      H1              3.9531833595        2.2824477139       -3.5462196465  W2        10618           0.0000000000
     31854     10618  TIP3      H2              4.3079433595        1.5918177139       -2.2465896465  W2        10618           0.0000000000
     31855     10619  TIP3      OH2             7.1408033595        1.4427377139       -4.0652696465  W2        10619           0.0000000000
     31856     10619  TIP3      H1              6.2760233595        1.5145877139       -3.6612596465  W2        10619           0.0000000000
     31857     10619  TIP3      H2              7.0857033595        1.9894677139       -4.8490196465  W2        10619           0.0000000000
     31858     10620  TIP3      OH2            11.8513633595        1.3306277139       -4.8896696465  W2        10620           0.0000000000
     31859     10620  TIP3      H1             11.3947633595        1.8595977139       -5.5438296465  W2        10620           0.0000000000
     31860     10620  TIP3      H2             12.0141633595        1.9337677139       -4.1644396465  W2        10620           0.0000000000
     31861     10621  TIP3      OH2            14.1789933595        0.2085877139       -3.9446396465  W2        10621           0.0000000000
     31862     10621  TIP3      H1             13.2743633595        0.3736077139       -4.2104296465  W2        10621           0.0000000000
     31863     10621  TIP3      H2             14.6078533595        1.0618077139       -4.0102996465  W2        10621           0.0000000000
     31864     10622  TIP3      OH2            16.7831833595        1.7784977139       -3.6498596465  W2        10622           0.0000000000
     31865     10622  TIP3      H1             16.6013833595        2.6943877139       -3.8603696465  W2        10622           0.0000000000
     31866     10622  TIP3      H2             16.9599633595        1.3682077139       -4.4963996465  W2        10622           0.0000000000
     31867     10623  TIP3      OH2             4.0883533595        0.4655977139       -6.1848096465  W2        10623           0.0000000000
     31868     10623  TIP3      H1              4.0699533595        0.0401077139       -5.3275796465  W2        10623           0.0000000000
     31869     10623  TIP3      H2              4.8931433595        0.1470977139       -6.5935896465  W2        10623           0.0000000000
     31870     10624  TIP3      OH2             6.2296633595       -0.8245322861       -7.5298196465  W2        10624           0.0000000000
     31871     10624  TIP3      H1              6.0107333595       -1.7407922861       -7.3602196465  W2        10624           0.0000000000
     31872     10624  TIP3      H2              7.0538833595       -0.6844922861       -7.0636796465  W2        10624           0.0000000000
     31873     10625  TIP3      OH2             8.7669133595       -0.3546022861       -6.6810196465  W2        10625           0.0000000000
     31874     10625  TIP3      H1              8.9794833595       -1.2427022861       -6.9679296465  W2        10625           0.0000000000
     31875     10625  TIP3      H2              8.8314233595       -0.3888322861       -5.7266196465  W2        10625           0.0000000000
     31876     10626  TIP3      OH2            12.2752833595      -14.6905422861       -7.5366896465  W2        10626           0.0000000000
     31877     10626  TIP3      H1             11.6009633595      -15.3199822861       -7.2811096465  W2        10626           0.0000000000
     31878     10626  TIP3      H2             12.8392033595      -15.1746522861       -8.1398996465  W2        10626           0.0000000000
     31879     10627  TIP3      OH2            17.4180033595      -16.5831422861       -7.4239796465  W2        10627           0.0000000000
     31880     10627  TIP3      H1             18.0217633595      -16.0356022861       -7.9258796465  W2        10627           0.0000000000
     31881     10627  TIP3      H2             16.5482033595      -16.2641022861       -7.6645696465  W2        10627           0.0000000000
     31882     10628  TIP3      OH2            19.1450433595      -15.4442722861       -9.0908896465  W2        10628           0.0000000000
     31883     10628  TIP3      H1             19.7567933595      -15.9587022861       -9.6175296465  W2        10628           0.0000000000
     31884     10628  TIP3      H2             19.5273833595      -14.5670622861       -9.0674496465  W2        10628           0.0000000000
     31885     10629  TIP3      OH2             4.6020333595      -16.0565122861       -9.7146996465  W2        10629           0.0000000000
     31886     10629  TIP3      H1              3.8250133595      -16.2910222861      -10.2221096465  W2        10629           0.0000000000
     31887     10629  TIP3      H2              5.1323933595      -16.8533022861       -9.7058996465  W2        10629           0.0000000000
     31888     10630  TIP3      OH2             3.4383733595      -16.2587022861      -13.9110896465  W2        10630           0.0000000000
     31889     10630  TIP3      H1              3.8774433595      -15.6476522861      -14.5027396465  W2        10630           0.0000000000
     31890     10630  TIP3      H2              2.8046133595      -15.7202922861      -13.4370896465  W2        10630           0.0000000000
     31891     10631  TIP3      OH2             9.1812933595      -16.1298022861       -9.9013896465  W2        10631           0.0000000000
     31892     10631  TIP3      H1             10.0556333595      -15.7413722861       -9.9309596465  W2        10631           0.0000000000
     31893     10631  TIP3      H2              9.0453733595      -16.3450222861       -8.9786696465  W2        10631           0.0000000000
     31894     10632  TIP3      OH2            14.7381333595      -16.0998222861       -8.2522196465  W2        10632           0.0000000000
     31895     10632  TIP3      H1             14.8142933595      -16.0046622861       -9.2016196465  W2        10632           0.0000000000
     31896     10632  TIP3      H2             14.4630533595      -17.0075322861       -8.1233096465  W2        10632           0.0000000000
     31897     10633  TIP3      OH2            16.0913933595      -16.0740422861      -12.5597196465  W2        10633           0.0000000000
     31898     10633  TIP3      H1             15.3885033595      -15.4591222861      -12.7695796465  W2        10633           0.0000000000
     31899     10633  TIP3      H2             15.6465333595      -16.9113722861      -12.4286296465  W2        10633           0.0000000000
     31900     10634  TIP3      OH2             3.3393233595       -0.3104822861      -13.0135796465  W2        10634           0.0000000000
     31901     10634  TIP3      H1              2.6543133595       -0.3485922861      -13.6810696465  W2        10634           0.0000000000
     31902     10634  TIP3      H2              3.3430433595        0.6022777139      -12.7253696465  W2        10634           0.0000000000
     31903     10635  TIP3      OH2             5.2992833595      -14.3425522861      -15.4686796465  W2        10635           0.0000000000
     31904     10635  TIP3      H1              5.7906233595      -14.9723122861      -15.9961296465  W2        10635           0.0000000000
     31905     10635  TIP3      H2              5.9229133595      -14.0466122861      -14.8055596465  W2        10635           0.0000000000
     31906     10636  TIP3      OH2            10.3252933595      -14.0494022861      -13.0116296465  W2        10636           0.0000000000
     31907     10636  TIP3      H1             10.5034233595      -14.6960822861      -12.3287696465  W2        10636           0.0000000000
     31908     10636  TIP3      H2             10.2719133595      -13.2156322861      -12.5445196465  W2        10636           0.0000000000
     31909     10637  TIP3      OH2            12.2036733595        0.8990077139      -14.6159596465  W2        10637           0.0000000000
     31910     10637  TIP3      H1             13.0696933595        1.2657477139      -14.7941396465  W2        10637           0.0000000000
     31911     10637  TIP3      H2             11.9569533595        0.4598077139      -15.4298796465  W2        10637           0.0000000000
     31912     10638  TIP3      OH2            18.9126333595        0.4620377139      -11.9368496465  W2        10638           0.0000000000
     31913     10638  TIP3      H1             18.7183433595       -0.2857522861      -12.5018896465  W2        10638           0.0000000000
     31914     10638  TIP3      H2             18.8736433595        1.2200477139      -12.5200596465  W2        10638           0.0000000000
     31915     10639  TIP3      OH2             4.5598333595      -15.5423222861       -0.1970796465  W2        10639           0.0000000000
     31916     10639  TIP3      H1              4.1936533595      -16.3080622861        0.2453903535  W2        10639           0.0000000000
     31917     10639  TIP3      H2              5.4726833595      -15.5133022861        0.0894303535  W2        10639           0.0000000000
     31918     10640  TIP3      OH2             6.5329133595      -16.1918822861        1.3386303535  W2        10640           0.0000000000
     31919     10640  TIP3      H1              7.4312733595      -16.4658622861        1.1539703535  W2        10640           0.0000000000
     31920     10640  TIP3      H2              6.1462233595      -16.9342822861        1.8028903535  W2        10640           0.0000000000
     31921     10641  TIP3      OH2             5.1574433595        0.6095977139      -15.9883696465  W2        10641           0.0000000000
     31922     10641  TIP3      H1              4.8899033595        0.8958877139      -15.1150596465  W2        10641           0.0000000000
     31923     10641  TIP3      H2              5.9287033595        0.0635177139      -15.8361196465  W2        10641           0.0000000000
     31924     10642  TIP3      OH2            14.9541433595      -16.8593522861        1.5209103535  W2        10642           0.0000000000
     31925     10642  TIP3      H1             15.0308633595      -17.2852822861        2.3746803535  W2        10642           0.0000000000
     31926     10642  TIP3      H2             15.8478033595      -16.8458822861        1.1782603535  W2        10642           0.0000000000
     31927     10643  TIP3      OH2            18.1302533595       -0.7867222861        0.2133303535  W2        10643           0.0000000000
     31928     10643  TIP3      H1             17.3484433595       -0.9729222861       -0.3066096465  W2        10643           0.0000000000
     31929     10643  TIP3      H2             18.0582433595        0.1427077139        0.4305803535  W2        10643           0.0000000000
     31930     10644  TIP3      OH2            32.5362933595       -6.9002822861       -9.7559496465  W2        10644           0.0000000000
     31931     10644  TIP3      H1             32.6254033595       -5.9564622861       -9.8882396465  W2        10644           0.0000000000
     31932     10644  TIP3      H2             31.8980533595       -7.1756422861      -10.4140096465  W2        10644           0.0000000000
     31933     10645  TIP3      OH2            31.4694233595       -7.6452122861       -6.3371296465  W2        10645           0.0000000000
     31934     10645  TIP3      H1             31.4311733595       -8.2915822861       -5.6321696465  W2        10645           0.0000000000
     31935     10645  TIP3      H2             31.1470733595       -8.1117722861       -7.1082596465  W2        10645           0.0000000000
     31936     10646  TIP3      OH2            23.8379233595       -8.0310022861       -4.7441396465  W2        10646           0.0000000000
     31937     10646  TIP3      H1             23.8791333595       -8.6566722861       -4.0208996465  W2        10646           0.0000000000
     31938     10646  TIP3      H2             24.5406933595       -7.4071422861       -4.5620996465  W2        10646           0.0000000000
     31939     10647  TIP3      OH2            35.1754433595       -4.7061722861       -8.0356196465  W2        10647           0.0000000000
     31940     10647  TIP3      H1             34.7347133595       -5.4265722861       -7.5850596465  W2        10647           0.0000000000
     31941     10647  TIP3      H2             35.1624133595       -3.9854522861       -7.4058496465  W2        10647           0.0000000000
     31942     10648  TIP3      OH2            24.7612333595       -3.5811122861       -6.2092296465  W2        10648           0.0000000000
     31943     10648  TIP3      H1             24.3917533595       -4.3830622861       -6.5787996465  W2        10648           0.0000000000
     31944     10648  TIP3      H2             25.7023433595       -3.7496222861       -6.1628896465  W2        10648           0.0000000000
     31945     10649  TIP3      OH2            21.3712833595       -9.9208522861      -10.8163496465  W2        10649           0.0000000000
     31946     10649  TIP3      H1             20.9236233595       -9.0749822861      -10.8346996465  W2        10649           0.0000000000
     31947     10649  TIP3      H2             20.8104033595      -10.5004322861      -11.3318396465  W2        10649           0.0000000000
     31948     10650  TIP3      OH2            22.0818933595       -7.7588922861       -8.6905496465  W2        10650           0.0000000000
     31949     10650  TIP3      H1             22.2952433595       -8.5287322861       -8.1632496465  W2        10650           0.0000000000
     31950     10650  TIP3      H2             22.8196533595       -7.6692222861       -9.2937896465  W2        10650           0.0000000000
     31951     10651  TIP3      OH2            32.2869933595        0.3979977139       -7.8235796465  W2        10651           0.0000000000
     31952     10651  TIP3      H1             32.9066333595       -0.2785322861       -8.0966596465  W2        10651           0.0000000000
     31953     10651  TIP3      H2             32.0787333595        0.1800777139       -6.9150896465  W2        10651           0.0000000000
     31954     10652  TIP3      OH2            29.8588633595       -5.2130722861       -5.9310296465  W2        10652           0.0000000000
     31955     10652  TIP3      H1             30.1626533595       -5.8989322861       -6.5256196465  W2        10652           0.0000000000
     31956     10652  TIP3      H2             30.5802633595       -5.0942022861       -5.3132296465  W2        10652           0.0000000000
     31957     10653  TIP3      OH2            38.5218433595      -13.6115422861       -5.0704096465  W2        10653           0.0000000000
     31958     10653  TIP3      H1             38.5710633595      -13.0014222861       -4.3344996465  W2        10653           0.0000000000
     31959     10653  TIP3      H2             38.9473533595      -13.1504522861       -5.7932996465  W2        10653           0.0000000000
     31960     10654  TIP3      OH2            32.9995633595      -10.8188322861       -5.6035496465  W2        10654           0.0000000000
     31961     10654  TIP3      H1             33.1421533595      -11.7651322861       -5.5833896465  W2        10654           0.0000000000
     31962     10654  TIP3      H2             32.8934633595      -10.6118522861       -6.5320596465  W2        10654           0.0000000000
     31963     10655  TIP3      OH2            26.1543933595      -12.7171922861       -8.3310696465  W2        10655           0.0000000000
     31964     10655  TIP3      H1             26.1975033595      -11.8573422861       -8.7494396465  W2        10655           0.0000000000
     31965     10655  TIP3      H2             25.6968033595      -13.2697222861       -8.9647496465  W2        10655           0.0000000000
     31966     10656  TIP3      OH2            33.8766633595      -12.5866322861       -9.9302396465  W2        10656           0.0000000000
     31967     10656  TIP3      H1             34.5230933595      -12.9153122861       -9.3054796465  W2        10656           0.0000000000
     31968     10656  TIP3      H2             34.3866033595      -12.0687322861      -10.5530996465  W2        10656           0.0000000000
     31969     10657  TIP3      OH2            22.7745433595      -10.3206122861       -7.5689296465  W2        10657           0.0000000000
     31970     10657  TIP3      H1             23.4282033595      -10.8704422861       -7.1369196465  W2        10657           0.0000000000
     31971     10657  TIP3      H2             22.7984733595      -10.5947122861       -8.4857296465  W2        10657           0.0000000000
     31972     10658  TIP3      OH2            27.9309933595       -8.7704822861       -8.3537796465  W2        10658           0.0000000000
     31973     10658  TIP3      H1             28.5470933595       -9.2969422861       -7.8443796465  W2        10658           0.0000000000
     31974     10658  TIP3      H2             27.3448733595       -9.4106122861       -8.7574196465  W2        10658           0.0000000000
     31975     10659  TIP3      OH2            38.9133033595      -12.1336222861       -2.8344296465  W2        10659           0.0000000000
     31976     10659  TIP3      H1             38.2247633595      -11.4755522861       -2.9297696465  W2        10659           0.0000000000
     31977     10659  TIP3      H2             38.9287633595      -12.3308322861       -1.8978896465  W2        10659           0.0000000000
     31978     10660  TIP3      OH2            24.9645833595      -13.7993522861       -4.2569896465  W2        10660           0.0000000000
     31979     10660  TIP3      H1             24.7457533595      -13.2692922861       -5.0233896465  W2        10660           0.0000000000
     31980     10660  TIP3      H2             24.2966733595      -13.5728022861       -3.6098496465  W2        10660           0.0000000000
     31981     10661  TIP3      OH2            32.3335633595       -4.2992422861      -10.7130796465  W2        10661           0.0000000000
     31982     10661  TIP3      H1             32.0380733595       -4.6220122861      -11.5643896465  W2        10661           0.0000000000
     31983     10661  TIP3      H2             32.0093433595       -3.3995722861      -10.6718196465  W2        10661           0.0000000000
     31984     10662  TIP3      OH2            27.5337233595       -6.1237822861       -3.9696196465  W2        10662           0.0000000000
     31985     10662  TIP3      H1             26.7936333595       -5.5256322861       -3.8660996465  W2        10662           0.0000000000
     31986     10662  TIP3      H2             28.2476733595       -5.5698222861       -4.2852596465  W2        10662           0.0000000000
     31987     10663  TIP3      OH2            35.6405033595      -13.2957022861       -7.9496496465  W2        10663           0.0000000000
     31988     10663  TIP3      H1             35.4253033595      -14.0613622861       -7.4170496465  W2        10663           0.0000000000
     31989     10663  TIP3      H2             36.2962433595      -12.8232422861       -7.4367996465  W2        10663           0.0000000000
     31990     10664  TIP3      OH2            24.5583133595      -11.9071722861       -6.3047696465  W2        10664           0.0000000000
     31991     10664  TIP3      H1             25.1719433595      -11.2744122861       -5.9315296465  W2        10664           0.0000000000
     31992     10664  TIP3      H2             25.0703833595      -12.3796722861       -6.9610796465  W2        10664           0.0000000000
     31993     10665  TIP3      OH2            25.9411533595       -4.1594822861       -3.1824696465  W2        10665           0.0000000000
     31994     10665  TIP3      H1             25.9359133595       -3.2801322861       -3.5605396465  W2        10665           0.0000000000
     31995     10665  TIP3      H2             25.0875633595       -4.2430722861       -2.7574796465  W2        10665           0.0000000000
     31996     10666  TIP3      OH2            22.0622433595       -4.4886922861      -12.4005396465  W2        10666           0.0000000000
     31997     10666  TIP3      H1             21.7903333595       -4.2595922861      -13.2892496465  W2        10666           0.0000000000
     31998     10666  TIP3      H2             22.1078133595       -3.6508122861      -11.9400096465  W2        10666           0.0000000000
     31999     10667  TIP3      OH2            35.6872133595       -2.8671022861       -5.6876896465  W2        10667           0.0000000000
     32000     10667  TIP3      H1             34.7455833595       -2.8087122861       -5.5259996465  W2        10667           0.0000000000
     32001     10667  TIP3      H2             35.9638233595       -1.9610522861       -5.8247196465  W2        10667           0.0000000000
     32002     10668  TIP3      OH2            35.9879133595      -14.5805722861       -4.2702996465  W2        10668           0.0000000000
     32003     10668  TIP3      H1             35.2518333595      -13.9698622861       -4.3081696465  W2        10668           0.0000000000
     32004     10668  TIP3      H2             36.6713133595      -14.1656722861       -4.7966596465  W2        10668           0.0000000000
     32005     10669  TIP3      OH2            28.9910533595      -16.4938422861       -6.8044996465  W2        10669           0.0000000000
     32006     10669  TIP3      H1             28.8734733595      -17.4422422861       -6.8586696465  W2        10669           0.0000000000
     32007     10669  TIP3      H2             28.1360633595      -16.1612322861       -6.5313896465  W2        10669           0.0000000000
     32008     10670  TIP3      OH2            33.9393333595       -1.0857522861       -9.0625296465  W2        10670           0.0000000000
     32009     10670  TIP3      H1             34.3645633595       -1.7929622861       -9.5475696465  W2        10670           0.0000000000
     32010     10670  TIP3      H2             34.2563333595       -0.2844822861       -9.4793096465  W2        10670           0.0000000000
     32011     10671  TIP3      OH2            35.0989833595       -3.1849022861      -10.5538696465  W2        10671           0.0000000000
     32012     10671  TIP3      H1             34.8414633595       -3.8748922861      -11.1652796465  W2        10671           0.0000000000
     32013     10671  TIP3      H2             35.1700633595       -3.6277822861       -9.7082796465  W2        10671           0.0000000000
     32014     10672  TIP3      OH2            36.7850033595       -4.6182322861       -2.0765196465  W2        10672           0.0000000000
     32015     10672  TIP3      H1             36.9246333595       -5.2099822861       -2.8158196465  W2        10672           0.0000000000
     32016     10672  TIP3      H2             36.9522833595       -3.7456422861       -2.4326396465  W2        10672           0.0000000000
     32017     10673  TIP3      OH2            31.2575433595       -7.6562822861      -12.3039196465  W2        10673           0.0000000000
     32018     10673  TIP3      H1             30.5460933595       -7.1213122861      -12.6558696465  W2        10673           0.0000000000
     32019     10673  TIP3      H2             31.9485033595       -7.6010722861      -12.9640296465  W2        10673           0.0000000000
     32020     10674  TIP3      OH2            31.3114633595       -9.1988522861      -15.2654196465  W2        10674           0.0000000000
     32021     10674  TIP3      H1             32.0124533595       -9.1761622861      -14.6140196465  W2        10674           0.0000000000
     32022     10674  TIP3      H2             31.6137533595       -9.8268822861      -15.9214896465  W2        10674           0.0000000000
     32023     10675  TIP3      OH2            38.6269333595       -8.2784322861       -4.0104796465  W2        10675           0.0000000000
     32024     10675  TIP3      H1             37.9743433595       -7.5838722861       -3.9213896465  W2        10675           0.0000000000
     32025     10675  TIP3      H2             39.0919633595       -8.0683422861       -4.8203196465  W2        10675           0.0000000000
     32026     10676  TIP3      OH2            34.6633133595       -7.4469522861      -11.3523296465  W2        10676           0.0000000000
     32027     10676  TIP3      H1             33.9314133595       -7.2185822861      -10.7792696465  W2        10676           0.0000000000
     32028     10676  TIP3      H2             35.1105333595       -8.1606822861      -10.8975796465  W2        10676           0.0000000000
     32029     10677  TIP3      OH2            34.5606633595       -9.2726922861       -2.2846296465  W2        10677           0.0000000000
     32030     10677  TIP3      H1             34.6405733595       -8.5092522861       -1.7127796465  W2        10677           0.0000000000
     32031     10677  TIP3      H2             33.9594333595       -8.9934522861       -2.9751196465  W2        10677           0.0000000000
     32032     10678  TIP3      OH2            26.3086833595       -6.8163322861       -9.4698296465  W2        10678           0.0000000000
     32033     10678  TIP3      H1             25.9782033595       -7.1869922861      -10.2881296465  W2        10678           0.0000000000
     32034     10678  TIP3      H2             26.8970933595       -7.4869322861       -9.1229996465  W2        10678           0.0000000000
     32035     10679  TIP3      OH2            27.6754333595       -3.3882722861       -6.7886096465  W2        10679           0.0000000000
     32036     10679  TIP3      H1             27.5805633595       -3.9669622861       -7.5451496465  W2        10679           0.0000000000
     32037     10679  TIP3      H2             28.4047933595       -3.7597022861       -6.2923296465  W2        10679           0.0000000000
     32038     10680  TIP3      OH2            26.6752333595       -8.0477722861       -5.8363296465  W2        10680           0.0000000000
     32039     10680  TIP3      H1             27.2404833595       -7.9263522861       -6.5992096465  W2        10680           0.0000000000
     32040     10680  TIP3      H2             26.9941233595       -7.4102722861       -5.1974796465  W2        10680           0.0000000000
     32041     10681  TIP3      OH2            32.9844533595       -2.5445822861       -5.1022796465  W2        10681           0.0000000000
     32042     10681  TIP3      H1             32.7441133595       -1.8822722861       -4.4543596465  W2        10681           0.0000000000
     32043     10681  TIP3      H2             32.7862733595       -3.3790622861       -4.6773196465  W2        10681           0.0000000000
     32044     10682  TIP3      OH2            27.5553033595       -3.6485022861       -1.1191396465  W2        10682           0.0000000000
     32045     10682  TIP3      H1             27.2440533595       -2.8661822861       -0.6638196465  W2        10682           0.0000000000
     32046     10682  TIP3      H2             26.9053233595       -3.8015922861       -1.8049396465  W2        10682           0.0000000000
     32047     10683  TIP3      OH2            33.5342633595       -8.2846622861      -13.6672096465  W2        10683           0.0000000000
     32048     10683  TIP3      H1             34.1138133595       -8.1346322861      -12.9203196465  W2        10683           0.0000000000
     32049     10683  TIP3      H2             33.9482633595       -7.8139222861      -14.3905696465  W2        10683           0.0000000000
     32050     10684  TIP3      OH2            24.4752933595       -7.4503922861       -1.8905696465  W2        10684           0.0000000000
     32051     10684  TIP3      H1             24.5456133595       -6.7997122861       -1.1920696465  W2        10684           0.0000000000
     32052     10684  TIP3      H2             23.5845133595       -7.3476422861       -2.2254796465  W2        10684           0.0000000000
     32053     10685  TIP3      OH2            31.2607533595       -1.5478122861      -10.2318996465  W2        10685           0.0000000000
     32054     10685  TIP3      H1             31.7345133595       -1.2521822861       -9.4544796465  W2        10685           0.0000000000
     32055     10685  TIP3      H2             30.6976833595       -0.8096522861      -10.4649396465  W2        10685           0.0000000000
     32056     10686  TIP3      OH2            25.7948933595       -1.5770022861       -0.3557596465  W2        10686           0.0000000000
     32057     10686  TIP3      H1             25.8024233595       -1.7130322861       -1.3032096465  W2        10686           0.0000000000
     32058     10686  TIP3      H2             24.8789333595       -1.6941922861       -0.1037596465  W2        10686           0.0000000000
     32059     10687  TIP3      OH2            37.2331033595      -16.5346222861      -13.8542396465  W2        10687           0.0000000000
     32060     10687  TIP3      H1             36.3331733595      -16.3957222861      -13.5591796465  W2        10687           0.0000000000
     32061     10687  TIP3      H2             37.4849433595      -15.7031622861      -14.2560696465  W2        10687           0.0000000000
     32062     10688  TIP3      OH2            25.2989533595       -7.7469022861      -11.8805496465  W2        10688           0.0000000000
     32063     10688  TIP3      H1             25.0070833595       -6.9787322861      -12.3714196465  W2        10688           0.0000000000
     32064     10688  TIP3      H2             24.6244733595       -8.4062822861      -12.0434096465  W2        10688           0.0000000000
     32065     10689  TIP3      OH2            38.4222433595       -2.1683822861      -15.4778496465  W2        10689           0.0000000000
     32066     10689  TIP3      H1             38.4955933595       -1.2293622861      -15.3073196465  W2        10689           0.0000000000
     32067     10689  TIP3      H2             39.3277533595       -2.4735222861      -15.5341196465  W2        10689           0.0000000000
     32068     10690  TIP3      OH2            21.3919633595       -5.3839822861       -3.0655696465  W2        10690           0.0000000000
     32069     10690  TIP3      H1             20.8908033595       -5.4120422861       -3.8805996465  W2        10690           0.0000000000
     32070     10690  TIP3      H2             21.3973333595       -6.2896622861       -2.7558396465  W2        10690           0.0000000000
     32071     10691  TIP3      OH2            21.1422333595       -2.6036022861       -6.1815496465  W2        10691           0.0000000000
     32072     10691  TIP3      H1             22.0882933595       -2.7479022861       -6.2005996465  W2        10691           0.0000000000
     32073     10691  TIP3      H2             21.0298633595       -1.8193222861       -5.6444296465  W2        10691           0.0000000000
     32074     10692  TIP3      OH2            39.3400833595       -1.9376322861       -0.4991796465  W2        10692           0.0000000000
     32075     10692  TIP3      H1             39.2907633595       -2.8928222861       -0.5364196465  W2        10692           0.0000000000
     32076     10692  TIP3      H2             38.5133133595       -1.6701022861       -0.0977996465  W2        10692           0.0000000000
     32077     10693  TIP3      OH2            30.3184833595       -2.3637122861       -1.6230396465  W2        10693           0.0000000000
     32078     10693  TIP3      H1             30.4059433595       -1.5372522861       -1.1481296465  W2        10693           0.0000000000
     32079     10693  TIP3      H2             29.4549933595       -2.6933322861       -1.3741096465  W2        10693           0.0000000000
     32080     10694  TIP3      OH2            30.7330633595        1.4086577139      -11.8169796465  W2        10694           0.0000000000
     32081     10694  TIP3      H1             30.6576633595        1.2873777139      -12.7634596465  W2        10694           0.0000000000
     32082     10694  TIP3      H2             30.7659333595        2.3579277139      -11.6985196465  W2        10694           0.0000000000
     32083     10695  TIP3      OH2            24.3864433595        0.1973577139      -10.0360796465  W2        10695           0.0000000000
     32084     10695  TIP3      H1             24.5384833595       -0.1506022861       -9.1574296465  W2        10695           0.0000000000
     32085     10695  TIP3      H2             23.5354833595       -0.1589122861      -10.2913596465  W2        10695           0.0000000000
     32086     10696  TIP3      OH2            33.8346633595        0.5626777139      -14.8147396465  W2        10696           0.0000000000
     32087     10696  TIP3      H1             34.2095033595       -0.1817122861      -15.2854796465  W2        10696           0.0000000000
     32088     10696  TIP3      H2             33.8390333595        0.2927377139      -13.8964096465  W2        10696           0.0000000000
     32089     10697  TIP3      OH2            33.5034733595        0.4883877139      -12.0655196465  W2        10697           0.0000000000
     32090     10697  TIP3      H1             32.5684533595        0.5885777139      -11.8868196465  W2        10697           0.0000000000
     32091     10697  TIP3      H2             33.7836633595       -0.2210122861      -11.4871996465  W2        10697           0.0000000000
     32092     10698  TIP3      OH2            36.4920633595      -10.4443822861       -0.0189596465  W2        10698           0.0000000000
     32093     10698  TIP3      H1             36.0847433595       -9.9638222861       -0.7396296465  W2        10698           0.0000000000
     32094     10698  TIP3      H2             36.5326333595      -11.3497822861       -0.3268796465  W2        10698           0.0000000000
     32095     10699  TIP3      OH2            23.6410133595       -4.0604422861       -2.0222896465  W2        10699           0.0000000000
     32096     10699  TIP3      H1             23.8571433595       -4.4218822861       -1.1627096465  W2        10699           0.0000000000
     32097     10699  TIP3      H2             22.7854833595       -4.4350622861       -2.2319396465  W2        10699           0.0000000000
     32098     10700  TIP3      OH2            26.2598133595      -15.5903922861       -6.0268696465  W2        10700           0.0000000000
     32099     10700  TIP3      H1             25.3981833595      -15.6775722861       -6.4345796465  W2        10700           0.0000000000
     32100     10700  TIP3      H2             26.2373833595      -14.7343822861       -5.5991096465  W2        10700           0.0000000000
     32101     10701  TIP3      OH2            30.9225933595      -15.8683522861       -2.6521696465  W2        10701           0.0000000000
     32102     10701  TIP3      H1             31.3429033595      -16.2836422861       -1.8991096465  W2        10701           0.0000000000
     32103     10701  TIP3      H2             29.9895533595      -16.0470222861       -2.5349696465  W2        10701           0.0000000000
     32104     10702  TIP3      OH2            34.2490833595      -12.1128322861       -1.7987196465  W2        10702           0.0000000000
     32105     10702  TIP3      H1             33.7350333595      -12.2386122861       -1.0011196465  W2        10702           0.0000000000
     32106     10702  TIP3      H2             34.0935533595      -11.2005222861       -2.0430996465  W2        10702           0.0000000000
     32107     10703  TIP3      OH2            35.0115733595       -7.2518322861      -16.0374196465  W2        10703           0.0000000000
     32108     10703  TIP3      H1             35.0536533595       -7.4744422861      -16.9674196465  W2        10703           0.0000000000
     32109     10703  TIP3      H2             35.8607833595       -6.8531222861      -15.8474296465  W2        10703           0.0000000000
     32110     10704  TIP3      OH2            30.5843233595      -13.3760122861      -15.3670896465  W2        10704           0.0000000000
     32111     10704  TIP3      H1             30.3308033595      -13.3568522861      -14.4442796465  W2        10704           0.0000000000
     32112     10704  TIP3      H2             30.3275333595      -14.2474722861      -15.6684696465  W2        10704           0.0000000000
     32113     10705  TIP3      OH2            26.3508233595      -10.6249422861       -4.9318496465  W2        10705           0.0000000000
     32114     10705  TIP3      H1             25.7090333595      -10.6652122861       -4.2228396465  W2        10705           0.0000000000
     32115     10705  TIP3      H2             26.3880233595       -9.6984722861       -5.1695496465  W2        10705           0.0000000000
     32116     10706  TIP3      OH2            26.3477333595      -10.4039322861      -10.0198496465  W2        10706           0.0000000000
     32117     10706  TIP3      H1             25.4550233595      -10.7443222861      -10.0784696465  W2        10706           0.0000000000
     32118     10706  TIP3      H2             26.7983933595      -10.7808422861      -10.7755296465  W2        10706           0.0000000000
     32119     10707  TIP3      OH2            31.8832833595       -9.9879022861      -11.2027696465  W2        10707           0.0000000000
     32120     10707  TIP3      H1             31.4743133595       -9.1730422861      -11.4942896465  W2        10707           0.0000000000
     32121     10707  TIP3      H2             32.6039033595      -10.1278922861      -11.8170596465  W2        10707           0.0000000000
     32122     10708  TIP3      OH2            30.9854433595       -9.8122622861        0.2853003535  W2        10708           0.0000000000
     32123     10708  TIP3      H1             30.4228233595      -10.5171022861        0.6060803535  W2        10708           0.0000000000
     32124     10708  TIP3      H2             31.8117833595       -9.9330722861        0.7530603535  W2        10708           0.0000000000
     32125     10709  TIP3      OH2            32.8880533595      -10.5418622861       -8.3887996465  W2        10709           0.0000000000
     32126     10709  TIP3      H1             32.6925033595       -9.9361822861       -9.1037396465  W2        10709           0.0000000000
     32127     10709  TIP3      H2             33.0693133595      -11.3753422861       -8.8231696465  W2        10709           0.0000000000
     32128     10710  TIP3      OH2            24.1008733595      -10.3045922861       -3.0646496465  W2        10710           0.0000000000
     32129     10710  TIP3      H1             24.0628133595       -9.9044322861       -2.1959396465  W2        10710           0.0000000000
     32130     10710  TIP3      H2             23.6099833595      -11.1213522861       -2.9743596465  W2        10710           0.0000000000
     32131     10711  TIP3      OH2            27.4666133595      -12.9303622861      -16.2660496465  W2        10711           0.0000000000
     32132     10711  TIP3      H1             27.0356833595      -13.3753522861      -15.5363096465  W2        10711           0.0000000000
     32133     10711  TIP3      H2             26.7484833595      -12.5587322861      -16.7782996465  W2        10711           0.0000000000
     32134     10712  TIP3      OH2            20.7089533595      -13.1884122861       -9.2141796465  W2        10712           0.0000000000
     32135     10712  TIP3      H1             21.3397233595      -13.2172022861       -8.4947896465  W2        10712           0.0000000000
     32136     10712  TIP3      H2             21.1583833595      -13.6135422861       -9.9445896465  W2        10712           0.0000000000
     32137     10713  TIP3      OH2            21.9831633595      -12.4422122861      -13.7901396465  W2        10713           0.0000000000
     32138     10713  TIP3      H1             22.4573333595      -11.8512222861      -14.3750496465  W2        10713           0.0000000000
     32139     10713  TIP3      H2             21.2658033595      -11.9119222861      -13.4431296465  W2        10713           0.0000000000
     32140     10714  TIP3      OH2            32.1519733595       -8.9037322861       -3.7175596465  W2        10714           0.0000000000
     32141     10714  TIP3      H1             32.4754533595       -9.5347622861       -4.3605096465  W2        10714           0.0000000000
     32142     10714  TIP3      H2             31.7119033595       -9.4385122861       -3.0568196465  W2        10714           0.0000000000
     32143     10715  TIP3      OH2            28.9292633595      -12.9761822861       -8.9334396465  W2        10715           0.0000000000
     32144     10715  TIP3      H1             28.0183733595      -12.9195022861       -8.6448396465  W2        10715           0.0000000000
     32145     10715  TIP3      H2             29.4345533595      -13.0366322861       -8.1227196465  W2        10715           0.0000000000
     32146     10716  TIP3      OH2            23.7576033595      -11.3475522861      -10.1066796465  W2        10716           0.0000000000
     32147     10716  TIP3      H1             22.8684033595      -11.2480022861      -10.4467196465  W2        10716           0.0000000000
     32148     10716  TIP3      H2             24.0540933595      -12.1892522861      -10.4528896465  W2        10716           0.0000000000
     32149     10717  TIP3      OH2            27.4107833595      -11.3472922861      -12.4502196465  W2        10717           0.0000000000
     32150     10717  TIP3      H1             28.3423333595      -11.2182922861      -12.2719096465  W2        10717           0.0000000000
     32151     10717  TIP3      H2             27.1958133595      -10.6778622861      -13.0997496465  W2        10717           0.0000000000
     32152     10718  TIP3      OH2            33.3344533595      -13.7415522861       -5.6692596465  W2        10718           0.0000000000
     32153     10718  TIP3      H1             32.6576133595      -13.6102422861       -5.0052896465  W2        10718           0.0000000000
     32154     10718  TIP3      H2             32.8489433595      -13.8966022861       -6.4794896465  W2        10718           0.0000000000
     32155     10719  TIP3      OH2            26.0848033595      -10.1530722861      -14.8836096465  W2        10719           0.0000000000
     32156     10719  TIP3      H1             25.5423133595      -10.5326922861      -15.5748496465  W2        10719           0.0000000000
     32157     10719  TIP3      H2             26.9182933595       -9.9586022861      -15.3121996465  W2        10719           0.0000000000
     32158     10720  TIP3      OH2            36.6219633595        1.9299877139        0.6075003535  W2        10720           0.0000000000
     32159     10720  TIP3      H1             36.8218333595        2.3541777139       -0.2269696465  W2        10720           0.0000000000
     32160     10720  TIP3      H2             37.2773333595        2.2738077139        1.2145403535  W2        10720           0.0000000000
     32161     10721  TIP3      OH2            24.2199433595       -5.5958822861        0.2155503535  W2        10721           0.0000000000
     32162     10721  TIP3      H1             24.9521833595       -5.3412922861        0.7770003535  W2        10721           0.0000000000
     32163     10721  TIP3      H2             23.4398133595       -5.3913422861        0.7310903535  W2        10721           0.0000000000
     32164     10722  TIP3      OH2            30.2492333595      -10.1888822861       -7.0464796465  W2        10722           0.0000000000
     32165     10722  TIP3      H1             30.8135733595      -10.7352222861       -7.5935196465  W2        10722           0.0000000000
     32166     10722  TIP3      H2             30.1015733595      -10.7106922861       -6.2577196465  W2        10722           0.0000000000
     32167     10723  TIP3      OH2            25.2512033595      -14.0522722861      -10.6279996465  W2        10723           0.0000000000
     32168     10723  TIP3      H1             24.9341533595      -14.9547422861      -10.6634596465  W2        10723           0.0000000000
     32169     10723  TIP3      H2             26.0326133595      -14.0505322861      -11.1808396465  W2        10723           0.0000000000
     32170     10724  TIP3      OH2            28.8758233595      -11.8002722861       -4.6324396465  W2        10724           0.0000000000
     32171     10724  TIP3      H1             28.0403533595      -11.3463222861       -4.5221996465  W2        10724           0.0000000000
     32172     10724  TIP3      H2             29.3998833595      -11.5244222861       -3.8804496465  W2        10724           0.0000000000
     32173     10725  TIP3      OH2            29.4200833595       -5.5875022861      -12.9477996465  W2        10725           0.0000000000
     32174     10725  TIP3      H1             28.6751833595       -6.0949722861      -13.2700096465  W2        10725           0.0000000000
     32175     10725  TIP3      H2             29.2858033595       -5.5387022861      -12.0013196465  W2        10725           0.0000000000
     32176     10726  TIP3      OH2            36.5699733595       -6.4546822861       -4.1610396465  W2        10726           0.0000000000
     32177     10726  TIP3      H1             37.2118533595       -5.9980522861       -4.7048196465  W2        10726           0.0000000000
     32178     10726  TIP3      H2             35.7396633595       -6.3414422861       -4.6236296465  W2        10726           0.0000000000
     32179     10727  TIP3      OH2            33.3177633595      -12.7735122861      -14.7485396465  W2        10727           0.0000000000
     32180     10727  TIP3      H1             32.3791833595      -12.6619522861      -14.8996596465  W2        10727           0.0000000000
     32181     10727  TIP3      H2             33.6149733595      -11.9168222861      -14.4419696465  W2        10727           0.0000000000
     32182     10728  TIP3      OH2            30.9392933595       -5.4031722861       -1.7108896465  W2        10728           0.0000000000
     32183     10728  TIP3      H1             30.5939033595       -5.7849322861       -0.9039296465  W2        10728           0.0000000000
     32184     10728  TIP3      H2             30.7393033595       -4.4698122861       -1.6395996465  W2        10728           0.0000000000
     32185     10729  TIP3      OH2            34.0361133595      -10.9062422861      -13.0877996465  W2        10729           0.0000000000
     32186     10729  TIP3      H1             34.9280133595      -11.0437422861      -12.7686796465  W2        10729           0.0000000000
     32187     10729  TIP3      H2             34.0924733595      -10.1156322861      -13.6244496465  W2        10729           0.0000000000
     32188     10730  TIP3      OH2            24.5449133595       -6.2925022861       -7.1780096465  W2        10730           0.0000000000
     32189     10730  TIP3      H1             25.2896333595       -6.2949322861       -7.7793596465  W2        10730           0.0000000000
     32190     10730  TIP3      H2             24.6225733595       -7.1161222861       -6.6964996465  W2        10730           0.0000000000
     32191     10731  TIP3      OH2            31.5454933595       -4.1290722861      -13.9223396465  W2        10731           0.0000000000
     32192     10731  TIP3      H1             31.2503333595       -3.3022822861      -13.5408596465  W2        10731           0.0000000000
     32193     10731  TIP3      H2             30.8424933595       -4.7483822861      -13.7261996465  W2        10731           0.0000000000
     32194     10732  TIP3      OH2            21.5528833595       -7.8318122861       -1.8631596465  W2        10732           0.0000000000
     32195     10732  TIP3      H1             21.7757433595       -8.2498522861       -1.0314096465  W2        10732           0.0000000000
     32196     10732  TIP3      H2             20.9508933595       -8.4443122861       -2.2858796465  W2        10732           0.0000000000
     32197     10733  TIP3      OH2            28.5693733595       -8.3148222861        0.3498103535  W2        10733           0.0000000000
     32198     10733  TIP3      H1             28.2734533595       -8.4805222861       -0.5452796465  W2        10733           0.0000000000
     32199     10733  TIP3      H2             29.5008933595       -8.5347922861        0.3392003535  W2        10733           0.0000000000
     32200     10734  TIP3      OH2            33.1896533595       -2.9416222861       -1.7603896465  W2        10734           0.0000000000
     32201     10734  TIP3      H1             32.2890833595       -2.7583622861       -2.0279996465  W2        10734           0.0000000000
     32202     10734  TIP3      H2             33.2237633595       -2.6826922861       -0.8395096465  W2        10734           0.0000000000
     32203     10735  TIP3      OH2            38.9209833595      -10.6968322861      -13.3931296465  W2        10735           0.0000000000
     32204     10735  TIP3      H1             38.3666133595      -11.0930322861      -14.0653796465  W2        10735           0.0000000000
     32205     10735  TIP3      H2             39.0213433595       -9.7863122861      -13.6707996465  W2        10735           0.0000000000
     32206     10736  TIP3      OH2            38.8841833595       -4.8966622861       -0.5559796465  W2        10736           0.0000000000
     32207     10736  TIP3      H1             38.0330333595       -4.6582822861       -0.9233396465  W2        10736           0.0000000000
     32208     10736  TIP3      H2             39.4745233595       -4.9133422861       -1.3092696465  W2        10736           0.0000000000
     32209     10737  TIP3      OH2            37.2161533595       -1.9107922861      -12.9279196465  W2        10737           0.0000000000
     32210     10737  TIP3      H1             36.8432633595       -2.7364122861      -12.6188596465  W2        10737           0.0000000000
     32211     10737  TIP3      H2             37.4935033595       -2.0938522861      -13.8255796465  W2        10737           0.0000000000
     32212     10738  TIP3      OH2            34.3765433595       -7.1028422861       -5.9067296465  W2        10738           0.0000000000
     32213     10738  TIP3      H1             33.4482333595       -7.3346522861       -5.9337996465  W2        10738           0.0000000000
     32214     10738  TIP3      H2             34.8276533595       -7.8798622861       -6.2368496465  W2        10738           0.0000000000
     32215     10739  TIP3      OH2            26.9198533595       -2.7746822861       -9.7738596465  W2        10739           0.0000000000
     32216     10739  TIP3      H1             27.4470733595       -2.0012422861       -9.9739796465  W2        10739           0.0000000000
     32217     10739  TIP3      H2             26.0397033595       -2.5497622861      -10.0754596465  W2        10739           0.0000000000
     32218     10740  TIP3      OH2            22.6746233595       -7.9122722861      -15.1866196465  W2        10740           0.0000000000
     32219     10740  TIP3      H1             23.2906133595       -7.2855522861      -14.8071396465  W2        10740           0.0000000000
     32220     10740  TIP3      H2             21.8128833595       -7.5962922861      -14.9149696465  W2        10740           0.0000000000
     32221     10741  TIP3      OH2            28.3470833595       -5.1116922861      -10.1974296465  W2        10741           0.0000000000
     32222     10741  TIP3      H1             28.1060833595       -4.1862522861      -10.1558996465  W2        10741           0.0000000000
     32223     10741  TIP3      H2             27.6064433595       -5.5705622861       -9.8010396465  W2        10741           0.0000000000
     32224     10742  TIP3      OH2            28.8617433595       -0.9623322861       -3.8823196465  W2        10742           0.0000000000
     32225     10742  TIP3      H1             29.2242133595       -0.1077722861       -4.1158796465  W2        10742           0.0000000000
     32226     10742  TIP3      H2             29.3932633595       -1.2541722861       -3.1416896465  W2        10742           0.0000000000
     32227     10743  TIP3      OH2            27.0301633595       -0.0899322861      -10.6522096465  W2        10743           0.0000000000
     32228     10743  TIP3      H1             26.0802133595        0.0158077139      -10.6008796465  W2        10743           0.0000000000
     32229     10743  TIP3      H2             27.3819733595        0.7308077139      -10.3074596465  W2        10743           0.0000000000
     32230     10744  TIP3      OH2            32.4058233595       -4.8632622861       -4.1817596465  W2        10744           0.0000000000
     32231     10744  TIP3      H1             31.9799533595       -5.0910922861       -3.3553596465  W2        10744           0.0000000000
     32232     10744  TIP3      H2             32.9864033595       -5.6020822861       -4.3642296465  W2        10744           0.0000000000
     32233     10745  TIP3      OH2            34.6087133595       -3.9342122861      -15.1078596465  W2        10745           0.0000000000
     32234     10745  TIP3      H1             34.9620233595       -4.3142322861      -14.3035096465  W2        10745           0.0000000000
     32235     10745  TIP3      H2             33.6600633595       -4.0277322861      -15.0209296465  W2        10745           0.0000000000
     32236     10746  TIP3      OH2            35.0642433595       -0.3113122861       -1.7122796465  W2        10746           0.0000000000
     32237     10746  TIP3      H1             34.4625633595       -0.8670222861       -2.2076496465  W2        10746           0.0000000000
     32238     10746  TIP3      H2             35.3456133595        0.3556677139       -2.3385396465  W2        10746           0.0000000000
     32239     10747  TIP3      OH2            39.1121533595        0.5450377139      -14.9068396465  W2        10747           0.0000000000
     32240     10747  TIP3      H1             39.8559433595        1.1310877139      -15.0466796465  W2        10747           0.0000000000
     32241     10747  TIP3      H2             38.4179633595        1.1136177139      -14.5735996465  W2        10747           0.0000000000
     32242     10748  TIP3      OH2            23.1868333595      -13.0785422861       -2.3050196465  W2        10748           0.0000000000
     32243     10748  TIP3      H1             22.2940633595      -12.7400022861       -2.3726196465  W2        10748           0.0000000000
     32244     10748  TIP3      H2             23.0881133595      -13.9339322861       -1.8869396465  W2        10748           0.0000000000
     32245     10749  TIP3      OH2            35.4746433595       -5.2620122861      -12.8810696465  W2        10749           0.0000000000
     32246     10749  TIP3      H1             35.1974033595       -5.9900822861      -12.3249596465  W2        10749           0.0000000000
     32247     10749  TIP3      H2             36.4019433595       -5.1428122861      -12.6758096465  W2        10749           0.0000000000
     32248     10750  TIP3      OH2            22.8380333595       -1.2741022861       -3.8700796465  W2        10750           0.0000000000
     32249     10750  TIP3      H1             23.0550633595       -2.2058622861       -3.9011096465  W2        10750           0.0000000000
     32250     10750  TIP3      H2             23.0843833595       -0.9996022861       -2.9867996465  W2        10750           0.0000000000
     32251     10751  TIP3      OH2            28.6994933595       -2.8226022861      -16.6608596465  W2        10751           0.0000000000
     32252     10751  TIP3      H1             28.9384733595       -3.5707922861      -17.2079696465  W2        10751           0.0000000000
     32253     10751  TIP3      H2             28.4306233595       -3.2104322861      -15.8280796465  W2        10751           0.0000000000
     32254     10752  TIP3      OH2            27.6365533595       -3.2522222861      -14.2045996465  W2        10752           0.0000000000
     32255     10752  TIP3      H1             27.7833533595       -3.7722422861      -13.4145096465  W2        10752           0.0000000000
     32256     10752  TIP3      H2             27.6337233595       -2.3454622861      -13.8980096465  W2        10752           0.0000000000
     32257     10753  TIP3      OH2            24.0896633595       -5.9998922861      -13.6940596465  W2        10753           0.0000000000
     32258     10753  TIP3      H1             23.4035933595       -5.6476422861      -13.1270896465  W2        10753           0.0000000000
     32259     10753  TIP3      H2             24.6124533595       -5.2369322861      -13.9406296465  W2        10753           0.0000000000
     32260     10754  TIP3      OH2            31.9211733595      -13.3375122861       -3.4151596465  W2        10754           0.0000000000
     32261     10754  TIP3      H1             32.6199633595      -13.2636422861       -2.7651896465  W2        10754           0.0000000000
     32262     10754  TIP3      H2             31.5403133595      -14.2020122861       -3.2608696465  W2        10754           0.0000000000
     32263     10755  TIP3      OH2            32.7056633595      -13.6853422861      -12.3179296465  W2        10755           0.0000000000
     32264     10755  TIP3      H1             32.9254933595      -13.2138022861      -13.1213896465  W2        10755           0.0000000000
     32265     10755  TIP3      H2             33.2640633595      -13.2910822861      -11.6478696465  W2        10755           0.0000000000
     32266     10756  TIP3      OH2            30.3742733595       -1.5548622861      -13.4551796465  W2        10756           0.0000000000
     32267     10756  TIP3      H1             29.5578833595       -1.0578922861      -13.4027496465  W2        10756           0.0000000000
     32268     10756  TIP3      H2             30.9039033595       -1.0795122861      -14.0952996465  W2        10756           0.0000000000
     32269     10757  TIP3      OH2            29.9056533595      -11.9574622861      -11.4830896465  W2        10757           0.0000000000
     32270     10757  TIP3      H1             30.7179133595      -11.4531422861      -11.4369196465  W2        10757           0.0000000000
     32271     10757  TIP3      H2             29.6609533595      -12.1024922861      -10.5691296465  W2        10757           0.0000000000
     32272     10758  TIP3      OH2            30.4412933595      -10.9711922861       -2.2984296465  W2        10758           0.0000000000
     32273     10758  TIP3      H1             30.5603233595      -10.3976522861       -1.5413896465  W2        10758           0.0000000000
     32274     10758  TIP3      H2             31.0967533595      -11.6592522861       -2.1836496465  W2        10758           0.0000000000
     32275     10759  TIP3      OH2            30.7893233595      -14.8761622861      -10.5449796465  W2        10759           0.0000000000
     32276     10759  TIP3      H1             30.4426733595      -14.2591022861       -9.9005496465  W2        10759           0.0000000000
     32277     10759  TIP3      H2             31.4480133595      -14.3755922861      -11.0264296465  W2        10759           0.0000000000
     32278     10760  TIP3      OH2            27.7125833595       -0.5111422861      -13.4734896465  W2        10760           0.0000000000
     32279     10760  TIP3      H1             27.8734533595        0.2886077139      -13.9742296465  W2        10760           0.0000000000
     32280     10760  TIP3      H2             27.5153633595       -0.2045422861      -12.5884296465  W2        10760           0.0000000000
     32281     10761  TIP3      OH2            26.4470233595      -13.8132222861      -13.8577296465  W2        10761           0.0000000000
     32282     10761  TIP3      H1             26.3635033595      -12.9249122861      -13.5110896465  W2        10761           0.0000000000
     32283     10761  TIP3      H2             27.3370533595      -14.0785522861      -13.6260496465  W2        10761           0.0000000000
     32284     10762  TIP3      OH2            36.6458733595      -13.0641622861       -1.4634596465  W2        10762           0.0000000000
     32285     10762  TIP3      H1             35.7294533595      -12.8019922861       -1.5510896465  W2        10762           0.0000000000
     32286     10762  TIP3      H2             36.9813733595      -13.0672622861       -2.3599296465  W2        10762           0.0000000000
     32287     10763  TIP3      OH2            35.2479733595       -9.3140622861       -7.3677296465  W2        10763           0.0000000000
     32288     10763  TIP3      H1             34.4504133595       -9.7290422861       -7.6962296465  W2        10763           0.0000000000
     32289     10763  TIP3      H2             35.6930833595      -10.0046922861       -6.8766796465  W2        10763           0.0000000000
     32290     10764  TIP3      OH2            24.7055533595       -3.3860022861      -14.7972796465  W2        10764           0.0000000000
     32291     10764  TIP3      H1             25.2977033595       -2.6865222861      -14.5210396465  W2        10764           0.0000000000
     32292     10764  TIP3      H2             25.1648533595       -3.8190522861      -15.5168196465  W2        10764           0.0000000000
     32293     10765  TIP3      OH2            23.0214733595      -10.7217022861      -15.6813396465  W2        10765           0.0000000000
     32294     10765  TIP3      H1             22.9767333595       -9.7823922861      -15.5026396465  W2        10765           0.0000000000
     32295     10765  TIP3      H2             22.1337933595      -10.9572122861      -15.9511296465  W2        10765           0.0000000000
     32296     10766  TIP3      OH2            36.3344333595       -0.0578122861       -5.7453796465  W2        10766           0.0000000000
     32297     10766  TIP3      H1             36.1788633595        0.6206277139       -6.4024496465  W2        10766           0.0000000000
     32298     10766  TIP3      H2             37.2670733595        0.0141177139       -5.5423196465  W2        10766           0.0000000000
     32299     10767  TIP3      OH2            23.8296733595      -15.9400422861       -7.0082396465  W2        10767           0.0000000000
     32300     10767  TIP3      H1             23.6006533595      -15.8807922861       -7.9357396465  W2        10767           0.0000000000
     32301     10767  TIP3      H2             23.3870133595      -16.7314922861       -6.7018296465  W2        10767           0.0000000000
     32302     10768  TIP3      OH2            22.7600033595       -1.9993322861      -10.8476596465  W2        10768           0.0000000000
     32303     10768  TIP3      H1             21.9278633595       -1.5270622861      -10.8205196465  W2        10768           0.0000000000
     32304     10768  TIP3      H2             23.3058333595       -1.4895722861      -11.4463496465  W2        10768           0.0000000000
     32305     10769  TIP3      OH2            22.0483733595        0.6130377139        0.4821403535  W2        10769           0.0000000000
     32306     10769  TIP3      H1             22.5885933595        0.3964377139        1.2420603535  W2        10769           0.0000000000
     32307     10769  TIP3      H2             21.5671733595       -0.1923622861        0.2923903535  W2        10769           0.0000000000
     32308     10770  TIP3      OH2            26.6457133595       -0.4675222861        2.1025603535  W2        10770           0.0000000000
     32309     10770  TIP3      H1             27.4134333595       -0.9264422861        2.4434803535  W2        10770           0.0000000000
     32310     10770  TIP3      H2             26.6243333595       -0.6935422861        1.1726803535  W2        10770           0.0000000000
     32311     10771  TIP3      OH2            30.7376733595       -0.9594622861      -16.5222596465  W2        10771           0.0000000000
     32312     10771  TIP3      H1             30.0937733595       -1.5906022861      -16.2008896465  W2        10771           0.0000000000
     32313     10771  TIP3      H2             31.4995033595       -1.4906622861      -16.7539096465  W2        10771           0.0000000000
     32314     10772  TIP3      OH2            33.2225833595       -2.0874122861        0.8317103535  W2        10772           0.0000000000
     32315     10772  TIP3      H1             32.8715333595       -2.9441122861        1.0747503535  W2        10772           0.0000000000
     32316     10772  TIP3      H2             33.9489033595       -1.9447422861        1.4386103535  W2        10772           0.0000000000
     32317     10773  TIP3      OH2            35.3419633595       -1.1424722861      -16.2884596465  W2        10773           0.0000000000
     32318     10773  TIP3      H1             35.6250033595       -1.9369522861      -15.8357696465  W2        10773           0.0000000000
     32319     10773  TIP3      H2             36.0817533595       -0.9093722861      -16.8493496465  W2        10773           0.0000000000
     32320     10774  TIP3      OH2            21.9553233595       -5.5765522861        1.4365703535  W2        10774           0.0000000000
     32321     10774  TIP3      H1             22.0993733595       -6.4784822861        1.1502403535  W2        10774           0.0000000000
     32322     10774  TIP3      H2             21.1830633595       -5.2903422861        0.9488003535  W2        10774           0.0000000000
     32323     10775  TIP3      OH2            26.2966933595       -5.2329822861      -16.4309696465  W2        10775           0.0000000000
     32324     10775  TIP3      H1             26.3611033595       -6.0270222861      -15.9003296465  W2        10775           0.0000000000
     32325     10775  TIP3      H2             26.9496133595       -5.3517022861      -17.1207696465  W2        10775           0.0000000000
     32326     10776  TIP3      OH2            28.6109333595       -5.6067422861        0.8692103535  W2        10776           0.0000000000
     32327     10776  TIP3      H1             28.2823133595       -5.3359322861        0.0119503535  W2        10776           0.0000000000
     32328     10776  TIP3      H2             28.7627533595       -6.5477622861        0.7817103535  W2        10776           0.0000000000
     32329     10777  TIP3      OH2            31.6490333595       -4.1858122861      -16.6951696465  W2        10777           0.0000000000
     32330     10777  TIP3      H1             31.3804433595       -4.0056022861      -15.7942796465  W2        10777           0.0000000000
     32331     10777  TIP3      H2             31.4425933595       -5.1111922861      -16.8265896465  W2        10777           0.0000000000
     32332     10778  TIP3      OH2            34.3454533595       -5.6910122861       -1.7475596465  W2        10778           0.0000000000
     32333     10778  TIP3      H1             35.0909333595       -5.1026422861       -1.8671596465  W2        10778           0.0000000000
     32334     10778  TIP3      H2             33.5881333595       -5.1090422861       -1.6842496465  W2        10778           0.0000000000
     32335     10779  TIP3      OH2            22.7879733595       -8.3762222861        0.8565003535  W2        10779           0.0000000000
     32336     10779  TIP3      H1             23.1960933595       -9.2335622861        0.7355603535  W2        10779           0.0000000000
     32337     10779  TIP3      H2             22.5277333595       -8.3620922861        1.7775303535  W2        10779           0.0000000000
     32338     10780  TIP3      OH2            27.4460733595       -7.2603622861      -14.1251696465  W2        10780           0.0000000000
     32339     10780  TIP3      H1             26.9862733595       -7.7445322861      -13.4393196465  W2        10780           0.0000000000
     32340     10780  TIP3      H2             27.7009433595       -7.9288222861      -14.7611196465  W2        10780           0.0000000000
     32341     10781  TIP3      OH2            26.7350033595       -9.3676522861       -1.7692096465  W2        10781           0.0000000000
     32342     10781  TIP3      H1             26.1166133595       -8.6929922861       -1.4887396465  W2        10781           0.0000000000
     32343     10781  TIP3      H2             27.0791233595       -9.0462622861       -2.6025896465  W2        10781           0.0000000000
     32344     10782  TIP3      OH2            28.5171133595       -9.0171822861      -15.8628496465  W2        10782           0.0000000000
     32345     10782  TIP3      H1             28.3366133595       -9.1720622861      -16.7900196465  W2        10782           0.0000000000
     32346     10782  TIP3      H2             29.4671633595       -8.9093122861      -15.8180596465  W2        10782           0.0000000000
     32347     10783  TIP3      OH2            31.7548233595       -6.8961222861        1.5082703535  W2        10783           0.0000000000
     32348     10783  TIP3      H1             32.7079433595       -6.8122122861        1.4808703535  W2        10783           0.0000000000
     32349     10783  TIP3      H2             31.5942833595       -7.6079422861        2.1277603535  W2        10783           0.0000000000
     32350     10784  TIP3      OH2            37.9069433595       -6.6627622861      -16.4170396465  W2        10784           0.0000000000
     32351     10784  TIP3      H1             37.6334233595       -7.0872122861      -17.2302096465  W2        10784           0.0000000000
     32352     10784  TIP3      H2             37.9463533595       -5.7313122861      -16.6339996465  W2        10784           0.0000000000
     32353     10785  TIP3      OH2            27.0743733595      -12.0125722861       -0.6868996465  W2        10785           0.0000000000
     32354     10785  TIP3      H1             27.2244633595      -12.7414422861       -1.2889296465  W2        10785           0.0000000000
     32355     10785  TIP3      H2             27.0766133595      -11.2354022861       -1.2456796465  W2        10785           0.0000000000
     32356     10786  TIP3      OH2            27.4869433595      -13.6429922861       -3.1941596465  W2        10786           0.0000000000
     32357     10786  TIP3      H1             28.0226933595      -13.1913222861       -3.8462296465  W2        10786           0.0000000000
     32358     10786  TIP3      H2             26.6349033595      -13.7510122861       -3.6167496465  W2        10786           0.0000000000
     32359     10787  TIP3      OH2            29.0687833595       -8.2033722861       -2.9546396465  W2        10787           0.0000000000
     32360     10787  TIP3      H1             29.8192633595       -8.3596222861       -3.5278596465  W2        10787           0.0000000000
     32361     10787  TIP3      H2             28.7296133595       -7.3517122861       -3.2300896465  W2        10787           0.0000000000
     32362     10788  TIP3      OH2            33.4844033595      -10.3881922861        2.0738903535  W2        10788           0.0000000000
     32363     10788  TIP3      H1             33.6765333595      -11.3192522861        1.9623403535  W2        10788           0.0000000000
     32364     10788  TIP3      H2             34.3420333595       -9.9632422861        2.0634303535  W2        10788           0.0000000000
     32365     10789  TIP3      OH2            34.8011233595       -7.5996722861        0.1511603535  W2        10789           0.0000000000
     32366     10789  TIP3      H1             34.5196233595       -6.8902122861       -0.4264596465  W2        10789           0.0000000000
     32367     10789  TIP3      H2             35.7435533595       -7.6723722861        0.0002803535  W2        10789           0.0000000000
     32368     10790  TIP3      OH2            25.5530033595      -10.8142222861        1.2246603535  W2        10790           0.0000000000
     32369     10790  TIP3      H1             24.7859033595      -11.3467422861        1.0144203535  W2        10790           0.0000000000
     32370     10790  TIP3      H2             26.2319033595      -11.1241822861        0.6252903535  W2        10790           0.0000000000
     32371     10791  TIP3      OH2            28.2924933595      -16.1864222861       -2.7627996465  W2        10791           0.0000000000
     32372     10791  TIP3      H1             28.1944533595      -15.2401022861       -2.8681796465  W2        10791           0.0000000000
     32373     10791  TIP3      H2             27.5501133595      -16.5590422861       -3.2384496465  W2        10791           0.0000000000
     32374     10792  TIP3      OH2            29.5565433595      -11.8648822861        0.8010403535  W2        10792           0.0000000000
     32375     10792  TIP3      H1             29.3210833595      -12.0842122861        1.7025303535  W2        10792           0.0000000000
     32376     10792  TIP3      H2             28.7732333595      -12.0717622861        0.2912903535  W2        10792           0.0000000000
     32377     10793  TIP3      OH2            32.2722033595      -12.7375322861       -0.1236096465  W2        10793           0.0000000000
     32378     10793  TIP3      H1             31.3247433595      -12.7055622861        0.0087203535  W2        10793           0.0000000000
     32379     10793  TIP3      H2             32.5848733595      -13.3628222861        0.5302103535  W2        10793           0.0000000000
     32380     10794  TIP3      OH2            33.9063533595      -14.1034222861        1.8815803535  W2        10794           0.0000000000
     32381     10794  TIP3      H1             33.8095333595      -15.0556922861        1.8757703535  W2        10794           0.0000000000
     32382     10794  TIP3      H2             33.5846633595      -13.8347422861        2.7421303535  W2        10794           0.0000000000
     32383     10795  TIP3      OH2            23.7332833595      -12.8938422861        0.9291303535  W2        10795           0.0000000000
     32384     10795  TIP3      H1             23.9450233595      -13.6002322861        0.3188803535  W2        10795           0.0000000000
     32385     10795  TIP3      H2             23.6220333595      -13.3312422861        1.7732503535  W2        10795           0.0000000000
     32386     10796  TIP3      OH2            28.5143033595      -16.8926822861       -0.0915196465  W2        10796           0.0000000000
     32387     10796  TIP3      H1             29.2261433595      -17.5324622861       -0.1056096465  W2        10796           0.0000000000
     32388     10796  TIP3      H2             28.4133433595      -16.6258522861       -1.0052096465  W2        10796           0.0000000000
     32389     10797  TIP3      OH2            28.8680533595      -15.2098422861        1.9621103535  W2        10797           0.0000000000
     32390     10797  TIP3      H1             28.7362733595      -15.6854622861        1.1419603535  W2        10797           0.0000000000
     32391     10797  TIP3      H2             28.2687933595      -14.4654822861        1.9068203535  W2        10797           0.0000000000
     32392     10798  TIP3      OH2            28.4142833595        1.6731877139      -14.8614896465  W2        10798           0.0000000000
     32393     10798  TIP3      H1             29.3473533595        1.8310577139      -14.7176496465  W2        10798           0.0000000000
     32394     10798  TIP3      H2             28.1501633595        2.3484877139      -15.4863396465  W2        10798           0.0000000000
     32395     10799  TIP3      OH2            21.9827733595       -3.6904322861      -15.3786796465  W2        10799           0.0000000000
     32396     10799  TIP3      H1             22.8966933595       -3.6115422861      -15.1052896465  W2        10799           0.0000000000
     32397     10799  TIP3      H2             21.9900833595       -4.3774722861      -16.0451196465  W2        10799           0.0000000000
     32398     10800  TIP3      OH2            20.6318333595        1.7024177139      -10.3012896465  W2        10800           0.0000000000
     32399     10800  TIP3      H1             19.9845433595        1.2405877139      -10.8341696465  W2        10800           0.0000000000
     32400     10800  TIP3      H2             20.9862933595        1.0307477139       -9.7186696465  W2        10800           0.0000000000
     32401     10801  TIP3      OH2            21.5017533595       -0.2168822861       -8.4966696465  W2        10801           0.0000000000
     32402     10801  TIP3      H1             21.1674333595       -1.0971522861       -8.3246496465  W2        10801           0.0000000000
     32403     10801  TIP3      H2             21.7239933595        0.1286177139       -7.6321096465  W2        10801           0.0000000000
     32404     10802  TIP3      OH2            39.0502333595        0.5927577139       -5.5161896465  W2        10802           0.0000000000
     32405     10802  TIP3      H1             39.0289033595        0.7775977139       -4.5772496465  W2        10802           0.0000000000
     32406     10802  TIP3      H2             39.7408533595        1.1611577139       -5.8570496465  W2        10802           0.0000000000
     32407     10803  TIP3      OH2            38.6135233595        0.1598677139       -2.5942796465  W2        10803           0.0000000000
     32408     10803  TIP3      H1             38.1263933595       -0.5757222861       -2.9655396465  W2        10803           0.0000000000
     32409     10803  TIP3      H2             39.1627933595       -0.2337422861       -1.9163396465  W2        10803           0.0000000000
     32410     10804  TIP3      OH2            37.0642533595       -4.0503222861        2.0437503535  W2        10804           0.0000000000
     32411     10804  TIP3      H1             36.1983633595       -4.1553522861        2.4379803535  W2        10804           0.0000000000
     32412     10804  TIP3      H2             37.4408433595       -3.2919922861        2.4902203535  W2        10804           0.0000000000
     32413     10805  TIP3      OH2            38.3652233595       -5.7939522861      -12.4419996465  W2        10805           0.0000000000
     32414     10805  TIP3      H1             39.2153633595       -5.3728622861      -12.3148396465  W2        10805           0.0000000000
     32415     10805  TIP3      H2             38.3707333595       -6.5339422861      -11.8348596465  W2        10805           0.0000000000
     32416     10806  TIP3      OH2            38.7597833595       -7.7402122861      -10.6184296465  W2        10806           0.0000000000
     32417     10806  TIP3      H1             38.0332433595       -8.2199522861      -10.2206696465  W2        10806           0.0000000000
     32418     10806  TIP3      H2             39.3411133595       -7.5347422861       -9.8862696465  W2        10806           0.0000000000
     32419     10807  TIP3      OH2            38.5189033595       -4.9554622861       -5.6706696465  W2        10807           0.0000000000
     32420     10807  TIP3      H1             39.3523233595       -5.3334622861       -5.9513096465  W2        10807           0.0000000000
     32421     10807  TIP3      H2             38.6309333595       -4.0123422861       -5.7897596465  W2        10807           0.0000000000
     32422     10808  TIP3      OH2            37.0051333595       -2.0777122861       -3.3638296465  W2        10808           0.0000000000
     32423     10808  TIP3      H1             36.3576633595       -1.7525622861       -2.7383096465  W2        10808           0.0000000000
     32424     10808  TIP3      H2             36.4875333595       -2.5179422861       -4.0379996465  W2        10808           0.0000000000
     32425     10809  TIP3      OH2            39.0280933595       -7.8393622861      -14.2272996465  W2        10809           0.0000000000
     32426     10809  TIP3      H1             38.5062033595       -7.4829522861      -14.9462096465  W2        10809           0.0000000000
     32427     10809  TIP3      H2             38.9950133595       -7.1645822861      -13.5492096465  W2        10809           0.0000000000
     32428     10810  TIP3      OH2            37.3769933595      -10.5998022861      -15.6765896465  W2        10810           0.0000000000
     32429     10810  TIP3      H1             37.4734333595       -9.9331022861      -16.3566196465  W2        10810           0.0000000000
     32430     10810  TIP3      H2             37.2369533595      -11.4151722861      -16.1580396465  W2        10810           0.0000000000
     32431     10811  TIP3      OH2            36.5464633595       -9.2195622861      -10.0555596465  W2        10811           0.0000000000
     32432     10811  TIP3      H1             36.3963433595      -10.1647022861      -10.0757796465  W2        10811           0.0000000000
     32433     10811  TIP3      H2             36.1929133595       -8.9384222861       -9.2116496465  W2        10811           0.0000000000
     32434     10812  TIP3      OH2            21.5817033595       -7.1413422861       -6.0451796465  W2        10812           0.0000000000
     32435     10812  TIP3      H1             21.7659933595       -7.2231722861       -6.9808896465  W2        10812           0.0000000000
     32436     10812  TIP3      H2             22.4309933595       -7.2656422861       -5.6215396465  W2        10812           0.0000000000
     32437     10813  TIP3      OH2            37.4027533595       -7.2492322861       -0.4167296465  W2        10813           0.0000000000
     32438     10813  TIP3      H1             37.9854833595       -7.9840022861       -0.2250096465  W2        10813           0.0000000000
     32439     10813  TIP3      H2             37.9666833595       -6.4772022861       -0.3701496465  W2        10813           0.0000000000
     32440     10814  TIP3      OH2            38.8994633595       -9.3466522861        0.2678103535  W2        10814           0.0000000000
     32441     10814  TIP3      H1             38.0361333595       -9.7254422861        0.1022803535  W2        10814           0.0000000000
     32442     10814  TIP3      H2             39.5038333595      -10.0851722861        0.1933903535  W2        10814           0.0000000000
     32443     10815  TIP3      OH2            36.6243733595      -13.1918222861      -16.5590396465  W2        10815           0.0000000000
     32444     10815  TIP3      H1             37.2349533595      -13.5631422861      -15.9222196465  W2        10815           0.0000000000
     32445     10815  TIP3      H2             35.7875233595      -13.6131322861      -16.3630396465  W2        10815           0.0000000000
     32446     10816  TIP3      OH2            36.2569433595      -11.6369822861      -11.5930496465  W2        10816           0.0000000000
     32447     10816  TIP3      H1             36.5366533595      -12.5439422861      -11.4688796465  W2        10816           0.0000000000
     32448     10816  TIP3      H2             37.0161133595      -11.2028322861      -11.9821296465  W2        10816           0.0000000000
     32449     10817  TIP3      OH2            36.8687733595      -11.0552422861       -6.1571596465  W2        10817           0.0000000000
     32450     10817  TIP3      H1             37.8015733595      -10.8432522861       -6.1915596465  W2        10817           0.0000000000
     32451     10817  TIP3      H2             36.6335233595      -10.9540322861       -5.2348596465  W2        10817           0.0000000000
     32452     10818  TIP3      OH2            36.8979633595      -10.3187122861       -3.3812196465  W2        10818           0.0000000000
     32453     10818  TIP3      H1             36.0550933595      -10.0506722861       -3.0152396465  W2        10818           0.0000000000
     32454     10818  TIP3      H2             37.3403933595       -9.4965222861       -3.5921096465  W2        10818           0.0000000000
     32455     10819  TIP3      OH2            21.1791833595      -11.8708422861        0.0957003535  W2        10819           0.0000000000
     32456     10819  TIP3      H1             22.0986733595      -11.9930122861        0.3320103535  W2        10819           0.0000000000
     32457     10819  TIP3      H2             20.7296333595      -12.6208722861        0.4850503535  W2        10819           0.0000000000
     32458     10820  TIP3      OH2            39.1811233595      -16.3386922861        1.9722803535  W2        10820           0.0000000000
     32459     10820  TIP3      H1             39.5308233595      -16.9923422861        1.3667503535  W2        10820           0.0000000000
     32460     10820  TIP3      H2             39.3280733595      -15.5012822861        1.5325403535  W2        10820           0.0000000000
     32461     10821  TIP3      OH2            36.8704233595      -14.3740522861      -11.5448496465  W2        10821           0.0000000000
     32462     10821  TIP3      H1             37.0529233595      -14.8229022861      -10.7193496465  W2        10821           0.0000000000
     32463     10821  TIP3      H2             36.2707133595      -14.9586122861      -12.0083896465  W2        10821           0.0000000000
     32464     10822  TIP3      OH2            22.4004333595      -13.5586822861       -7.0130096465  W2        10822           0.0000000000
     32465     10822  TIP3      H1             22.8455933595      -14.3504322861       -6.7110396465  W2        10822           0.0000000000
     32466     10822  TIP3      H2             22.8667333595      -12.8421622861       -6.5824496465  W2        10822           0.0000000000
     32467     10823  TIP3      OH2            20.7044633595      -10.5593822861       -5.9439896465  W2        10823           0.0000000000
     32468     10823  TIP3      H1             21.1964433595      -10.7803322861       -6.7347896465  W2        10823           0.0000000000
     32469     10823  TIP3      H2             21.0665533595       -9.7190422861       -5.6630396465  W2        10823           0.0000000000
     32470     10824  TIP3      OH2            38.7008433595      -14.2292322861        0.3214103535  W2        10824           0.0000000000
     32471     10824  TIP3      H1             37.7834133595      -13.9585222861        0.2857603535  W2        10824           0.0000000000
     32472     10824  TIP3      H2             38.8237833595      -14.7643922861       -0.4626196465  W2        10824           0.0000000000
     32473     10825  TIP3      OH2            38.7370433595      -14.3062422861      -15.0168196465  W2        10825           0.0000000000
     32474     10825  TIP3      H1             39.1493033595      -15.0276722861      -15.4920196465  W2        10825           0.0000000000
     32475     10825  TIP3      H2             39.4186933595      -13.6367822861      -14.9583896465  W2        10825           0.0000000000
     32476     10826  TIP3      OH2            21.0181133595      -14.3014722861      -11.8897496465  W2        10826           0.0000000000
     32477     10826  TIP3      H1             20.0929533595      -14.0928122861      -12.0191996465  W2        10826           0.0000000000
     32478     10826  TIP3      H2             21.4721033595      -13.8173922861      -12.5795196465  W2        10826           0.0000000000
     32479     10827  TIP3      OH2            35.7888333595        0.6826977139       -9.9440096465  W2        10827           0.0000000000
     32480     10827  TIP3      H1             36.4411233595        0.3349077139      -10.5520996465  W2        10827           0.0000000000
     32481     10827  TIP3      H2             36.2992133595        1.1710177139       -9.2980396465  W2        10827           0.0000000000
     32482     10828  TIP3      OH2            20.9816533595      -15.5635722861       -3.5454996465  W2        10828           0.0000000000
     32483     10828  TIP3      H1             20.3167033595      -15.8095422861       -2.9024096465  W2        10828           0.0000000000
     32484     10828  TIP3      H2             20.5387833595      -14.9415322861       -4.1226996465  W2        10828           0.0000000000
     32485     10829  TIP3      OH2            23.1735833595       -2.3881622861        0.5990803535  W2        10829           0.0000000000
     32486     10829  TIP3      H1             22.3528333595       -2.2135122861        0.1385503535  W2        10829           0.0000000000
     32487     10829  TIP3      H2             22.9213633595       -2.4616922861        1.5195203535  W2        10829           0.0000000000
     32488     10830  TIP3      OH2            26.1278733595       -1.4140422861       -3.1425196465  W2        10830           0.0000000000
     32489     10830  TIP3      H1             25.7029833595       -0.6041922861       -3.4250596465  W2        10830           0.0000000000
     32490     10830  TIP3      H2             27.0321533595       -1.3286322861       -3.4445396465  W2        10830           0.0000000000
     32491     10831  TIP3      OH2            30.4390133595       -0.0150422861       -0.1831496465  W2        10831           0.0000000000
     32492     10831  TIP3      H1             30.6237633595       -0.3484322861        0.6948803535  W2        10831           0.0000000000
     32493     10831  TIP3      H2             31.2854633595        0.2948177139       -0.5052296465  W2        10831           0.0000000000
     32494     10832  TIP3      OH2            32.7840533595        1.2708477139       -0.9390096465  W2        10832           0.0000000000
     32495     10832  TIP3      H1             33.4609433595        0.6380777139       -1.1790896465  W2        10832           0.0000000000
     32496     10832  TIP3      H2             33.1059333595        1.6718977139       -0.1316796465  W2        10832           0.0000000000
     32497     10833  TIP3      OH2            37.7014333595      -16.1396022861       -1.8595096465  W2        10833           0.0000000000
     32498     10833  TIP3      H1             36.8887833595      -15.8145722861       -2.2470396465  W2        10833           0.0000000000
     32499     10833  TIP3      H2             37.9342833595      -16.8997522861       -2.3925996465  W2        10833           0.0000000000
     32500     10834  TIP3      OH2            23.5295433595        1.8423477139       -3.0949896465  W2        10834           0.0000000000
     32501     10834  TIP3      H1             22.8091833595        2.2824477139       -3.5462196465  W2        10834           0.0000000000
     32502     10834  TIP3      H2             23.1639433595        1.5918177139       -2.2465896465  W2        10834           0.0000000000
     32503     10835  TIP3      OH2            25.9968033595        1.4427377139       -4.0652696465  W2        10835           0.0000000000
     32504     10835  TIP3      H1             25.1320233595        1.5145877139       -3.6612596465  W2        10835           0.0000000000
     32505     10835  TIP3      H2             25.9417033595        1.9894677139       -4.8490196465  W2        10835           0.0000000000
     32506     10836  TIP3      OH2            30.7073633595        1.3306277139       -4.8896696465  W2        10836           0.0000000000
     32507     10836  TIP3      H1             30.2507633595        1.8595977139       -5.5438296465  W2        10836           0.0000000000
     32508     10836  TIP3      H2             30.8701633595        1.9337677139       -4.1644396465  W2        10836           0.0000000000
     32509     10837  TIP3      OH2            33.0349933595        0.2085877139       -3.9446396465  W2        10837           0.0000000000
     32510     10837  TIP3      H1             32.1303633595        0.3736077139       -4.2104296465  W2        10837           0.0000000000
     32511     10837  TIP3      H2             33.4638533595        1.0618077139       -4.0102996465  W2        10837           0.0000000000
     32512     10838  TIP3      OH2            35.6391833595        1.7784977139       -3.6498596465  W2        10838           0.0000000000
     32513     10838  TIP3      H1             35.4573833595        2.6943877139       -3.8603696465  W2        10838           0.0000000000
     32514     10838  TIP3      H2             35.8159633595        1.3682077139       -4.4963996465  W2        10838           0.0000000000
     32515     10839  TIP3      OH2            22.9443533595        0.4655977139       -6.1848096465  W2        10839           0.0000000000
     32516     10839  TIP3      H1             22.9259533595        0.0401077139       -5.3275796465  W2        10839           0.0000000000
     32517     10839  TIP3      H2             23.7491433595        0.1470977139       -6.5935896465  W2        10839           0.0000000000
     32518     10840  TIP3      OH2            25.0856633595       -0.8245322861       -7.5298196465  W2        10840           0.0000000000
     32519     10840  TIP3      H1             24.8667333595       -1.7407922861       -7.3602196465  W2        10840           0.0000000000
     32520     10840  TIP3      H2             25.9098833595       -0.6844922861       -7.0636796465  W2        10840           0.0000000000
     32521     10841  TIP3      OH2            27.6229133595       -0.3546022861       -6.6810196465  W2        10841           0.0000000000
     32522     10841  TIP3      H1             27.8354833595       -1.2427022861       -6.9679296465  W2        10841           0.0000000000
     32523     10841  TIP3      H2             27.6874233595       -0.3888322861       -5.7266196465  W2        10841           0.0000000000
     32524     10842  TIP3      OH2            31.1312833595      -14.6905422861       -7.5366896465  W2        10842           0.0000000000
     32525     10842  TIP3      H1             30.4569633595      -15.3199822861       -7.2811096465  W2        10842           0.0000000000
     32526     10842  TIP3      H2             31.6952033595      -15.1746522861       -8.1398996465  W2        10842           0.0000000000
     32527     10843  TIP3      OH2            36.2740033595      -16.5831422861       -7.4239796465  W2        10843           0.0000000000
     32528     10843  TIP3      H1             36.8777633595      -16.0356022861       -7.9258796465  W2        10843           0.0000000000
     32529     10843  TIP3      H2             35.4042033595      -16.2641022861       -7.6645696465  W2        10843           0.0000000000
     32530     10844  TIP3      OH2            38.0010433595      -15.4442722861       -9.0908896465  W2        10844           0.0000000000
     32531     10844  TIP3      H1             38.6127933595      -15.9587022861       -9.6175296465  W2        10844           0.0000000000
     32532     10844  TIP3      H2             38.3833833595      -14.5670622861       -9.0674496465  W2        10844           0.0000000000
     32533     10845  TIP3      OH2            23.4580333595      -16.0565122861       -9.7146996465  W2        10845           0.0000000000
     32534     10845  TIP3      H1             22.6810133595      -16.2910222861      -10.2221096465  W2        10845           0.0000000000
     32535     10845  TIP3      H2             23.9883933595      -16.8533022861       -9.7058996465  W2        10845           0.0000000000
     32536     10846  TIP3      OH2            22.2943733595      -16.2587022861      -13.9110896465  W2        10846           0.0000000000
     32537     10846  TIP3      H1             22.7334433595      -15.6476522861      -14.5027396465  W2        10846           0.0000000000
     32538     10846  TIP3      H2             21.6606133595      -15.7202922861      -13.4370896465  W2        10846           0.0000000000
     32539     10847  TIP3      OH2            28.0372933595      -16.1298022861       -9.9013896465  W2        10847           0.0000000000
     32540     10847  TIP3      H1             28.9116333595      -15.7413722861       -9.9309596465  W2        10847           0.0000000000
     32541     10847  TIP3      H2             27.9013733595      -16.3450222861       -8.9786696465  W2        10847           0.0000000000
     32542     10848  TIP3      OH2            33.5941333595      -16.0998222861       -8.2522196465  W2        10848           0.0000000000
     32543     10848  TIP3      H1             33.6702933595      -16.0046622861       -9.2016196465  W2        10848           0.0000000000
     32544     10848  TIP3      H2             33.3190533595      -17.0075322861       -8.1233096465  W2        10848           0.0000000000
     32545     10849  TIP3      OH2            34.9473933595      -16.0740422861      -12.5597196465  W2        10849           0.0000000000
     32546     10849  TIP3      H1             34.2445033595      -15.4591222861      -12.7695796465  W2        10849           0.0000000000
     32547     10849  TIP3      H2             34.5025333595      -16.9113722861      -12.4286296465  W2        10849           0.0000000000
     32548     10850  TIP3      OH2            22.1953233595       -0.3104822861      -13.0135796465  W2        10850           0.0000000000
     32549     10850  TIP3      H1             21.5103133595       -0.3485922861      -13.6810696465  W2        10850           0.0000000000
     32550     10850  TIP3      H2             22.1990433595        0.6022777139      -12.7253696465  W2        10850           0.0000000000
     32551     10851  TIP3      OH2            24.1552833595      -14.3425522861      -15.4686796465  W2        10851           0.0000000000
     32552     10851  TIP3      H1             24.6466233595      -14.9723122861      -15.9961296465  W2        10851           0.0000000000
     32553     10851  TIP3      H2             24.7789133595      -14.0466122861      -14.8055596465  W2        10851           0.0000000000
     32554     10852  TIP3      OH2            29.1812933595      -14.0494022861      -13.0116296465  W2        10852           0.0000000000
     32555     10852  TIP3      H1             29.3594233595      -14.6960822861      -12.3287696465  W2        10852           0.0000000000
     32556     10852  TIP3      H2             29.1279133595      -13.2156322861      -12.5445196465  W2        10852           0.0000000000
     32557     10853  TIP3      OH2            31.0596733595        0.8990077139      -14.6159596465  W2        10853           0.0000000000
     32558     10853  TIP3      H1             31.9256933595        1.2657477139      -14.7941396465  W2        10853           0.0000000000
     32559     10853  TIP3      H2             30.8129533595        0.4598077139      -15.4298796465  W2        10853           0.0000000000
     32560     10854  TIP3      OH2            37.7686333595        0.4620377139      -11.9368496465  W2        10854           0.0000000000
     32561     10854  TIP3      H1             37.5743433595       -0.2857522861      -12.5018896465  W2        10854           0.0000000000
     32562     10854  TIP3      H2             37.7296433595        1.2200477139      -12.5200596465  W2        10854           0.0000000000
     32563     10855  TIP3      OH2            23.4158333595      -15.5423222861       -0.1970796465  W2        10855           0.0000000000
     32564     10855  TIP3      H1             23.0496533595      -16.3080622861        0.2453903535  W2        10855           0.0000000000
     32565     10855  TIP3      H2             24.3286833595      -15.5133022861        0.0894303535  W2        10855           0.0000000000
     32566     10856  TIP3      OH2            25.3889133595      -16.1918822861        1.3386303535  W2        10856           0.0000000000
     32567     10856  TIP3      H1             26.2872733595      -16.4658622861        1.1539703535  W2        10856           0.0000000000
     32568     10856  TIP3      H2             25.0022233595      -16.9342822861        1.8028903535  W2        10856           0.0000000000
     32569     10857  TIP3      OH2            24.0134433595        0.6095977139      -15.9883696465  W2        10857           0.0000000000
     32570     10857  TIP3      H1             23.7459033595        0.8958877139      -15.1150596465  W2        10857           0.0000000000
     32571     10857  TIP3      H2             24.7847033595        0.0635177139      -15.8361196465  W2        10857           0.0000000000
     32572     10858  TIP3      OH2            33.8101433595      -16.8593522861        1.5209103535  W2        10858           0.0000000000
     32573     10858  TIP3      H1             33.8868633595      -17.2852822861        2.3746803535  W2        10858           0.0000000000
     32574     10858  TIP3      H2             34.7038033595      -16.8458822861        1.1782603535  W2        10858           0.0000000000
     32575     10859  TIP3      OH2            36.9862533595       -0.7867222861        0.2133303535  W2        10859           0.0000000000
     32576     10859  TIP3      H1             36.2044433595       -0.9729222861       -0.3066096465  W2        10859           0.0000000000
     32577     10859  TIP3      H2             36.9142433595        0.1427077139        0.4305803535  W2        10859           0.0000000000
     32578     10860  TIP3      OH2            51.3922933595       -6.9002822861       -9.7559496465  W2        10860           0.0000000000
     32579     10860  TIP3      H1             51.4814033595       -5.9564622861       -9.8882396465  W2        10860           0.0000000000
     32580     10860  TIP3      H2             50.7540533595       -7.1756422861      -10.4140096465  W2        10860           0.0000000000
     32581     10861  TIP3      OH2            50.3254233595       -7.6452122861       -6.3371296465  W2        10861           0.0000000000
     32582     10861  TIP3      H1             50.2871733595       -8.2915822861       -5.6321696465  W2        10861           0.0000000000
     32583     10861  TIP3      H2             50.0030733595       -8.1117722861       -7.1082596465  W2        10861           0.0000000000
     32584     10862  TIP3      OH2            42.6939233595       -8.0310022861       -4.7441396465  W2        10862           0.0000000000
     32585     10862  TIP3      H1             42.7351333595       -8.6566722861       -4.0208996465  W2        10862           0.0000000000
     32586     10862  TIP3      H2             43.3966933595       -7.4071422861       -4.5620996465  W2        10862           0.0000000000
     32587     10863  TIP3      OH2            54.0314433595       -4.7061722861       -8.0356196465  W2        10863           0.0000000000
     32588     10863  TIP3      H1             53.5907133595       -5.4265722861       -7.5850596465  W2        10863           0.0000000000
     32589     10863  TIP3      H2             54.0184133595       -3.9854522861       -7.4058496465  W2        10863           0.0000000000
     32590     10864  TIP3      OH2            43.6172333595       -3.5811122861       -6.2092296465  W2        10864           0.0000000000
     32591     10864  TIP3      H1             43.2477533595       -4.3830622861       -6.5787996465  W2        10864           0.0000000000
     32592     10864  TIP3      H2             44.5583433595       -3.7496222861       -6.1628896465  W2        10864           0.0000000000
     32593     10865  TIP3      OH2            40.2272833595       -9.9208522861      -10.8163496465  W2        10865           0.0000000000
     32594     10865  TIP3      H1             39.7796233595       -9.0749822861      -10.8346996465  W2        10865           0.0000000000
     32595     10865  TIP3      H2             39.6664033595      -10.5004322861      -11.3318396465  W2        10865           0.0000000000
     32596     10866  TIP3      OH2            40.9378933595       -7.7588922861       -8.6905496465  W2        10866           0.0000000000
     32597     10866  TIP3      H1             41.1512433595       -8.5287322861       -8.1632496465  W2        10866           0.0000000000
     32598     10866  TIP3      H2             41.6756533595       -7.6692222861       -9.2937896465  W2        10866           0.0000000000
     32599     10867  TIP3      OH2            51.1429933595        0.3979977139       -7.8235796465  W2        10867           0.0000000000
     32600     10867  TIP3      H1             51.7626333595       -0.2785322861       -8.0966596465  W2        10867           0.0000000000
     32601     10867  TIP3      H2             50.9347333595        0.1800777139       -6.9150896465  W2        10867           0.0000000000
     32602     10868  TIP3      OH2            48.7148633595       -5.2130722861       -5.9310296465  W2        10868           0.0000000000
     32603     10868  TIP3      H1             49.0186533595       -5.8989322861       -6.5256196465  W2        10868           0.0000000000
     32604     10868  TIP3      H2             49.4362633595       -5.0942022861       -5.3132296465  W2        10868           0.0000000000
     32605     10869  TIP3      OH2            51.8555633595      -10.8188322861       -5.6035496465  W2        10869           0.0000000000
     32606     10869  TIP3      H1             51.9981533595      -11.7651322861       -5.5833896465  W2        10869           0.0000000000
     32607     10869  TIP3      H2             51.7494633595      -10.6118522861       -6.5320596465  W2        10869           0.0000000000
     32608     10870  TIP3      OH2            45.0103933595      -12.7171922861       -8.3310696465  W2        10870           0.0000000000
     32609     10870  TIP3      H1             45.0535033595      -11.8573422861       -8.7494396465  W2        10870           0.0000000000
     32610     10870  TIP3      H2             44.5528033595      -13.2697222861       -8.9647496465  W2        10870           0.0000000000
     32611     10871  TIP3      OH2            52.7326633595      -12.5866322861       -9.9302396465  W2        10871           0.0000000000
     32612     10871  TIP3      H1             53.3790933595      -12.9153122861       -9.3054796465  W2        10871           0.0000000000
     32613     10871  TIP3      H2             53.2426033595      -12.0687322861      -10.5530996465  W2        10871           0.0000000000
     32614     10872  TIP3      OH2            41.6305433595      -10.3206122861       -7.5689296465  W2        10872           0.0000000000
     32615     10872  TIP3      H1             42.2842033595      -10.8704422861       -7.1369196465  W2        10872           0.0000000000
     32616     10872  TIP3      H2             41.6544733595      -10.5947122861       -8.4857296465  W2        10872           0.0000000000
     32617     10873  TIP3      OH2            46.7869933595       -8.7704822861       -8.3537796465  W2        10873           0.0000000000
     32618     10873  TIP3      H1             47.4030933595       -9.2969422861       -7.8443796465  W2        10873           0.0000000000
     32619     10873  TIP3      H2             46.2008733595       -9.4106122861       -8.7574196465  W2        10873           0.0000000000
     32620     10874  TIP3      OH2            43.8205833595      -13.7993522861       -4.2569896465  W2        10874           0.0000000000
     32621     10874  TIP3      H1             43.6017533595      -13.2692922861       -5.0233896465  W2        10874           0.0000000000
     32622     10874  TIP3      H2             43.1526733595      -13.5728022861       -3.6098496465  W2        10874           0.0000000000
     32623     10875  TIP3      OH2            51.1895633595       -4.2992422861      -10.7130796465  W2        10875           0.0000000000
     32624     10875  TIP3      H1             50.8940733595       -4.6220122861      -11.5643896465  W2        10875           0.0000000000
     32625     10875  TIP3      H2             50.8653433595       -3.3995722861      -10.6718196465  W2        10875           0.0000000000
     32626     10876  TIP3      OH2            46.3897233595       -6.1237822861       -3.9696196465  W2        10876           0.0000000000
     32627     10876  TIP3      H1             45.6496333595       -5.5256322861       -3.8660996465  W2        10876           0.0000000000
     32628     10876  TIP3      H2             47.1036733595       -5.5698222861       -4.2852596465  W2        10876           0.0000000000
     32629     10877  TIP3      OH2            54.4965033595      -13.2957022861       -7.9496496465  W2        10877           0.0000000000
     32630     10877  TIP3      H1             54.2813033595      -14.0613622861       -7.4170496465  W2        10877           0.0000000000
     32631     10877  TIP3      H2             55.1522433595      -12.8232422861       -7.4367996465  W2        10877           0.0000000000
     32632     10878  TIP3      OH2            43.4143133595      -11.9071722861       -6.3047696465  W2        10878           0.0000000000
     32633     10878  TIP3      H1             44.0279433595      -11.2744122861       -5.9315296465  W2        10878           0.0000000000
     32634     10878  TIP3      H2             43.9263833595      -12.3796722861       -6.9610796465  W2        10878           0.0000000000
     32635     10879  TIP3      OH2            44.7971533595       -4.1594822861       -3.1824696465  W2        10879           0.0000000000
     32636     10879  TIP3      H1             44.7919133595       -3.2801322861       -3.5605396465  W2        10879           0.0000000000
     32637     10879  TIP3      H2             43.9435633595       -4.2430722861       -2.7574796465  W2        10879           0.0000000000
     32638     10880  TIP3      OH2            40.9182433595       -4.4886922861      -12.4005396465  W2        10880           0.0000000000
     32639     10880  TIP3      H1             40.6463333595       -4.2595922861      -13.2892496465  W2        10880           0.0000000000
     32640     10880  TIP3      H2             40.9638133595       -3.6508122861      -11.9400096465  W2        10880           0.0000000000
     32641     10881  TIP3      OH2            54.5432133595       -2.8671022861       -5.6876896465  W2        10881           0.0000000000
     32642     10881  TIP3      H1             53.6015833595       -2.8087122861       -5.5259996465  W2        10881           0.0000000000
     32643     10881  TIP3      H2             54.8198233595       -1.9610522861       -5.8247196465  W2        10881           0.0000000000
     32644     10882  TIP3      OH2            47.8470533595      -16.4938422861       -6.8044996465  W2        10882           0.0000000000
     32645     10882  TIP3      H1             47.7294733595      -17.4422422861       -6.8586696465  W2        10882           0.0000000000
     32646     10882  TIP3      H2             46.9920633595      -16.1612322861       -6.5313896465  W2        10882           0.0000000000
     32647     10883  TIP3      OH2            52.7953333595       -1.0857522861       -9.0625296465  W2        10883           0.0000000000
     32648     10883  TIP3      H1             53.2205633595       -1.7929622861       -9.5475696465  W2        10883           0.0000000000
     32649     10883  TIP3      H2             53.1123333595       -0.2844822861       -9.4793096465  W2        10883           0.0000000000
     32650     10884  TIP3      OH2            53.9549833595       -3.1849022861      -10.5538696465  W2        10884           0.0000000000
     32651     10884  TIP3      H1             53.6974633595       -3.8748922861      -11.1652796465  W2        10884           0.0000000000
     32652     10884  TIP3      H2             54.0260633595       -3.6277822861       -9.7082796465  W2        10884           0.0000000000
     32653     10885  TIP3      OH2            50.1135433595       -7.6562822861      -12.3039196465  W2        10885           0.0000000000
     32654     10885  TIP3      H1             49.4020933595       -7.1213122861      -12.6558696465  W2        10885           0.0000000000
     32655     10885  TIP3      H2             50.8045033595       -7.6010722861      -12.9640296465  W2        10885           0.0000000000
     32656     10886  TIP3      OH2            50.1674633595       -9.1988522861      -15.2654196465  W2        10886           0.0000000000
     32657     10886  TIP3      H1             50.8684533595       -9.1761622861      -14.6140196465  W2        10886           0.0000000000
     32658     10886  TIP3      H2             50.4697533595       -9.8268822861      -15.9214896465  W2        10886           0.0000000000
     32659     10887  TIP3      OH2            53.5193133595       -7.4469522861      -11.3523296465  W2        10887           0.0000000000
     32660     10887  TIP3      H1             52.7874133595       -7.2185822861      -10.7792696465  W2        10887           0.0000000000
     32661     10887  TIP3      H2             53.9665333595       -8.1606822861      -10.8975796465  W2        10887           0.0000000000
     32662     10888  TIP3      OH2            53.4166633595       -9.2726922861       -2.2846296465  W2        10888           0.0000000000
     32663     10888  TIP3      H1             53.4965733595       -8.5092522861       -1.7127796465  W2        10888           0.0000000000
     32664     10888  TIP3      H2             52.8154333595       -8.9934522861       -2.9751196465  W2        10888           0.0000000000
     32665     10889  TIP3      OH2            45.1646833595       -6.8163322861       -9.4698296465  W2        10889           0.0000000000
     32666     10889  TIP3      H1             44.8342033595       -7.1869922861      -10.2881296465  W2        10889           0.0000000000
     32667     10889  TIP3      H2             45.7530933595       -7.4869322861       -9.1229996465  W2        10889           0.0000000000
     32668     10890  TIP3      OH2            46.5314333595       -3.3882722861       -6.7886096465  W2        10890           0.0000000000
     32669     10890  TIP3      H1             46.4365633595       -3.9669622861       -7.5451496465  W2        10890           0.0000000000
     32670     10890  TIP3      H2             47.2607933595       -3.7597022861       -6.2923296465  W2        10890           0.0000000000
     32671     10891  TIP3      OH2            45.5312333595       -8.0477722861       -5.8363296465  W2        10891           0.0000000000
     32672     10891  TIP3      H1             46.0964833595       -7.9263522861       -6.5992096465  W2        10891           0.0000000000
     32673     10891  TIP3      H2             45.8501233595       -7.4102722861       -5.1974796465  W2        10891           0.0000000000
     32674     10892  TIP3      OH2            51.8404533595       -2.5445822861       -5.1022796465  W2        10892           0.0000000000
     32675     10892  TIP3      H1             51.6001133595       -1.8822722861       -4.4543596465  W2        10892           0.0000000000
     32676     10892  TIP3      H2             51.6422733595       -3.3790622861       -4.6773196465  W2        10892           0.0000000000
     32677     10893  TIP3      OH2            46.4113033595       -3.6485022861       -1.1191396465  W2        10893           0.0000000000
     32678     10893  TIP3      H1             46.1000533595       -2.8661822861       -0.6638196465  W2        10893           0.0000000000
     32679     10893  TIP3      H2             45.7613233595       -3.8015922861       -1.8049396465  W2        10893           0.0000000000
     32680     10894  TIP3      OH2            52.3902633595       -8.2846622861      -13.6672096465  W2        10894           0.0000000000
     32681     10894  TIP3      H1             52.9698133595       -8.1346322861      -12.9203196465  W2        10894           0.0000000000
     32682     10894  TIP3      H2             52.8042633595       -7.8139222861      -14.3905696465  W2        10894           0.0000000000
     32683     10895  TIP3      OH2            43.3312933595       -7.4503922861       -1.8905696465  W2        10895           0.0000000000
     32684     10895  TIP3      H1             43.4016133595       -6.7997122861       -1.1920696465  W2        10895           0.0000000000
     32685     10895  TIP3      H2             42.4405133595       -7.3476422861       -2.2254796465  W2        10895           0.0000000000
     32686     10896  TIP3      OH2            50.1167533595       -1.5478122861      -10.2318996465  W2        10896           0.0000000000
     32687     10896  TIP3      H1             50.5905133595       -1.2521822861       -9.4544796465  W2        10896           0.0000000000
     32688     10896  TIP3      H2             49.5536833595       -0.8096522861      -10.4649396465  W2        10896           0.0000000000
     32689     10897  TIP3      OH2            44.6508933595       -1.5770022861       -0.3557596465  W2        10897           0.0000000000
     32690     10897  TIP3      H1             44.6584233595       -1.7130322861       -1.3032096465  W2        10897           0.0000000000
     32691     10897  TIP3      H2             43.7349333595       -1.6941922861       -0.1037596465  W2        10897           0.0000000000
     32692     10898  TIP3      OH2            44.1549533595       -7.7469022861      -11.8805496465  W2        10898           0.0000000000
     32693     10898  TIP3      H1             43.8630833595       -6.9787322861      -12.3714196465  W2        10898           0.0000000000
     32694     10898  TIP3      H2             43.4804733595       -8.4062822861      -12.0434096465  W2        10898           0.0000000000
     32695     10899  TIP3      OH2            40.2479633595       -5.3839822861       -3.0655696465  W2        10899           0.0000000000
     32696     10899  TIP3      H1             39.7468033595       -5.4120422861       -3.8805996465  W2        10899           0.0000000000
     32697     10899  TIP3      H2             40.2533333595       -6.2896622861       -2.7558396465  W2        10899           0.0000000000
     32698     10900  TIP3      OH2            39.9982333595       -2.6036022861       -6.1815496465  W2        10900           0.0000000000
     32699     10900  TIP3      H1             40.9442933595       -2.7479022861       -6.2005996465  W2        10900           0.0000000000
     32700     10900  TIP3      H2             39.8858633595       -1.8193222861       -5.6444296465  W2        10900           0.0000000000
     32701     10901  TIP3      OH2            49.1744833595       -2.3637122861       -1.6230396465  W2        10901           0.0000000000
     32702     10901  TIP3      H1             49.2619433595       -1.5372522861       -1.1481296465  W2        10901           0.0000000000
     32703     10901  TIP3      H2             48.3109933595       -2.6933322861       -1.3741096465  W2        10901           0.0000000000
     32704     10902  TIP3      OH2            49.5890633595        1.4086577139      -11.8169796465  W2        10902           0.0000000000
     32705     10902  TIP3      H1             49.5136633595        1.2873777139      -12.7634596465  W2        10902           0.0000000000
     32706     10902  TIP3      H2             49.6219333595        2.3579277139      -11.6985196465  W2        10902           0.0000000000
     32707     10903  TIP3      OH2            43.2424433595        0.1973577139      -10.0360796465  W2        10903           0.0000000000
     32708     10903  TIP3      H1             43.3944833595       -0.1506022861       -9.1574296465  W2        10903           0.0000000000
     32709     10903  TIP3      H2             42.3914833595       -0.1589122861      -10.2913596465  W2        10903           0.0000000000
     32710     10904  TIP3      OH2            52.6906633595        0.5626777139      -14.8147396465  W2        10904           0.0000000000
     32711     10904  TIP3      H1             53.0655033595       -0.1817122861      -15.2854796465  W2        10904           0.0000000000
     32712     10904  TIP3      H2             52.6950333595        0.2927377139      -13.8964096465  W2        10904           0.0000000000
     32713     10905  TIP3      OH2            52.3594733595        0.4883877139      -12.0655196465  W2        10905           0.0000000000
     32714     10905  TIP3      H1             51.4244533595        0.5885777139      -11.8868196465  W2        10905           0.0000000000
     32715     10905  TIP3      H2             52.6396633595       -0.2210122861      -11.4871996465  W2        10905           0.0000000000
     32716     10906  TIP3      OH2            42.4970133595       -4.0604422861       -2.0222896465  W2        10906           0.0000000000
     32717     10906  TIP3      H1             42.7131433595       -4.4218822861       -1.1627096465  W2        10906           0.0000000000
     32718     10906  TIP3      H2             41.6414833595       -4.4350622861       -2.2319396465  W2        10906           0.0000000000
     32719     10907  TIP3      OH2            45.1158133595      -15.5903922861       -6.0268696465  W2        10907           0.0000000000
     32720     10907  TIP3      H1             44.2541833595      -15.6775722861       -6.4345796465  W2        10907           0.0000000000
     32721     10907  TIP3      H2             45.0933833595      -14.7343822861       -5.5991096465  W2        10907           0.0000000000
     32722     10908  TIP3      OH2            49.7785933595      -15.8683522861       -2.6521696465  W2        10908           0.0000000000
     32723     10908  TIP3      H1             50.1989033595      -16.2836422861       -1.8991096465  W2        10908           0.0000000000
     32724     10908  TIP3      H2             48.8455533595      -16.0470222861       -2.5349696465  W2        10908           0.0000000000
     32725     10909  TIP3      OH2            53.1050833595      -12.1128322861       -1.7987196465  W2        10909           0.0000000000
     32726     10909  TIP3      H1             52.5910333595      -12.2386122861       -1.0011196465  W2        10909           0.0000000000
     32727     10909  TIP3      H2             52.9495533595      -11.2005222861       -2.0430996465  W2        10909           0.0000000000
     32728     10910  TIP3      OH2            53.8675733595       -7.2518322861      -16.0374196465  W2        10910           0.0000000000
     32729     10910  TIP3      H1             53.9096533595       -7.4744422861      -16.9674196465  W2        10910           0.0000000000
     32730     10910  TIP3      H2             54.7167833595       -6.8531222861      -15.8474296465  W2        10910           0.0000000000
     32731     10911  TIP3      OH2            49.4403233595      -13.3760122861      -15.3670896465  W2        10911           0.0000000000
     32732     10911  TIP3      H1             49.1868033595      -13.3568522861      -14.4442796465  W2        10911           0.0000000000
     32733     10911  TIP3      H2             49.1835333595      -14.2474722861      -15.6684696465  W2        10911           0.0000000000
     32734     10912  TIP3      OH2            45.2068233595      -10.6249422861       -4.9318496465  W2        10912           0.0000000000
     32735     10912  TIP3      H1             44.5650333595      -10.6652122861       -4.2228396465  W2        10912           0.0000000000
     32736     10912  TIP3      H2             45.2440233595       -9.6984722861       -5.1695496465  W2        10912           0.0000000000
     32737     10913  TIP3      OH2            45.2037333595      -10.4039322861      -10.0198496465  W2        10913           0.0000000000
     32738     10913  TIP3      H1             44.3110233595      -10.7443222861      -10.0784696465  W2        10913           0.0000000000
     32739     10913  TIP3      H2             45.6543933595      -10.7808422861      -10.7755296465  W2        10913           0.0000000000
     32740     10914  TIP3      OH2            50.7392833595       -9.9879022861      -11.2027696465  W2        10914           0.0000000000
     32741     10914  TIP3      H1             50.3303133595       -9.1730422861      -11.4942896465  W2        10914           0.0000000000
     32742     10914  TIP3      H2             51.4599033595      -10.1278922861      -11.8170596465  W2        10914           0.0000000000
     32743     10915  TIP3      OH2            49.8414433595       -9.8122622861        0.2853003535  W2        10915           0.0000000000
     32744     10915  TIP3      H1             49.2788233595      -10.5171022861        0.6060803535  W2        10915           0.0000000000
     32745     10915  TIP3      H2             50.6677833595       -9.9330722861        0.7530603535  W2        10915           0.0000000000
     32746     10916  TIP3      OH2            51.7440533595      -10.5418622861       -8.3887996465  W2        10916           0.0000000000
     32747     10916  TIP3      H1             51.5485033595       -9.9361822861       -9.1037396465  W2        10916           0.0000000000
     32748     10916  TIP3      H2             51.9253133595      -11.3753422861       -8.8231696465  W2        10916           0.0000000000
     32749     10917  TIP3      OH2            42.9568733595      -10.3045922861       -3.0646496465  W2        10917           0.0000000000
     32750     10917  TIP3      H1             42.9188133595       -9.9044322861       -2.1959396465  W2        10917           0.0000000000
     32751     10917  TIP3      H2             42.4659833595      -11.1213522861       -2.9743596465  W2        10917           0.0000000000
     32752     10918  TIP3      OH2            46.3226133595      -12.9303622861      -16.2660496465  W2        10918           0.0000000000
     32753     10918  TIP3      H1             45.8916833595      -13.3753522861      -15.5363096465  W2        10918           0.0000000000
     32754     10918  TIP3      H2             45.6044833595      -12.5587322861      -16.7782996465  W2        10918           0.0000000000
     32755     10919  TIP3      OH2            39.5649533595      -13.1884122861       -9.2141796465  W2        10919           0.0000000000
     32756     10919  TIP3      H1             40.1957233595      -13.2172022861       -8.4947896465  W2        10919           0.0000000000
     32757     10919  TIP3      H2             40.0143833595      -13.6135422861       -9.9445896465  W2        10919           0.0000000000
     32758     10920  TIP3      OH2            40.8391633595      -12.4422122861      -13.7901396465  W2        10920           0.0000000000
     32759     10920  TIP3      H1             41.3133333595      -11.8512222861      -14.3750496465  W2        10920           0.0000000000
     32760     10920  TIP3      H2             40.1218033595      -11.9119222861      -13.4431296465  W2        10920           0.0000000000
     32761     10921  TIP3      OH2            51.0079733595       -8.9037322861       -3.7175596465  W2        10921           0.0000000000
     32762     10921  TIP3      H1             51.3314533595       -9.5347622861       -4.3605096465  W2        10921           0.0000000000
     32763     10921  TIP3      H2             50.5679033595       -9.4385122861       -3.0568196465  W2        10921           0.0000000000
     32764     10922  TIP3      OH2            47.7852633595      -12.9761822861       -8.9334396465  W2        10922           0.0000000000
     32765     10922  TIP3      H1             46.8743733595      -12.9195022861       -8.6448396465  W2        10922           0.0000000000
     32766     10922  TIP3      H2             48.2905533595      -13.0366322861       -8.1227196465  W2        10922           0.0000000000
     32767     10923  TIP3      OH2            42.6136033595      -11.3475522861      -10.1066796465  W2        10923           0.0000000000
     32768     10923  TIP3      H1             41.7244033595      -11.2480022861      -10.4467196465  W2        10923           0.0000000000
     32769     10923  TIP3      H2             42.9100933595      -12.1892522861      -10.4528896465  W2        10923           0.0000000000
     32770     10924  TIP3      OH2            46.2667833595      -11.3472922861      -12.4502196465  W2        10924           0.0000000000
     32771     10924  TIP3      H1             47.1983333595      -11.2182922861      -12.2719096465  W2        10924           0.0000000000
     32772     10924  TIP3      H2             46.0518133595      -10.6778622861      -13.0997496465  W2        10924           0.0000000000
     32773     10925  TIP3      OH2            52.1904533595      -13.7415522861       -5.6692596465  W2        10925           0.0000000000
     32774     10925  TIP3      H1             51.5136133595      -13.6102422861       -5.0052896465  W2        10925           0.0000000000
     32775     10925  TIP3      H2             51.7049433595      -13.8966022861       -6.4794896465  W2        10925           0.0000000000
     32776     10926  TIP3      OH2            44.9408033595      -10.1530722861      -14.8836096465  W2        10926           0.0000000000
     32777     10926  TIP3      H1             44.3983133595      -10.5326922861      -15.5748496465  W2        10926           0.0000000000
     32778     10926  TIP3      H2             45.7742933595       -9.9586022861      -15.3121996465  W2        10926           0.0000000000
     32779     10927  TIP3      OH2            43.0759433595       -5.5958822861        0.2155503535  W2        10927           0.0000000000
     32780     10927  TIP3      H1             43.8081833595       -5.3412922861        0.7770003535  W2        10927           0.0000000000
     32781     10927  TIP3      H2             42.2958133595       -5.3913422861        0.7310903535  W2        10927           0.0000000000
     32782     10928  TIP3      OH2            49.1052333595      -10.1888822861       -7.0464796465  W2        10928           0.0000000000
     32783     10928  TIP3      H1             49.6695733595      -10.7352222861       -7.5935196465  W2        10928           0.0000000000
     32784     10928  TIP3      H2             48.9575733595      -10.7106922861       -6.2577196465  W2        10928           0.0000000000
     32785     10929  TIP3      OH2            44.1072033595      -14.0522722861      -10.6279996465  W2        10929           0.0000000000
     32786     10929  TIP3      H1             43.7901533595      -14.9547422861      -10.6634596465  W2        10929           0.0000000000
     32787     10929  TIP3      H2             44.8886133595      -14.0505322861      -11.1808396465  W2        10929           0.0000000000
     32788     10930  TIP3      OH2            47.7318233595      -11.8002722861       -4.6324396465  W2        10930           0.0000000000
     32789     10930  TIP3      H1             46.8963533595      -11.3463222861       -4.5221996465  W2        10930           0.0000000000
     32790     10930  TIP3      H2             48.2558833595      -11.5244222861       -3.8804496465  W2        10930           0.0000000000
     32791     10931  TIP3      OH2            48.2760833595       -5.5875022861      -12.9477996465  W2        10931           0.0000000000
     32792     10931  TIP3      H1             47.5311833595       -6.0949722861      -13.2700096465  W2        10931           0.0000000000
     32793     10931  TIP3      H2             48.1418033595       -5.5387022861      -12.0013196465  W2        10931           0.0000000000
     32794     10932  TIP3      OH2            52.1737633595      -12.7735122861      -14.7485396465  W2        10932           0.0000000000
     32795     10932  TIP3      H1             51.2351833595      -12.6619522861      -14.8996596465  W2        10932           0.0000000000
     32796     10932  TIP3      H2             52.4709733595      -11.9168222861      -14.4419696465  W2        10932           0.0000000000
     32797     10933  TIP3      OH2            49.7952933595       -5.4031722861       -1.7108896465  W2        10933           0.0000000000
     32798     10933  TIP3      H1             49.4499033595       -5.7849322861       -0.9039296465  W2        10933           0.0000000000
     32799     10933  TIP3      H2             49.5953033595       -4.4698122861       -1.6395996465  W2        10933           0.0000000000
     32800     10934  TIP3      OH2            52.8921133595      -10.9062422861      -13.0877996465  W2        10934           0.0000000000
     32801     10934  TIP3      H1             53.7840133595      -11.0437422861      -12.7686796465  W2        10934           0.0000000000
     32802     10934  TIP3      H2             52.9484733595      -10.1156322861      -13.6244496465  W2        10934           0.0000000000
     32803     10935  TIP3      OH2            43.4009133595       -6.2925022861       -7.1780096465  W2        10935           0.0000000000
     32804     10935  TIP3      H1             44.1456333595       -6.2949322861       -7.7793596465  W2        10935           0.0000000000
     32805     10935  TIP3      H2             43.4785733595       -7.1161222861       -6.6964996465  W2        10935           0.0000000000
     32806     10936  TIP3      OH2            50.4014933595       -4.1290722861      -13.9223396465  W2        10936           0.0000000000
     32807     10936  TIP3      H1             50.1063333595       -3.3022822861      -13.5408596465  W2        10936           0.0000000000
     32808     10936  TIP3      H2             49.6984933595       -4.7483822861      -13.7261996465  W2        10936           0.0000000000
     32809     10937  TIP3      OH2            40.4088833595       -7.8318122861       -1.8631596465  W2        10937           0.0000000000
     32810     10937  TIP3      H1             40.6317433595       -8.2498522861       -1.0314096465  W2        10937           0.0000000000
     32811     10937  TIP3      H2             39.8068933595       -8.4443122861       -2.2858796465  W2        10937           0.0000000000
     32812     10938  TIP3      OH2            47.4253733595       -8.3148222861        0.3498103535  W2        10938           0.0000000000
     32813     10938  TIP3      H1             47.1294533595       -8.4805222861       -0.5452796465  W2        10938           0.0000000000
     32814     10938  TIP3      H2             48.3568933595       -8.5347922861        0.3392003535  W2        10938           0.0000000000
     32815     10939  TIP3      OH2            52.0456533595       -2.9416222861       -1.7603896465  W2        10939           0.0000000000
     32816     10939  TIP3      H1             51.1450833595       -2.7583622861       -2.0279996465  W2        10939           0.0000000000
     32817     10939  TIP3      H2             52.0797633595       -2.6826922861       -0.8395096465  W2        10939           0.0000000000
     32818     10940  TIP3      OH2            53.2325433595       -7.1028422861       -5.9067296465  W2        10940           0.0000000000
     32819     10940  TIP3      H1             52.3042333595       -7.3346522861       -5.9337996465  W2        10940           0.0000000000
     32820     10940  TIP3      H2             53.6836533595       -7.8798622861       -6.2368496465  W2        10940           0.0000000000
     32821     10941  TIP3      OH2            45.7758533595       -2.7746822861       -9.7738596465  W2        10941           0.0000000000
     32822     10941  TIP3      H1             46.3030733595       -2.0012422861       -9.9739796465  W2        10941           0.0000000000
     32823     10941  TIP3      H2             44.8957033595       -2.5497622861      -10.0754596465  W2        10941           0.0000000000
     32824     10942  TIP3      OH2            41.5306233595       -7.9122722861      -15.1866196465  W2        10942           0.0000000000
     32825     10942  TIP3      H1             42.1466133595       -7.2855522861      -14.8071396465  W2        10942           0.0000000000
     32826     10942  TIP3      H2             40.6688833595       -7.5962922861      -14.9149696465  W2        10942           0.0000000000
     32827     10943  TIP3      OH2            47.2030833595       -5.1116922861      -10.1974296465  W2        10943           0.0000000000
     32828     10943  TIP3      H1             46.9620833595       -4.1862522861      -10.1558996465  W2        10943           0.0000000000
     32829     10943  TIP3      H2             46.4624433595       -5.5705622861       -9.8010396465  W2        10943           0.0000000000
     32830     10944  TIP3      OH2            47.7177433595       -0.9623322861       -3.8823196465  W2        10944           0.0000000000
     32831     10944  TIP3      H1             48.0802133595       -0.1077722861       -4.1158796465  W2        10944           0.0000000000
     32832     10944  TIP3      H2             48.2492633595       -1.2541722861       -3.1416896465  W2        10944           0.0000000000
     32833     10945  TIP3      OH2            45.8861633595       -0.0899322861      -10.6522096465  W2        10945           0.0000000000
     32834     10945  TIP3      H1             44.9362133595        0.0158077139      -10.6008796465  W2        10945           0.0000000000
     32835     10945  TIP3      H2             46.2379733595        0.7308077139      -10.3074596465  W2        10945           0.0000000000
     32836     10946  TIP3      OH2            51.2618233595       -4.8632622861       -4.1817596465  W2        10946           0.0000000000
     32837     10946  TIP3      H1             50.8359533595       -5.0910922861       -3.3553596465  W2        10946           0.0000000000
     32838     10946  TIP3      H2             51.8424033595       -5.6020822861       -4.3642296465  W2        10946           0.0000000000
     32839     10947  TIP3      OH2            53.4647133595       -3.9342122861      -15.1078596465  W2        10947           0.0000000000
     32840     10947  TIP3      H1             53.8180233595       -4.3142322861      -14.3035096465  W2        10947           0.0000000000
     32841     10947  TIP3      H2             52.5160633595       -4.0277322861      -15.0209296465  W2        10947           0.0000000000
     32842     10948  TIP3      OH2            53.9202433595       -0.3113122861       -1.7122796465  W2        10948           0.0000000000
     32843     10948  TIP3      H1             53.3185633595       -0.8670222861       -2.2076496465  W2        10948           0.0000000000
     32844     10948  TIP3      H2             54.2016133595        0.3556677139       -2.3385396465  W2        10948           0.0000000000
     32845     10949  TIP3      OH2            42.0428333595      -13.0785422861       -2.3050196465  W2        10949           0.0000000000
     32846     10949  TIP3      H1             41.1500633595      -12.7400022861       -2.3726196465  W2        10949           0.0000000000
     32847     10949  TIP3      H2             41.9441133595      -13.9339322861       -1.8869396465  W2        10949           0.0000000000
     32848     10950  TIP3      OH2            54.3306433595       -5.2620122861      -12.8810696465  W2        10950           0.0000000000
     32849     10950  TIP3      H1             54.0534033595       -5.9900822861      -12.3249596465  W2        10950           0.0000000000
     32850     10950  TIP3      H2             55.2579433595       -5.1428122861      -12.6758096465  W2        10950           0.0000000000
     32851     10951  TIP3      OH2            41.6940333595       -1.2741022861       -3.8700796465  W2        10951           0.0000000000
     32852     10951  TIP3      H1             41.9110633595       -2.2058622861       -3.9011096465  W2        10951           0.0000000000
     32853     10951  TIP3      H2             41.9403833595       -0.9996022861       -2.9867996465  W2        10951           0.0000000000
     32854     10952  TIP3      OH2            47.5554933595       -2.8226022861      -16.6608596465  W2        10952           0.0000000000
     32855     10952  TIP3      H1             47.7944733595       -3.5707922861      -17.2079696465  W2        10952           0.0000000000
     32856     10952  TIP3      H2             47.2866233595       -3.2104322861      -15.8280796465  W2        10952           0.0000000000
     32857     10953  TIP3      OH2            46.4925533595       -3.2522222861      -14.2045996465  W2        10953           0.0000000000
     32858     10953  TIP3      H1             46.6393533595       -3.7722422861      -13.4145096465  W2        10953           0.0000000000
     32859     10953  TIP3      H2             46.4897233595       -2.3454622861      -13.8980096465  W2        10953           0.0000000000
     32860     10954  TIP3      OH2            42.9456633595       -5.9998922861      -13.6940596465  W2        10954           0.0000000000
     32861     10954  TIP3      H1             42.2595933595       -5.6476422861      -13.1270896465  W2        10954           0.0000000000
     32862     10954  TIP3      H2             43.4684533595       -5.2369322861      -13.9406296465  W2        10954           0.0000000000
     32863     10955  TIP3      OH2            50.7771733595      -13.3375122861       -3.4151596465  W2        10955           0.0000000000
     32864     10955  TIP3      H1             51.4759633595      -13.2636422861       -2.7651896465  W2        10955           0.0000000000
     32865     10955  TIP3      H2             50.3963133595      -14.2020122861       -3.2608696465  W2        10955           0.0000000000
     32866     10956  TIP3      OH2            51.5616633595      -13.6853422861      -12.3179296465  W2        10956           0.0000000000
     32867     10956  TIP3      H1             51.7814933595      -13.2138022861      -13.1213896465  W2        10956           0.0000000000
     32868     10956  TIP3      H2             52.1200633595      -13.2910822861      -11.6478696465  W2        10956           0.0000000000
     32869     10957  TIP3      OH2            49.2302733595       -1.5548622861      -13.4551796465  W2        10957           0.0000000000
     32870     10957  TIP3      H1             48.4138833595       -1.0578922861      -13.4027496465  W2        10957           0.0000000000
     32871     10957  TIP3      H2             49.7599033595       -1.0795122861      -14.0952996465  W2        10957           0.0000000000
     32872     10958  TIP3      OH2            48.7616533595      -11.9574622861      -11.4830896465  W2        10958           0.0000000000
     32873     10958  TIP3      H1             49.5739133595      -11.4531422861      -11.4369196465  W2        10958           0.0000000000
     32874     10958  TIP3      H2             48.5169533595      -12.1024922861      -10.5691296465  W2        10958           0.0000000000
     32875     10959  TIP3      OH2            49.2972933595      -10.9711922861       -2.2984296465  W2        10959           0.0000000000
     32876     10959  TIP3      H1             49.4163233595      -10.3976522861       -1.5413896465  W2        10959           0.0000000000
     32877     10959  TIP3      H2             49.9527533595      -11.6592522861       -2.1836496465  W2        10959           0.0000000000
     32878     10960  TIP3      OH2            49.6453233595      -14.8761622861      -10.5449796465  W2        10960           0.0000000000
     32879     10960  TIP3      H1             49.2986733595      -14.2591022861       -9.9005496465  W2        10960           0.0000000000
     32880     10960  TIP3      H2             50.3040133595      -14.3755922861      -11.0264296465  W2        10960           0.0000000000
     32881     10961  TIP3      OH2            46.5685833595       -0.5111422861      -13.4734896465  W2        10961           0.0000000000
     32882     10961  TIP3      H1             46.7294533595        0.2886077139      -13.9742296465  W2        10961           0.0000000000
     32883     10961  TIP3      H2             46.3713633595       -0.2045422861      -12.5884296465  W2        10961           0.0000000000
     32884     10962  TIP3      OH2            45.3030233595      -13.8132222861      -13.8577296465  W2        10962           0.0000000000
     32885     10962  TIP3      H1             45.2195033595      -12.9249122861      -13.5110896465  W2        10962           0.0000000000
     32886     10962  TIP3      H2             46.1930533595      -14.0785522861      -13.6260496465  W2        10962           0.0000000000
     32887     10963  TIP3      OH2            54.1039733595       -9.3140622861       -7.3677296465  W2        10963           0.0000000000
     32888     10963  TIP3      H1             53.3064133595       -9.7290422861       -7.6962296465  W2        10963           0.0000000000
     32889     10963  TIP3      H2             54.5490833595      -10.0046922861       -6.8766796465  W2        10963           0.0000000000
     32890     10964  TIP3      OH2            43.5615533595       -3.3860022861      -14.7972796465  W2        10964           0.0000000000
     32891     10964  TIP3      H1             44.1537033595       -2.6865222861      -14.5210396465  W2        10964           0.0000000000
     32892     10964  TIP3      H2             44.0208533595       -3.8190522861      -15.5168196465  W2        10964           0.0000000000
     32893     10965  TIP3      OH2            41.8774733595      -10.7217022861      -15.6813396465  W2        10965           0.0000000000
     32894     10965  TIP3      H1             41.8327333595       -9.7823922861      -15.5026396465  W2        10965           0.0000000000
     32895     10965  TIP3      H2             40.9897933595      -10.9572122861      -15.9511296465  W2        10965           0.0000000000
     32896     10966  TIP3      OH2            42.6856733595      -15.9400422861       -7.0082396465  W2        10966           0.0000000000
     32897     10966  TIP3      H1             42.4566533595      -15.8807922861       -7.9357396465  W2        10966           0.0000000000
     32898     10966  TIP3      H2             42.2430133595      -16.7314922861       -6.7018296465  W2        10966           0.0000000000
     32899     10967  TIP3      OH2            41.6160033595       -1.9993322861      -10.8476596465  W2        10967           0.0000000000
     32900     10967  TIP3      H1             40.7838633595       -1.5270622861      -10.8205196465  W2        10967           0.0000000000
     32901     10967  TIP3      H2             42.1618333595       -1.4895722861      -11.4463496465  W2        10967           0.0000000000
     32902     10968  TIP3      OH2            40.9043733595        0.6130377139        0.4821403535  W2        10968           0.0000000000
     32903     10968  TIP3      H1             41.4445933595        0.3964377139        1.2420603535  W2        10968           0.0000000000
     32904     10968  TIP3      H2             40.4231733595       -0.1923622861        0.2923903535  W2        10968           0.0000000000
     32905     10969  TIP3      OH2            45.5017133595       -0.4675222861        2.1025603535  W2        10969           0.0000000000
     32906     10969  TIP3      H1             46.2694333595       -0.9264422861        2.4434803535  W2        10969           0.0000000000
     32907     10969  TIP3      H2             45.4803333595       -0.6935422861        1.1726803535  W2        10969           0.0000000000
     32908     10970  TIP3      OH2            49.5936733595       -0.9594622861      -16.5222596465  W2        10970           0.0000000000
     32909     10970  TIP3      H1             48.9497733595       -1.5906022861      -16.2008896465  W2        10970           0.0000000000
     32910     10970  TIP3      H2             50.3555033595       -1.4906622861      -16.7539096465  W2        10970           0.0000000000
     32911     10971  TIP3      OH2            52.0785833595       -2.0874122861        0.8317103535  W2        10971           0.0000000000
     32912     10971  TIP3      H1             51.7275333595       -2.9441122861        1.0747503535  W2        10971           0.0000000000
     32913     10971  TIP3      H2             52.8049033595       -1.9447422861        1.4386103535  W2        10971           0.0000000000
     32914     10972  TIP3      OH2            54.1979633595       -1.1424722861      -16.2884596465  W2        10972           0.0000000000
     32915     10972  TIP3      H1             54.4810033595       -1.9369522861      -15.8357696465  W2        10972           0.0000000000
     32916     10972  TIP3      H2             54.9377533595       -0.9093722861      -16.8493496465  W2        10972           0.0000000000
     32917     10973  TIP3      OH2            40.8113233595       -5.5765522861        1.4365703535  W2        10973           0.0000000000
     32918     10973  TIP3      H1             40.9553733595       -6.4784822861        1.1502403535  W2        10973           0.0000000000
     32919     10973  TIP3      H2             40.0390633595       -5.2903422861        0.9488003535  W2        10973           0.0000000000
     32920     10974  TIP3      OH2            45.1526933595       -5.2329822861      -16.4309696465  W2        10974           0.0000000000
     32921     10974  TIP3      H1             45.2171033595       -6.0270222861      -15.9003296465  W2        10974           0.0000000000
     32922     10974  TIP3      H2             45.8056133595       -5.3517022861      -17.1207696465  W2        10974           0.0000000000
     32923     10975  TIP3      OH2            47.4669333595       -5.6067422861        0.8692103535  W2        10975           0.0000000000
     32924     10975  TIP3      H1             47.1383133595       -5.3359322861        0.0119503535  W2        10975           0.0000000000
     32925     10975  TIP3      H2             47.6187533595       -6.5477622861        0.7817103535  W2        10975           0.0000000000
     32926     10976  TIP3      OH2            50.5050333595       -4.1858122861      -16.6951696465  W2        10976           0.0000000000
     32927     10976  TIP3      H1             50.2364433595       -4.0056022861      -15.7942796465  W2        10976           0.0000000000
     32928     10976  TIP3      H2             50.2985933595       -5.1111922861      -16.8265896465  W2        10976           0.0000000000
     32929     10977  TIP3      OH2            53.2014533595       -5.6910122861       -1.7475596465  W2        10977           0.0000000000
     32930     10977  TIP3      H1             53.9469333595       -5.1026422861       -1.8671596465  W2        10977           0.0000000000
     32931     10977  TIP3      H2             52.4441333595       -5.1090422861       -1.6842496465  W2        10977           0.0000000000
     32932     10978  TIP3      OH2            41.6439733595       -8.3762222861        0.8565003535  W2        10978           0.0000000000
     32933     10978  TIP3      H1             42.0520933595       -9.2335622861        0.7355603535  W2        10978           0.0000000000
     32934     10978  TIP3      H2             41.3837333595       -8.3620922861        1.7775303535  W2        10978           0.0000000000
     32935     10979  TIP3      OH2            46.3020733595       -7.2603622861      -14.1251696465  W2        10979           0.0000000000
     32936     10979  TIP3      H1             45.8422733595       -7.7445322861      -13.4393196465  W2        10979           0.0000000000
     32937     10979  TIP3      H2             46.5569433595       -7.9288222861      -14.7611196465  W2        10979           0.0000000000
     32938     10980  TIP3      OH2            45.5910033595       -9.3676522861       -1.7692096465  W2        10980           0.0000000000
     32939     10980  TIP3      H1             44.9726133595       -8.6929922861       -1.4887396465  W2        10980           0.0000000000
     32940     10980  TIP3      H2             45.9351233595       -9.0462622861       -2.6025896465  W2        10980           0.0000000000
     32941     10981  TIP3      OH2            47.3731133595       -9.0171822861      -15.8628496465  W2        10981           0.0000000000
     32942     10981  TIP3      H1             47.1926133595       -9.1720622861      -16.7900196465  W2        10981           0.0000000000
     32943     10981  TIP3      H2             48.3231633595       -8.9093122861      -15.8180596465  W2        10981           0.0000000000
     32944     10982  TIP3      OH2            50.6108233595       -6.8961222861        1.5082703535  W2        10982           0.0000000000
     32945     10982  TIP3      H1             51.5639433595       -6.8122122861        1.4808703535  W2        10982           0.0000000000
     32946     10982  TIP3      H2             50.4502833595       -7.6079422861        2.1277603535  W2        10982           0.0000000000
     32947     10983  TIP3      OH2            45.9303733595      -12.0125722861       -0.6868996465  W2        10983           0.0000000000
     32948     10983  TIP3      H1             46.0804633595      -12.7414422861       -1.2889296465  W2        10983           0.0000000000
     32949     10983  TIP3      H2             45.9326133595      -11.2354022861       -1.2456796465  W2        10983           0.0000000000
     32950     10984  TIP3      OH2            46.3429433595      -13.6429922861       -3.1941596465  W2        10984           0.0000000000
     32951     10984  TIP3      H1             46.8786933595      -13.1913222861       -3.8462296465  W2        10984           0.0000000000
     32952     10984  TIP3      H2             45.4909033595      -13.7510122861       -3.6167496465  W2        10984           0.0000000000
     32953     10985  TIP3      OH2            47.9247833595       -8.2033722861       -2.9546396465  W2        10985           0.0000000000
     32954     10985  TIP3      H1             48.6752633595       -8.3596222861       -3.5278596465  W2        10985           0.0000000000
     32955     10985  TIP3      H2             47.5856133595       -7.3517122861       -3.2300896465  W2        10985           0.0000000000
     32956     10986  TIP3      OH2            52.3404033595      -10.3881922861        2.0738903535  W2        10986           0.0000000000
     32957     10986  TIP3      H1             52.5325333595      -11.3192522861        1.9623403535  W2        10986           0.0000000000
     32958     10986  TIP3      H2             53.1980333595       -9.9632422861        2.0634303535  W2        10986           0.0000000000
     32959     10987  TIP3      OH2            53.6571233595       -7.5996722861        0.1511603535  W2        10987           0.0000000000
     32960     10987  TIP3      H1             53.3756233595       -6.8902122861       -0.4264596465  W2        10987           0.0000000000
     32961     10987  TIP3      H2             54.5995533595       -7.6723722861        0.0002803535  W2        10987           0.0000000000
     32962     10988  TIP3      OH2            44.4090033595      -10.8142222861        1.2246603535  W2        10988           0.0000000000
     32963     10988  TIP3      H1             43.6419033595      -11.3467422861        1.0144203535  W2        10988           0.0000000000
     32964     10988  TIP3      H2             45.0879033595      -11.1241822861        0.6252903535  W2        10988           0.0000000000
     32965     10989  TIP3      OH2            47.1484933595      -16.1864222861       -2.7627996465  W2        10989           0.0000000000
     32966     10989  TIP3      H1             47.0504533595      -15.2401022861       -2.8681796465  W2        10989           0.0000000000
     32967     10989  TIP3      H2             46.4061133595      -16.5590422861       -3.2384496465  W2        10989           0.0000000000
     32968     10990  TIP3      OH2            48.4125433595      -11.8648822861        0.8010403535  W2        10990           0.0000000000
     32969     10990  TIP3      H1             48.1770833595      -12.0842122861        1.7025303535  W2        10990           0.0000000000
     32970     10990  TIP3      H2             47.6292333595      -12.0717622861        0.2912903535  W2        10990           0.0000000000
     32971     10991  TIP3      OH2            51.1282033595      -12.7375322861       -0.1236096465  W2        10991           0.0000000000
     32972     10991  TIP3      H1             50.1807433595      -12.7055622861        0.0087203535  W2        10991           0.0000000000
     32973     10991  TIP3      H2             51.4408733595      -13.3628222861        0.5302103535  W2        10991           0.0000000000
     32974     10992  TIP3      OH2            52.7623533595      -14.1034222861        1.8815803535  W2        10992           0.0000000000
     32975     10992  TIP3      H1             52.6655333595      -15.0556922861        1.8757703535  W2        10992           0.0000000000
     32976     10992  TIP3      H2             52.4406633595      -13.8347422861        2.7421303535  W2        10992           0.0000000000
     32977     10993  TIP3      OH2            42.5892833595      -12.8938422861        0.9291303535  W2        10993           0.0000000000
     32978     10993  TIP3      H1             42.8010233595      -13.6002322861        0.3188803535  W2        10993           0.0000000000
     32979     10993  TIP3      H2             42.4780333595      -13.3312422861        1.7732503535  W2        10993           0.0000000000
     32980     10994  TIP3      OH2            47.3703033595      -16.8926822861       -0.0915196465  W2        10994           0.0000000000
     32981     10994  TIP3      H1             48.0821433595      -17.5324622861       -0.1056096465  W2        10994           0.0000000000
     32982     10994  TIP3      H2             47.2693433595      -16.6258522861       -1.0052096465  W2        10994           0.0000000000
     32983     10995  TIP3      OH2            47.7240533595      -15.2098422861        1.9621103535  W2        10995           0.0000000000
     32984     10995  TIP3      H1             47.5922733595      -15.6854622861        1.1419603535  W2        10995           0.0000000000
     32985     10995  TIP3      H2             47.1247933595      -14.4654822861        1.9068203535  W2        10995           0.0000000000
     32986     10996  TIP3      OH2            47.2702833595        1.6731877139      -14.8614896465  W2        10996           0.0000000000
     32987     10996  TIP3      H1             48.2033533595        1.8310577139      -14.7176496465  W2        10996           0.0000000000
     32988     10996  TIP3      H2             47.0061633595        2.3484877139      -15.4863396465  W2        10996           0.0000000000
     32989     10997  TIP3      OH2            40.8387733595       -3.6904322861      -15.3786796465  W2        10997           0.0000000000
     32990     10997  TIP3      H1             41.7526933595       -3.6115422861      -15.1052896465  W2        10997           0.0000000000
     32991     10997  TIP3      H2             40.8460833595       -4.3774722861      -16.0451196465  W2        10997           0.0000000000
     32992     10998  TIP3      OH2            39.4878333595        1.7024177139      -10.3012896465  W2        10998           0.0000000000
     32993     10998  TIP3      H1             38.8405433595        1.2405877139      -10.8341696465  W2        10998           0.0000000000
     32994     10998  TIP3      H2             39.8422933595        1.0307477139       -9.7186696465  W2        10998           0.0000000000
     32995     10999  TIP3      OH2            40.3577533595       -0.2168822861       -8.4966696465  W2        10999           0.0000000000
     32996     10999  TIP3      H1             40.0234333595       -1.0971522861       -8.3246496465  W2        10999           0.0000000000
     32997     10999  TIP3      H2             40.5799933595        0.1286177139       -7.6321096465  W2        10999           0.0000000000
     32998     11000  TIP3      OH2            40.4377033595       -7.1413422861       -6.0451796465  W2        11000           0.0000000000
     32999     11000  TIP3      H1             40.6219933595       -7.2231722861       -6.9808896465  W2        11000           0.0000000000
     33000     11000  TIP3      H2             41.2869933595       -7.2656422861       -5.6215396465  W2        11000           0.0000000000
     33001     11001  TIP3      OH2            40.0351833595      -11.8708422861        0.0957003535  W2        11001           0.0000000000
     33002     11001  TIP3      H1             40.9546733595      -11.9930122861        0.3320103535  W2        11001           0.0000000000
     33003     11001  TIP3      H2             39.5856333595      -12.6208722861        0.4850503535  W2        11001           0.0000000000
     33004     11002  TIP3      OH2            41.2564333595      -13.5586822861       -7.0130096465  W2        11002           0.0000000000
     33005     11002  TIP3      H1             41.7015933595      -14.3504322861       -6.7110396465  W2        11002           0.0000000000
     33006     11002  TIP3      H2             41.7227333595      -12.8421622861       -6.5824496465  W2        11002           0.0000000000
     33007     11003  TIP3      OH2            39.5604633595      -10.5593822861       -5.9439896465  W2        11003           0.0000000000
     33008     11003  TIP3      H1             40.0524433595      -10.7803322861       -6.7347896465  W2        11003           0.0000000000
     33009     11003  TIP3      H2             39.9225533595       -9.7190422861       -5.6630396465  W2        11003           0.0000000000
     33010     11004  TIP3      OH2            39.8741133595      -14.3014722861      -11.8897496465  W2        11004           0.0000000000
     33011     11004  TIP3      H1             38.9489533595      -14.0928122861      -12.0191996465  W2        11004           0.0000000000
     33012     11004  TIP3      H2             40.3281033595      -13.8173922861      -12.5795196465  W2        11004           0.0000000000
     33013     11005  TIP3      OH2            54.6448333595        0.6826977139       -9.9440096465  W2        11005           0.0000000000
     33014     11005  TIP3      H1             55.2971233595        0.3349077139      -10.5520996465  W2        11005           0.0000000000
     33015     11005  TIP3      H2             55.1552133595        1.1710177139       -9.2980396465  W2        11005           0.0000000000
     33016     11006  TIP3      OH2            39.8376533595      -15.5635722861       -3.5454996465  W2        11006           0.0000000000
     33017     11006  TIP3      H1             39.1727033595      -15.8095422861       -2.9024096465  W2        11006           0.0000000000
     33018     11006  TIP3      H2             39.3947833595      -14.9415322861       -4.1226996465  W2        11006           0.0000000000
     33019     11007  TIP3      OH2            42.0295833595       -2.3881622861        0.5990803535  W2        11007           0.0000000000
     33020     11007  TIP3      H1             41.2088333595       -2.2135122861        0.1385503535  W2        11007           0.0000000000
     33021     11007  TIP3      H2             41.7773633595       -2.4616922861        1.5195203535  W2        11007           0.0000000000
     33022     11008  TIP3      OH2            44.9838733595       -1.4140422861       -3.1425196465  W2        11008           0.0000000000
     33023     11008  TIP3      H1             44.5589833595       -0.6041922861       -3.4250596465  W2        11008           0.0000000000
     33024     11008  TIP3      H2             45.8881533595       -1.3286322861       -3.4445396465  W2        11008           0.0000000000
     33025     11009  TIP3      OH2            49.2950133595       -0.0150422861       -0.1831496465  W2        11009           0.0000000000
     33026     11009  TIP3      H1             49.4797633595       -0.3484322861        0.6948803535  W2        11009           0.0000000000
     33027     11009  TIP3      H2             50.1414633595        0.2948177139       -0.5052296465  W2        11009           0.0000000000
     33028     11010  TIP3      OH2            51.6400533595        1.2708477139       -0.9390096465  W2        11010           0.0000000000
     33029     11010  TIP3      H1             52.3169433595        0.6380777139       -1.1790896465  W2        11010           0.0000000000
     33030     11010  TIP3      H2             51.9619333595        1.6718977139       -0.1316796465  W2        11010           0.0000000000
     33031     11011  TIP3      OH2            42.3855433595        1.8423477139       -3.0949896465  W2        11011           0.0000000000
     33032     11011  TIP3      H1             41.6651833595        2.2824477139       -3.5462196465  W2        11011           0.0000000000
     33033     11011  TIP3      H2             42.0199433595        1.5918177139       -2.2465896465  W2        11011           0.0000000000
     33034     11012  TIP3      OH2            44.8528033595        1.4427377139       -4.0652696465  W2        11012           0.0000000000
     33035     11012  TIP3      H1             43.9880233595        1.5145877139       -3.6612596465  W2        11012           0.0000000000
     33036     11012  TIP3      H2             44.7977033595        1.9894677139       -4.8490196465  W2        11012           0.0000000000
     33037     11013  TIP3      OH2            49.5633633595        1.3306277139       -4.8896696465  W2        11013           0.0000000000
     33038     11013  TIP3      H1             49.1067633595        1.8595977139       -5.5438296465  W2        11013           0.0000000000
     33039     11013  TIP3      H2             49.7261633595        1.9337677139       -4.1644396465  W2        11013           0.0000000000
     33040     11014  TIP3      OH2            51.8909933595        0.2085877139       -3.9446396465  W2        11014           0.0000000000
     33041     11014  TIP3      H1             50.9863633595        0.3736077139       -4.2104296465  W2        11014           0.0000000000
     33042     11014  TIP3      H2             52.3198533595        1.0618077139       -4.0102996465  W2        11014           0.0000000000
     33043     11015  TIP3      OH2            54.4951833595        1.7784977139       -3.6498596465  W2        11015           0.0000000000
     33044     11015  TIP3      H1             54.3133833595        2.6943877139       -3.8603696465  W2        11015           0.0000000000
     33045     11015  TIP3      H2             54.6719633595        1.3682077139       -4.4963996465  W2        11015           0.0000000000
     33046     11016  TIP3      OH2            41.8003533595        0.4655977139       -6.1848096465  W2        11016           0.0000000000
     33047     11016  TIP3      H1             41.7819533595        0.0401077139       -5.3275796465  W2        11016           0.0000000000
     33048     11016  TIP3      H2             42.6051433595        0.1470977139       -6.5935896465  W2        11016           0.0000000000
     33049     11017  TIP3      OH2            43.9416633595       -0.8245322861       -7.5298196465  W2        11017           0.0000000000
     33050     11017  TIP3      H1             43.7227333595       -1.7407922861       -7.3602196465  W2        11017           0.0000000000
     33051     11017  TIP3      H2             44.7658833595       -0.6844922861       -7.0636796465  W2        11017           0.0000000000
     33052     11018  TIP3      OH2            46.4789133595       -0.3546022861       -6.6810196465  W2        11018           0.0000000000
     33053     11018  TIP3      H1             46.6914833595       -1.2427022861       -6.9679296465  W2        11018           0.0000000000
     33054     11018  TIP3      H2             46.5434233595       -0.3888322861       -5.7266196465  W2        11018           0.0000000000
     33055     11019  TIP3      OH2            49.9872833595      -14.6905422861       -7.5366896465  W2        11019           0.0000000000
     33056     11019  TIP3      H1             49.3129633595      -15.3199822861       -7.2811096465  W2        11019           0.0000000000
     33057     11019  TIP3      H2             50.5512033595      -15.1746522861       -8.1398996465  W2        11019           0.0000000000
     33058     11020  TIP3      OH2            42.3140333595      -16.0565122861       -9.7146996465  W2        11020           0.0000000000
     33059     11020  TIP3      H1             41.5370133595      -16.2910222861      -10.2221096465  W2        11020           0.0000000000
     33060     11020  TIP3      H2             42.8443933595      -16.8533022861       -9.7058996465  W2        11020           0.0000000000
     33061     11021  TIP3      OH2            41.1503733595      -16.2587022861      -13.9110896465  W2        11021           0.0000000000
     33062     11021  TIP3      H1             41.5894433595      -15.6476522861      -14.5027396465  W2        11021           0.0000000000
     33063     11021  TIP3      H2             40.5166133595      -15.7202922861      -13.4370896465  W2        11021           0.0000000000
     33064     11022  TIP3      OH2            46.8932933595      -16.1298022861       -9.9013896465  W2        11022           0.0000000000
     33065     11022  TIP3      H1             47.7676333595      -15.7413722861       -9.9309596465  W2        11022           0.0000000000
     33066     11022  TIP3      H2             46.7573733595      -16.3450222861       -8.9786696465  W2        11022           0.0000000000
     33067     11023  TIP3      OH2            52.4501333595      -16.0998222861       -8.2522196465  W2        11023           0.0000000000
     33068     11023  TIP3      H1             52.5262933595      -16.0046622861       -9.2016196465  W2        11023           0.0000000000
     33069     11023  TIP3      H2             52.1750533595      -17.0075322861       -8.1233096465  W2        11023           0.0000000000
     33070     11024  TIP3      OH2            53.8033933595      -16.0740422861      -12.5597196465  W2        11024           0.0000000000
     33071     11024  TIP3      H1             53.1005033595      -15.4591222861      -12.7695796465  W2        11024           0.0000000000
     33072     11024  TIP3      H2             53.3585333595      -16.9113722861      -12.4286296465  W2        11024           0.0000000000
     33073     11025  TIP3      OH2            41.0513233595       -0.3104822861      -13.0135796465  W2        11025           0.0000000000
     33074     11025  TIP3      H1             40.3663133595       -0.3485922861      -13.6810696465  W2        11025           0.0000000000
     33075     11025  TIP3      H2             41.0550433595        0.6022777139      -12.7253696465  W2        11025           0.0000000000
     33076     11026  TIP3      OH2            43.0112833595      -14.3425522861      -15.4686796465  W2        11026           0.0000000000
     33077     11026  TIP3      H1             43.5026233595      -14.9723122861      -15.9961296465  W2        11026           0.0000000000
     33078     11026  TIP3      H2             43.6349133595      -14.0466122861      -14.8055596465  W2        11026           0.0000000000
     33079     11027  TIP3      OH2            48.0372933595      -14.0494022861      -13.0116296465  W2        11027           0.0000000000
     33080     11027  TIP3      H1             48.2154233595      -14.6960822861      -12.3287696465  W2        11027           0.0000000000
     33081     11027  TIP3      H2             47.9839133595      -13.2156322861      -12.5445196465  W2        11027           0.0000000000
     33082     11028  TIP3      OH2            49.9156733595        0.8990077139      -14.6159596465  W2        11028           0.0000000000
     33083     11028  TIP3      H1             50.7816933595        1.2657477139      -14.7941396465  W2        11028           0.0000000000
     33084     11028  TIP3      H2             49.6689533595        0.4598077139      -15.4298796465  W2        11028           0.0000000000
     33085     11029  TIP3      OH2            42.2718333595      -15.5423222861       -0.1970796465  W2        11029           0.0000000000
     33086     11029  TIP3      H1             41.9056533595      -16.3080622861        0.2453903535  W2        11029           0.0000000000
     33087     11029  TIP3      H2             43.1846833595      -15.5133022861        0.0894303535  W2        11029           0.0000000000
     33088     11030  TIP3      OH2            44.2449133595      -16.1918822861        1.3386303535  W2        11030           0.0000000000
     33089     11030  TIP3      H1             45.1432733595      -16.4658622861        1.1539703535  W2        11030           0.0000000000
     33090     11030  TIP3      H2             43.8582233595      -16.9342822861        1.8028903535  W2        11030           0.0000000000
     33091     11031  TIP3      OH2            42.8694433595        0.6095977139      -15.9883696465  W2        11031           0.0000000000
     33092     11031  TIP3      H1             42.6019033595        0.8958877139      -15.1150596465  W2        11031           0.0000000000
     33093     11031  TIP3      H2             43.6407033595        0.0635177139      -15.8361196465  W2        11031           0.0000000000
     33094     11032  TIP3      OH2            52.6661433595      -16.8593522861        1.5209103535  W2        11032           0.0000000000
     33095     11032  TIP3      H1             52.7428633595      -17.2852822861        2.3746803535  W2        11032           0.0000000000
     33096     11032  TIP3      H2             53.5598033595      -16.8458822861        1.1782603535  W2        11032           0.0000000000
     33097     11033  TIP3      OH2           -42.8877066405       11.9557177139       -9.7559496465  W2        11033           0.0000000000
     33098     11033  TIP3      H1            -42.7985966405       12.8995377139       -9.8882396465  W2        11033           0.0000000000
     33099     11033  TIP3      H2            -43.5259466405       11.6803577139      -10.4140096465  W2        11033           0.0000000000
     33100     11034  TIP3      OH2           -43.9545766405       11.2107877139       -6.3371296465  W2        11034           0.0000000000
     33101     11034  TIP3      H1            -43.9928266405       10.5644177139       -5.6321696465  W2        11034           0.0000000000
     33102     11034  TIP3      H2            -44.2769266405       10.7442277139       -7.1082596465  W2        11034           0.0000000000
     33103     11035  TIP3      OH2           -51.5860766405       10.8249977139       -4.7441396465  W2        11035           0.0000000000
     33104     11035  TIP3      H1            -51.5448666405       10.1993277139       -4.0208996465  W2        11035           0.0000000000
     33105     11035  TIP3      H2            -50.8833066405       11.4488577139       -4.5620996465  W2        11035           0.0000000000
     33106     11036  TIP3      OH2           -40.2485566405       14.1498277139       -8.0356196465  W2        11036           0.0000000000
     33107     11036  TIP3      H1            -40.6892866405       13.4294277139       -7.5850596465  W2        11036           0.0000000000
     33108     11036  TIP3      H2            -40.2615866405       14.8705477139       -7.4058496465  W2        11036           0.0000000000
     33109     11037  TIP3      OH2           -50.6627666405       15.2748877139       -6.2092296465  W2        11037           0.0000000000
     33110     11037  TIP3      H1            -51.0322466405       14.4729377139       -6.5787996465  W2        11037           0.0000000000
     33111     11037  TIP3      H2            -49.7216566405       15.1063777139       -6.1628896465  W2        11037           0.0000000000
     33112     11038  TIP3      OH2           -54.0527166405        8.9351477139      -10.8163496465  W2        11038           0.0000000000
     33113     11038  TIP3      H1            -54.5003766405        9.7810177139      -10.8346996465  W2        11038           0.0000000000
     33114     11038  TIP3      H2            -54.6135966405        8.3555677139      -11.3318396465  W2        11038           0.0000000000
     33115     11039  TIP3      OH2           -53.3421066405       11.0971077139       -8.6905496465  W2        11039           0.0000000000
     33116     11039  TIP3      H1            -53.1287566405       10.3272677139       -8.1632496465  W2        11039           0.0000000000
     33117     11039  TIP3      H2            -52.6043466405       11.1867777139       -9.2937896465  W2        11039           0.0000000000
     33118     11040  TIP3      OH2           -43.1370066405       19.2539977139       -7.8235796465  W2        11040           0.0000000000
     33119     11040  TIP3      H1            -42.5173666405       18.5774677139       -8.0966596465  W2        11040           0.0000000000
     33120     11040  TIP3      H2            -43.3452666405       19.0360777139       -6.9150896465  W2        11040           0.0000000000
     33121     11041  TIP3      OH2           -45.5651366405       13.6429277139       -5.9310296465  W2        11041           0.0000000000
     33122     11041  TIP3      H1            -45.2613466405       12.9570677139       -6.5256196465  W2        11041           0.0000000000
     33123     11041  TIP3      H2            -44.8437366405       13.7617977139       -5.3132296465  W2        11041           0.0000000000
     33124     11042  TIP3      OH2           -36.9021566405        5.2444577139       -5.0704096465  W2        11042           0.0000000000
     33125     11042  TIP3      H1            -36.8529366405        5.8545777139       -4.3344996465  W2        11042           0.0000000000
     33126     11042  TIP3      H2            -36.4766466405        5.7055477139       -5.7932996465  W2        11042           0.0000000000
     33127     11043  TIP3      OH2           -42.4244366405        8.0371677139       -5.6035496465  W2        11043           0.0000000000
     33128     11043  TIP3      H1            -42.2818466405        7.0908677139       -5.5833896465  W2        11043           0.0000000000
     33129     11043  TIP3      H2            -42.5305366405        8.2441477139       -6.5320596465  W2        11043           0.0000000000
     33130     11044  TIP3      OH2           -49.2696066405        6.1388077139       -8.3310696465  W2        11044           0.0000000000
     33131     11044  TIP3      H1            -49.2264966405        6.9986577139       -8.7494396465  W2        11044           0.0000000000
     33132     11044  TIP3      H2            -49.7271966405        5.5862777139       -8.9647496465  W2        11044           0.0000000000
     33133     11045  TIP3      OH2           -41.5473366405        6.2693677139       -9.9302396465  W2        11045           0.0000000000
     33134     11045  TIP3      H1            -40.9009066405        5.9406877139       -9.3054796465  W2        11045           0.0000000000
     33135     11045  TIP3      H2            -41.0373966405        6.7872677139      -10.5530996465  W2        11045           0.0000000000
     33136     11046  TIP3      OH2           -52.6494566405        8.5353877139       -7.5689296465  W2        11046           0.0000000000
     33137     11046  TIP3      H1            -51.9957966405        7.9855577139       -7.1369196465  W2        11046           0.0000000000
     33138     11046  TIP3      H2            -52.6255266405        8.2612877139       -8.4857296465  W2        11046           0.0000000000
     33139     11047  TIP3      OH2           -47.4930066405       10.0855177139       -8.3537796465  W2        11047           0.0000000000
     33140     11047  TIP3      H1            -46.8769066405        9.5590577139       -7.8443796465  W2        11047           0.0000000000
     33141     11047  TIP3      H2            -48.0791266405        9.4453877139       -8.7574196465  W2        11047           0.0000000000
     33142     11048  TIP3      OH2           -36.5106966405        6.7223777139       -2.8344296465  W2        11048           0.0000000000
     33143     11048  TIP3      H1            -37.1992366405        7.3804477139       -2.9297696465  W2        11048           0.0000000000
     33144     11048  TIP3      H2            -36.4952366405        6.5251677139       -1.8978896465  W2        11048           0.0000000000
     33145     11049  TIP3      OH2           -50.4594166405        5.0566477139       -4.2569896465  W2        11049           0.0000000000
     33146     11049  TIP3      H1            -50.6782466405        5.5867077139       -5.0233896465  W2        11049           0.0000000000
     33147     11049  TIP3      H2            -51.1273266405        5.2831977139       -3.6098496465  W2        11049           0.0000000000
     33148     11050  TIP3      OH2           -43.0904366405       14.5567577139      -10.7130796465  W2        11050           0.0000000000
     33149     11050  TIP3      H1            -43.3859266405       14.2339877139      -11.5643896465  W2        11050           0.0000000000
     33150     11050  TIP3      H2            -43.4146566405       15.4564277139      -10.6718196465  W2        11050           0.0000000000
     33151     11051  TIP3      OH2           -47.8902766405       12.7322177139       -3.9696196465  W2        11051           0.0000000000
     33152     11051  TIP3      H1            -48.6303666405       13.3303677139       -3.8660996465  W2        11051           0.0000000000
     33153     11051  TIP3      H2            -47.1763266405       13.2861777139       -4.2852596465  W2        11051           0.0000000000
     33154     11052  TIP3      OH2           -39.7834966405        5.5602977139       -7.9496496465  W2        11052           0.0000000000
     33155     11052  TIP3      H1            -39.9986966405        4.7946377139       -7.4170496465  W2        11052           0.0000000000
     33156     11052  TIP3      H2            -39.1277566405        6.0327577139       -7.4367996465  W2        11052           0.0000000000
     33157     11053  TIP3      OH2           -50.8656866405        6.9488277139       -6.3047696465  W2        11053           0.0000000000
     33158     11053  TIP3      H1            -50.2520566405        7.5815877139       -5.9315296465  W2        11053           0.0000000000
     33159     11053  TIP3      H2            -50.3536166405        6.4763277139       -6.9610796465  W2        11053           0.0000000000
     33160     11054  TIP3      OH2           -49.4828466405       14.6965177139       -3.1824696465  W2        11054           0.0000000000
     33161     11054  TIP3      H1            -49.4880866405       15.5758677139       -3.5605396465  W2        11054           0.0000000000
     33162     11054  TIP3      H2            -50.3364366405       14.6129277139       -2.7574796465  W2        11054           0.0000000000
     33163     11055  TIP3      OH2           -53.3617566405       14.3673077139      -12.4005396465  W2        11055           0.0000000000
     33164     11055  TIP3      H1            -53.6336666405       14.5964077139      -13.2892496465  W2        11055           0.0000000000
     33165     11055  TIP3      H2            -53.3161866405       15.2051877139      -11.9400096465  W2        11055           0.0000000000
     33166     11056  TIP3      OH2           -39.7367866405       15.9888977139       -5.6876896465  W2        11056           0.0000000000
     33167     11056  TIP3      H1            -40.6784166405       16.0472877139       -5.5259996465  W2        11056           0.0000000000
     33168     11056  TIP3      H2            -39.4601766405       16.8949477139       -5.8247196465  W2        11056           0.0000000000
     33169     11057  TIP3      OH2           -39.4360866405        4.2754277139       -4.2702996465  W2        11057           0.0000000000
     33170     11057  TIP3      H1            -40.1721666405        4.8861377139       -4.3081696465  W2        11057           0.0000000000
     33171     11057  TIP3      H2            -38.7526866405        4.6903277139       -4.7966596465  W2        11057           0.0000000000
     33172     11058  TIP3      OH2           -46.4329466405        2.3621577139       -6.8044996465  W2        11058           0.0000000000
     33173     11058  TIP3      H1            -46.5505266405        1.4137577139       -6.8586696465  W2        11058           0.0000000000
     33174     11058  TIP3      H2            -47.2879366405        2.6947677139       -6.5313896465  W2        11058           0.0000000000
     33175     11059  TIP3      OH2           -41.4846666405       17.7702477139       -9.0625296465  W2        11059           0.0000000000
     33176     11059  TIP3      H1            -41.0594366405       17.0630377139       -9.5475696465  W2        11059           0.0000000000
     33177     11059  TIP3      H2            -41.1676666405       18.5715177139       -9.4793096465  W2        11059           0.0000000000
     33178     11060  TIP3      OH2           -40.3250166405       15.6710977139      -10.5538696465  W2        11060           0.0000000000
     33179     11060  TIP3      H1            -40.5825366405       14.9811077139      -11.1652796465  W2        11060           0.0000000000
     33180     11060  TIP3      H2            -40.2539366405       15.2282177139       -9.7082796465  W2        11060           0.0000000000
     33181     11061  TIP3      OH2           -38.6389966405       14.2377677139       -2.0765196465  W2        11061           0.0000000000
     33182     11061  TIP3      H1            -38.4993666405       13.6460177139       -2.8158196465  W2        11061           0.0000000000
     33183     11061  TIP3      H2            -38.4717166405       15.1103577139       -2.4326396465  W2        11061           0.0000000000
     33184     11062  TIP3      OH2           -44.1664566405       11.1997177139      -12.3039196465  W2        11062           0.0000000000
     33185     11062  TIP3      H1            -44.8779066405       11.7346877139      -12.6558696465  W2        11062           0.0000000000
     33186     11062  TIP3      H2            -43.4754966405       11.2549277139      -12.9640296465  W2        11062           0.0000000000
     33187     11063  TIP3      OH2           -44.1125366405        9.6571477139      -15.2654196465  W2        11063           0.0000000000
     33188     11063  TIP3      H1            -43.4115466405        9.6798377139      -14.6140196465  W2        11063           0.0000000000
     33189     11063  TIP3      H2            -43.8102466405        9.0291177139      -15.9214896465  W2        11063           0.0000000000
     33190     11064  TIP3      OH2           -36.7970666405       10.5775677139       -4.0104796465  W2        11064           0.0000000000
     33191     11064  TIP3      H1            -37.4496566405       11.2721277139       -3.9213896465  W2        11064           0.0000000000
     33192     11064  TIP3      H2            -36.3320366405       10.7876577139       -4.8203196465  W2        11064           0.0000000000
     33193     11065  TIP3      OH2           -40.7606866405       11.4090477139      -11.3523296465  W2        11065           0.0000000000
     33194     11065  TIP3      H1            -41.4925866405       11.6374177139      -10.7792696465  W2        11065           0.0000000000
     33195     11065  TIP3      H2            -40.3134666405       10.6953177139      -10.8975796465  W2        11065           0.0000000000
     33196     11066  TIP3      OH2           -40.8633366405        9.5833077139       -2.2846296465  W2        11066           0.0000000000
     33197     11066  TIP3      H1            -40.7834266405       10.3467477139       -1.7127796465  W2        11066           0.0000000000
     33198     11066  TIP3      H2            -41.4645666405        9.8625477139       -2.9751196465  W2        11066           0.0000000000
     33199     11067  TIP3      OH2           -49.1153166405       12.0396677139       -9.4698296465  W2        11067           0.0000000000
     33200     11067  TIP3      H1            -49.4457966405       11.6690077139      -10.2881296465  W2        11067           0.0000000000
     33201     11067  TIP3      H2            -48.5269066405       11.3690677139       -9.1229996465  W2        11067           0.0000000000
     33202     11068  TIP3      OH2           -47.7485666405       15.4677277139       -6.7886096465  W2        11068           0.0000000000
     33203     11068  TIP3      H1            -47.8434366405       14.8890377139       -7.5451496465  W2        11068           0.0000000000
     33204     11068  TIP3      H2            -47.0192066405       15.0962977139       -6.2923296465  W2        11068           0.0000000000
     33205     11069  TIP3      OH2           -48.7487666405       10.8082277139       -5.8363296465  W2        11069           0.0000000000
     33206     11069  TIP3      H1            -48.1835166405       10.9296477139       -6.5992096465  W2        11069           0.0000000000
     33207     11069  TIP3      H2            -48.4298766405       11.4457277139       -5.1974796465  W2        11069           0.0000000000
     33208     11070  TIP3      OH2           -42.4395466405       16.3114177139       -5.1022796465  W2        11070           0.0000000000
     33209     11070  TIP3      H1            -42.6798866405       16.9737277139       -4.4543596465  W2        11070           0.0000000000
     33210     11070  TIP3      H2            -42.6377266405       15.4769377139       -4.6773196465  W2        11070           0.0000000000
     33211     11071  TIP3      OH2           -47.8686966405       15.2074977139       -1.1191396465  W2        11071           0.0000000000
     33212     11071  TIP3      H1            -48.1799466405       15.9898177139       -0.6638196465  W2        11071           0.0000000000
     33213     11071  TIP3      H2            -48.5186766405       15.0544077139       -1.8049396465  W2        11071           0.0000000000
     33214     11072  TIP3      OH2           -41.8897366405       10.5713377139      -13.6672096465  W2        11072           0.0000000000
     33215     11072  TIP3      H1            -41.3101866405       10.7213677139      -12.9203196465  W2        11072           0.0000000000
     33216     11072  TIP3      H2            -41.4757366405       11.0420777139      -14.3905696465  W2        11072           0.0000000000
     33217     11073  TIP3      OH2           -50.9487066405       11.4056077139       -1.8905696465  W2        11073           0.0000000000
     33218     11073  TIP3      H1            -50.8783866405       12.0562877139       -1.1920696465  W2        11073           0.0000000000
     33219     11073  TIP3      H2            -51.8394866405       11.5083577139       -2.2254796465  W2        11073           0.0000000000
     33220     11074  TIP3      OH2           -44.1632466405       17.3081877139      -10.2318996465  W2        11074           0.0000000000
     33221     11074  TIP3      H1            -43.6894866405       17.6038177139       -9.4544796465  W2        11074           0.0000000000
     33222     11074  TIP3      H2            -44.7263166405       18.0463477139      -10.4649396465  W2        11074           0.0000000000
     33223     11075  TIP3      OH2           -49.6291066405       17.2789977139       -0.3557596465  W2        11075           0.0000000000
     33224     11075  TIP3      H1            -49.6215766405       17.1429677139       -1.3032096465  W2        11075           0.0000000000
     33225     11075  TIP3      H2            -50.5450666405       17.1618077139       -0.1037596465  W2        11075           0.0000000000
     33226     11076  TIP3      OH2           -38.1908966405        2.3213777139      -13.8542396465  W2        11076           0.0000000000
     33227     11076  TIP3      H1            -39.0908266405        2.4602777139      -13.5591796465  W2        11076           0.0000000000
     33228     11076  TIP3      H2            -37.9390566405        3.1528377139      -14.2560696465  W2        11076           0.0000000000
     33229     11077  TIP3      OH2           -50.1250466405       11.1090977139      -11.8805496465  W2        11077           0.0000000000
     33230     11077  TIP3      H1            -50.4169166405       11.8772677139      -12.3714196465  W2        11077           0.0000000000
     33231     11077  TIP3      H2            -50.7995266405       10.4497177139      -12.0434096465  W2        11077           0.0000000000
     33232     11078  TIP3      OH2           -37.0017566405       16.6876177139      -15.4778496465  W2        11078           0.0000000000
     33233     11078  TIP3      H1            -36.9284066405       17.6266377139      -15.3073196465  W2        11078           0.0000000000
     33234     11078  TIP3      H2            -36.0962466405       16.3824777139      -15.5341196465  W2        11078           0.0000000000
     33235     11079  TIP3      OH2           -54.0320366405       13.4720177139       -3.0655696465  W2        11079           0.0000000000
     33236     11079  TIP3      H1            -54.5331966405       13.4439577139       -3.8805996465  W2        11079           0.0000000000
     33237     11079  TIP3      H2            -54.0266666405       12.5663377139       -2.7558396465  W2        11079           0.0000000000
     33238     11080  TIP3      OH2           -54.2817666405       16.2523977139       -6.1815496465  W2        11080           0.0000000000
     33239     11080  TIP3      H1            -53.3357066405       16.1080977139       -6.2005996465  W2        11080           0.0000000000
     33240     11080  TIP3      H2            -54.3941366405       17.0366777139       -5.6444296465  W2        11080           0.0000000000
     33241     11081  TIP3      OH2           -36.0839166405       16.9183677139       -0.4991796465  W2        11081           0.0000000000
     33242     11081  TIP3      H1            -36.1332366405       15.9631777139       -0.5364196465  W2        11081           0.0000000000
     33243     11081  TIP3      H2            -36.9106866405       17.1858977139       -0.0977996465  W2        11081           0.0000000000
     33244     11082  TIP3      OH2           -45.1055166405       16.4922877139       -1.6230396465  W2        11082           0.0000000000
     33245     11082  TIP3      H1            -45.0180566405       17.3187477139       -1.1481296465  W2        11082           0.0000000000
     33246     11082  TIP3      H2            -45.9690066405       16.1626677139       -1.3741096465  W2        11082           0.0000000000
     33247     11083  TIP3      OH2           -44.6909366405       20.2646577139      -11.8169796465  W2        11083           0.0000000000
     33248     11083  TIP3      H1            -44.7663366405       20.1433777139      -12.7634596465  W2        11083           0.0000000000
     33249     11083  TIP3      H2            -44.6580666405       21.2139277139      -11.6985196465  W2        11083           0.0000000000
     33250     11084  TIP3      OH2           -51.0375566405       19.0533577139      -10.0360796465  W2        11084           0.0000000000
     33251     11084  TIP3      H1            -50.8855166405       18.7053977139       -9.1574296465  W2        11084           0.0000000000
     33252     11084  TIP3      H2            -51.8885166405       18.6970877139      -10.2913596465  W2        11084           0.0000000000
     33253     11085  TIP3      OH2           -41.5893366405       19.4186777139      -14.8147396465  W2        11085           0.0000000000
     33254     11085  TIP3      H1            -41.2144966405       18.6742877139      -15.2854796465  W2        11085           0.0000000000
     33255     11085  TIP3      H2            -41.5849666405       19.1487377139      -13.8964096465  W2        11085           0.0000000000
     33256     11086  TIP3      OH2           -41.9205266405       19.3443877139      -12.0655196465  W2        11086           0.0000000000
     33257     11086  TIP3      H1            -42.8555466405       19.4445777139      -11.8868196465  W2        11086           0.0000000000
     33258     11086  TIP3      H2            -41.6403366405       18.6349877139      -11.4871996465  W2        11086           0.0000000000
     33259     11087  TIP3      OH2           -38.9319366405        8.4116177139       -0.0189596465  W2        11087           0.0000000000
     33260     11087  TIP3      H1            -39.3392566405        8.8921777139       -0.7396296465  W2        11087           0.0000000000
     33261     11087  TIP3      H2            -38.8913666405        7.5062177139       -0.3268796465  W2        11087           0.0000000000
     33262     11088  TIP3      OH2           -51.7829866405       14.7955577139       -2.0222896465  W2        11088           0.0000000000
     33263     11088  TIP3      H1            -51.5668566405       14.4341177139       -1.1627096465  W2        11088           0.0000000000
     33264     11088  TIP3      H2            -52.6385166405       14.4209377139       -2.2319396465  W2        11088           0.0000000000
     33265     11089  TIP3      OH2           -49.1641866405        3.2656077139       -6.0268696465  W2        11089           0.0000000000
     33266     11089  TIP3      H1            -50.0258166405        3.1784277139       -6.4345796465  W2        11089           0.0000000000
     33267     11089  TIP3      H2            -49.1866166405        4.1216177139       -5.5991096465  W2        11089           0.0000000000
     33268     11090  TIP3      OH2           -44.5014066405        2.9876477139       -2.6521696465  W2        11090           0.0000000000
     33269     11090  TIP3      H1            -44.0810966405        2.5723577139       -1.8991096465  W2        11090           0.0000000000
     33270     11090  TIP3      H2            -45.4344466405        2.8089777139       -2.5349696465  W2        11090           0.0000000000
     33271     11091  TIP3      OH2           -41.1749166405        6.7431677139       -1.7987196465  W2        11091           0.0000000000
     33272     11091  TIP3      H1            -41.6889666405        6.6173877139       -1.0011196465  W2        11091           0.0000000000
     33273     11091  TIP3      H2            -41.3304466405        7.6554777139       -2.0430996465  W2        11091           0.0000000000
     33274     11092  TIP3      OH2           -40.4124266405       11.6041677139      -16.0374196465  W2        11092           0.0000000000
     33275     11092  TIP3      H1            -40.3703466405       11.3815577139      -16.9674196465  W2        11092           0.0000000000
     33276     11092  TIP3      H2            -39.5632166405       12.0028777139      -15.8474296465  W2        11092           0.0000000000
     33277     11093  TIP3      OH2           -44.8396766405        5.4799877139      -15.3670896465  W2        11093           0.0000000000
     33278     11093  TIP3      H1            -45.0931966405        5.4991477139      -14.4442796465  W2        11093           0.0000000000
     33279     11093  TIP3      H2            -45.0964666405        4.6085277139      -15.6684696465  W2        11093           0.0000000000
     33280     11094  TIP3      OH2           -49.0731766405        8.2310577139       -4.9318496465  W2        11094           0.0000000000
     33281     11094  TIP3      H1            -49.7149666405        8.1907877139       -4.2228396465  W2        11094           0.0000000000
     33282     11094  TIP3      H2            -49.0359766405        9.1575277139       -5.1695496465  W2        11094           0.0000000000
     33283     11095  TIP3      OH2           -49.0762666405        8.4520677139      -10.0198496465  W2        11095           0.0000000000
     33284     11095  TIP3      H1            -49.9689766405        8.1116777139      -10.0784696465  W2        11095           0.0000000000
     33285     11095  TIP3      H2            -48.6256066405        8.0751577139      -10.7755296465  W2        11095           0.0000000000
     33286     11096  TIP3      OH2           -43.5407166405        8.8680977139      -11.2027696465  W2        11096           0.0000000000
     33287     11096  TIP3      H1            -43.9496866405        9.6829577139      -11.4942896465  W2        11096           0.0000000000
     33288     11096  TIP3      H2            -42.8200966405        8.7281077139      -11.8170596465  W2        11096           0.0000000000
     33289     11097  TIP3      OH2           -44.4385566405        9.0437377139        0.2853003535  W2        11097           0.0000000000
     33290     11097  TIP3      H1            -45.0011766405        8.3388977139        0.6060803535  W2        11097           0.0000000000
     33291     11097  TIP3      H2            -43.6122166405        8.9229277139        0.7530603535  W2        11097           0.0000000000
     33292     11098  TIP3      OH2           -42.5359466405        8.3141377139       -8.3887996465  W2        11098           0.0000000000
     33293     11098  TIP3      H1            -42.7314966405        8.9198177139       -9.1037396465  W2        11098           0.0000000000
     33294     11098  TIP3      H2            -42.3546866405        7.4806577139       -8.8231696465  W2        11098           0.0000000000
     33295     11099  TIP3      OH2           -51.3231266405        8.5514077139       -3.0646496465  W2        11099           0.0000000000
     33296     11099  TIP3      H1            -51.3611866405        8.9515677139       -2.1959396465  W2        11099           0.0000000000
     33297     11099  TIP3      H2            -51.8140166405        7.7346477139       -2.9743596465  W2        11099           0.0000000000
     33298     11100  TIP3      OH2           -47.9573866405        5.9256377139      -16.2660496465  W2        11100           0.0000000000
     33299     11100  TIP3      H1            -48.3883166405        5.4806477139      -15.5363096465  W2        11100           0.0000000000
     33300     11100  TIP3      H2            -48.6755166405        6.2972677139      -16.7782996465  W2        11100           0.0000000000
     33301     11101  TIP3      OH2           -54.7150466405        5.6675877139       -9.2141796465  W2        11101           0.0000000000
     33302     11101  TIP3      H1            -54.0842766405        5.6387977139       -8.4947896465  W2        11101           0.0000000000
     33303     11101  TIP3      H2            -54.2656166405        5.2424577139       -9.9445896465  W2        11101           0.0000000000
     33304     11102  TIP3      OH2           -53.4408366405        6.4137877139      -13.7901396465  W2        11102           0.0000000000
     33305     11102  TIP3      H1            -52.9666666405        7.0047777139      -14.3750496465  W2        11102           0.0000000000
     33306     11102  TIP3      H2            -54.1581966405        6.9440777139      -13.4431296465  W2        11102           0.0000000000
     33307     11103  TIP3      OH2           -43.2720266405        9.9522677139       -3.7175596465  W2        11103           0.0000000000
     33308     11103  TIP3      H1            -42.9485466405        9.3212377139       -4.3605096465  W2        11103           0.0000000000
     33309     11103  TIP3      H2            -43.7120966405        9.4174877139       -3.0568196465  W2        11103           0.0000000000
     33310     11104  TIP3      OH2           -46.4947366405        5.8798177139       -8.9334396465  W2        11104           0.0000000000
     33311     11104  TIP3      H1            -47.4056266405        5.9364977139       -8.6448396465  W2        11104           0.0000000000
     33312     11104  TIP3      H2            -45.9894466405        5.8193677139       -8.1227196465  W2        11104           0.0000000000
     33313     11105  TIP3      OH2           -51.6663966405        7.5084477139      -10.1066796465  W2        11105           0.0000000000
     33314     11105  TIP3      H1            -52.5555966405        7.6079977139      -10.4467196465  W2        11105           0.0000000000
     33315     11105  TIP3      H2            -51.3699066405        6.6667477139      -10.4528896465  W2        11105           0.0000000000
     33316     11106  TIP3      OH2           -48.0132166405        7.5087077139      -12.4502196465  W2        11106           0.0000000000
     33317     11106  TIP3      H1            -47.0816666405        7.6377077139      -12.2719096465  W2        11106           0.0000000000
     33318     11106  TIP3      H2            -48.2281866405        8.1781377139      -13.0997496465  W2        11106           0.0000000000
     33319     11107  TIP3      OH2           -42.0895466405        5.1144477139       -5.6692596465  W2        11107           0.0000000000
     33320     11107  TIP3      H1            -42.7663866405        5.2457577139       -5.0052896465  W2        11107           0.0000000000
     33321     11107  TIP3      H2            -42.5750566405        4.9593977139       -6.4794896465  W2        11107           0.0000000000
     33322     11108  TIP3      OH2           -49.3391966405        8.7029277139      -14.8836096465  W2        11108           0.0000000000
     33323     11108  TIP3      H1            -49.8816866405        8.3233077139      -15.5748496465  W2        11108           0.0000000000
     33324     11108  TIP3      H2            -48.5057066405        8.8973977139      -15.3121996465  W2        11108           0.0000000000
     33325     11109  TIP3      OH2           -38.8020366405       20.7859877139        0.6075003535  W2        11109           0.0000000000
     33326     11109  TIP3      H1            -38.6021666405       21.2101777139       -0.2269696465  W2        11109           0.0000000000
     33327     11109  TIP3      H2            -38.1466666405       21.1298077139        1.2145403535  W2        11109           0.0000000000
     33328     11110  TIP3      OH2           -51.2040566405       13.2601177139        0.2155503535  W2        11110           0.0000000000
     33329     11110  TIP3      H1            -50.4718166405       13.5147077139        0.7770003535  W2        11110           0.0000000000
     33330     11110  TIP3      H2            -51.9841866405       13.4646577139        0.7310903535  W2        11110           0.0000000000
     33331     11111  TIP3      OH2           -45.1747666405        8.6671177139       -7.0464796465  W2        11111           0.0000000000
     33332     11111  TIP3      H1            -44.6104266405        8.1207777139       -7.5935196465  W2        11111           0.0000000000
     33333     11111  TIP3      H2            -45.3224266405        8.1453077139       -6.2577196465  W2        11111           0.0000000000
     33334     11112  TIP3      OH2           -50.1727966405        4.8037277139      -10.6279996465  W2        11112           0.0000000000
     33335     11112  TIP3      H1            -50.4898466405        3.9012577139      -10.6634596465  W2        11112           0.0000000000
     33336     11112  TIP3      H2            -49.3913866405        4.8054677139      -11.1808396465  W2        11112           0.0000000000
     33337     11113  TIP3      OH2           -46.5481766405        7.0557277139       -4.6324396465  W2        11113           0.0000000000
     33338     11113  TIP3      H1            -47.3836466405        7.5096777139       -4.5221996465  W2        11113           0.0000000000
     33339     11113  TIP3      H2            -46.0241166405        7.3315777139       -3.8804496465  W2        11113           0.0000000000
     33340     11114  TIP3      OH2           -46.0039166405       13.2684977139      -12.9477996465  W2        11114           0.0000000000
     33341     11114  TIP3      H1            -46.7488166405       12.7610277139      -13.2700096465  W2        11114           0.0000000000
     33342     11114  TIP3      H2            -46.1381966405       13.3172977139      -12.0013196465  W2        11114           0.0000000000
     33343     11115  TIP3      OH2           -38.8540266405       12.4013177139       -4.1610396465  W2        11115           0.0000000000
     33344     11115  TIP3      H1            -38.2121466405       12.8579477139       -4.7048196465  W2        11115           0.0000000000
     33345     11115  TIP3      H2            -39.6843366405       12.5145577139       -4.6236296465  W2        11115           0.0000000000
     33346     11116  TIP3      OH2           -42.1062366405        6.0824877139      -14.7485396465  W2        11116           0.0000000000
     33347     11116  TIP3      H1            -43.0448166405        6.1940477139      -14.8996596465  W2        11116           0.0000000000
     33348     11116  TIP3      H2            -41.8090266405        6.9391777139      -14.4419696465  W2        11116           0.0000000000
     33349     11117  TIP3      OH2           -44.4847066405       13.4528277139       -1.7108896465  W2        11117           0.0000000000
     33350     11117  TIP3      H1            -44.8300966405       13.0710677139       -0.9039296465  W2        11117           0.0000000000
     33351     11117  TIP3      H2            -44.6846966405       14.3861877139       -1.6395996465  W2        11117           0.0000000000
     33352     11118  TIP3      OH2           -41.3878866405        7.9497577139      -13.0877996465  W2        11118           0.0000000000
     33353     11118  TIP3      H1            -40.4959866405        7.8122577139      -12.7686796465  W2        11118           0.0000000000
     33354     11118  TIP3      H2            -41.3315266405        8.7403677139      -13.6244496465  W2        11118           0.0000000000
     33355     11119  TIP3      OH2           -50.8790866405       12.5634977139       -7.1780096465  W2        11119           0.0000000000
     33356     11119  TIP3      H1            -50.1343666405       12.5610677139       -7.7793596465  W2        11119           0.0000000000
     33357     11119  TIP3      H2            -50.8014266405       11.7398777139       -6.6964996465  W2        11119           0.0000000000
     33358     11120  TIP3      OH2           -43.8785066405       14.7269277139      -13.9223396465  W2        11120           0.0000000000
     33359     11120  TIP3      H1            -44.1736666405       15.5537177139      -13.5408596465  W2        11120           0.0000000000
     33360     11120  TIP3      H2            -44.5815066405       14.1076177139      -13.7261996465  W2        11120           0.0000000000
     33361     11121  TIP3      OH2           -53.8711166405       11.0241877139       -1.8631596465  W2        11121           0.0000000000
     33362     11121  TIP3      H1            -53.6482566405       10.6061477139       -1.0314096465  W2        11121           0.0000000000
     33363     11121  TIP3      H2            -54.4731066405       10.4116877139       -2.2858796465  W2        11121           0.0000000000
     33364     11122  TIP3      OH2           -46.8546266405       10.5411777139        0.3498103535  W2        11122           0.0000000000
     33365     11122  TIP3      H1            -47.1505466405       10.3754777139       -0.5452796465  W2        11122           0.0000000000
     33366     11122  TIP3      H2            -45.9231066405       10.3212077139        0.3392003535  W2        11122           0.0000000000
     33367     11123  TIP3      OH2           -42.2343466405       15.9143777139       -1.7603896465  W2        11123           0.0000000000
     33368     11123  TIP3      H1            -43.1349166405       16.0976377139       -2.0279996465  W2        11123           0.0000000000
     33369     11123  TIP3      H2            -42.2002366405       16.1733077139       -0.8395096465  W2        11123           0.0000000000
     33370     11124  TIP3      OH2           -36.5030166405        8.1591677139      -13.3931296465  W2        11124           0.0000000000
     33371     11124  TIP3      H1            -37.0573866405        7.7629677139      -14.0653796465  W2        11124           0.0000000000
     33372     11124  TIP3      H2            -36.4026566405        9.0696877139      -13.6707996465  W2        11124           0.0000000000
     33373     11125  TIP3      OH2           -36.5398166405       13.9593377139       -0.5559796465  W2        11125           0.0000000000
     33374     11125  TIP3      H1            -37.3909666405       14.1977177139       -0.9233396465  W2        11125           0.0000000000
     33375     11125  TIP3      H2            -35.9494766405       13.9426577139       -1.3092696465  W2        11125           0.0000000000
     33376     11126  TIP3      OH2           -38.2078466405       16.9452077139      -12.9279196465  W2        11126           0.0000000000
     33377     11126  TIP3      H1            -38.5807366405       16.1195877139      -12.6188596465  W2        11126           0.0000000000
     33378     11126  TIP3      H2            -37.9304966405       16.7621477139      -13.8255796465  W2        11126           0.0000000000
     33379     11127  TIP3      OH2           -41.0474566405       11.7531577139       -5.9067296465  W2        11127           0.0000000000
     33380     11127  TIP3      H1            -41.9757666405       11.5213477139       -5.9337996465  W2        11127           0.0000000000
     33381     11127  TIP3      H2            -40.5963466405       10.9761377139       -6.2368496465  W2        11127           0.0000000000
     33382     11128  TIP3      OH2           -48.5041466405       16.0813177139       -9.7738596465  W2        11128           0.0000000000
     33383     11128  TIP3      H1            -47.9769266405       16.8547577139       -9.9739796465  W2        11128           0.0000000000
     33384     11128  TIP3      H2            -49.3842966405       16.3062377139      -10.0754596465  W2        11128           0.0000000000
     33385     11129  TIP3      OH2           -52.7493766405       10.9437277139      -15.1866196465  W2        11129           0.0000000000
     33386     11129  TIP3      H1            -52.1333866405       11.5704477139      -14.8071396465  W2        11129           0.0000000000
     33387     11129  TIP3      H2            -53.6111166405       11.2597077139      -14.9149696465  W2        11129           0.0000000000
     33388     11130  TIP3      OH2           -47.0769166405       13.7443077139      -10.1974296465  W2        11130           0.0000000000
     33389     11130  TIP3      H1            -47.3179166405       14.6697477139      -10.1558996465  W2        11130           0.0000000000
     33390     11130  TIP3      H2            -47.8175566405       13.2854377139       -9.8010396465  W2        11130           0.0000000000
     33391     11131  TIP3      OH2           -46.5622566405       17.8936677139       -3.8823196465  W2        11131           0.0000000000
     33392     11131  TIP3      H1            -46.1997866405       18.7482277139       -4.1158796465  W2        11131           0.0000000000
     33393     11131  TIP3      H2            -46.0307366405       17.6018277139       -3.1416896465  W2        11131           0.0000000000
     33394     11132  TIP3      OH2           -48.3938366405       18.7660677139      -10.6522096465  W2        11132           0.0000000000
     33395     11132  TIP3      H1            -49.3437866405       18.8718077139      -10.6008796465  W2        11132           0.0000000000
     33396     11132  TIP3      H2            -48.0420266405       19.5868077139      -10.3074596465  W2        11132           0.0000000000
     33397     11133  TIP3      OH2           -43.0181766405       13.9927377139       -4.1817596465  W2        11133           0.0000000000
     33398     11133  TIP3      H1            -43.4440466405       13.7649077139       -3.3553596465  W2        11133           0.0000000000
     33399     11133  TIP3      H2            -42.4375966405       13.2539177139       -4.3642296465  W2        11133           0.0000000000
     33400     11134  TIP3      OH2           -40.8152866405       14.9217877139      -15.1078596465  W2        11134           0.0000000000
     33401     11134  TIP3      H1            -40.4619766405       14.5417677139      -14.3035096465  W2        11134           0.0000000000
     33402     11134  TIP3      H2            -41.7639366405       14.8282677139      -15.0209296465  W2        11134           0.0000000000
     33403     11135  TIP3      OH2           -40.3597566405       18.5446877139       -1.7122796465  W2        11135           0.0000000000
     33404     11135  TIP3      H1            -40.9614366405       17.9889777139       -2.2076496465  W2        11135           0.0000000000
     33405     11135  TIP3      H2            -40.0783866405       19.2116677139       -2.3385396465  W2        11135           0.0000000000
     33406     11136  TIP3      OH2           -36.3118466405       19.4010377139      -14.9068396465  W2        11136           0.0000000000
     33407     11136  TIP3      H1            -35.5680566405       19.9870877139      -15.0466796465  W2        11136           0.0000000000
     33408     11136  TIP3      H2            -37.0060366405       19.9696177139      -14.5735996465  W2        11136           0.0000000000
     33409     11137  TIP3      OH2           -52.2371666405        5.7774577139       -2.3050196465  W2        11137           0.0000000000
     33410     11137  TIP3      H1            -53.1299366405        6.1159977139       -2.3726196465  W2        11137           0.0000000000
     33411     11137  TIP3      H2            -52.3358866405        4.9220677139       -1.8869396465  W2        11137           0.0000000000
     33412     11138  TIP3      OH2           -39.9493566405       13.5939877139      -12.8810696465  W2        11138           0.0000000000
     33413     11138  TIP3      H1            -40.2265966405       12.8659177139      -12.3249596465  W2        11138           0.0000000000
     33414     11138  TIP3      H2            -39.0220566405       13.7131877139      -12.6758096465  W2        11138           0.0000000000
     33415     11139  TIP3      OH2           -52.5859666405       17.5818977139       -3.8700796465  W2        11139           0.0000000000
     33416     11139  TIP3      H1            -52.3689366405       16.6501377139       -3.9011096465  W2        11139           0.0000000000
     33417     11139  TIP3      H2            -52.3396166405       17.8563977139       -2.9867996465  W2        11139           0.0000000000
     33418     11140  TIP3      OH2           -46.7245066405       16.0333977139      -16.6608596465  W2        11140           0.0000000000
     33419     11140  TIP3      H1            -46.4855266405       15.2852077139      -17.2079696465  W2        11140           0.0000000000
     33420     11140  TIP3      H2            -46.9933766405       15.6455677139      -15.8280796465  W2        11140           0.0000000000
     33421     11141  TIP3      OH2           -47.7874466405       15.6037777139      -14.2045996465  W2        11141           0.0000000000
     33422     11141  TIP3      H1            -47.6406466405       15.0837577139      -13.4145096465  W2        11141           0.0000000000
     33423     11141  TIP3      H2            -47.7902766405       16.5105377139      -13.8980096465  W2        11141           0.0000000000
     33424     11142  TIP3      OH2           -51.3343366405       12.8561077139      -13.6940596465  W2        11142           0.0000000000
     33425     11142  TIP3      H1            -52.0204066405       13.2083577139      -13.1270896465  W2        11142           0.0000000000
     33426     11142  TIP3      H2            -50.8115466405       13.6190677139      -13.9406296465  W2        11142           0.0000000000
     33427     11143  TIP3      OH2           -43.5028266405        5.5184877139       -3.4151596465  W2        11143           0.0000000000
     33428     11143  TIP3      H1            -42.8040366405        5.5923577139       -2.7651896465  W2        11143           0.0000000000
     33429     11143  TIP3      H2            -43.8836866405        4.6539877139       -3.2608696465  W2        11143           0.0000000000
     33430     11144  TIP3      OH2           -42.7183366405        5.1706577139      -12.3179296465  W2        11144           0.0000000000
     33431     11144  TIP3      H1            -42.4985066405        5.6421977139      -13.1213896465  W2        11144           0.0000000000
     33432     11144  TIP3      H2            -42.1599366405        5.5649177139      -11.6478696465  W2        11144           0.0000000000
     33433     11145  TIP3      OH2           -45.0497266405       17.3011377139      -13.4551796465  W2        11145           0.0000000000
     33434     11145  TIP3      H1            -45.8661166405       17.7981077139      -13.4027496465  W2        11145           0.0000000000
     33435     11145  TIP3      H2            -44.5200966405       17.7764877139      -14.0952996465  W2        11145           0.0000000000
     33436     11146  TIP3      OH2           -45.5183466405        6.8985377139      -11.4830896465  W2        11146           0.0000000000
     33437     11146  TIP3      H1            -44.7060866405        7.4028577139      -11.4369196465  W2        11146           0.0000000000
     33438     11146  TIP3      H2            -45.7630466405        6.7535077139      -10.5691296465  W2        11146           0.0000000000
     33439     11147  TIP3      OH2           -44.9827066405        7.8848077139       -2.2984296465  W2        11147           0.0000000000
     33440     11147  TIP3      H1            -44.8636766405        8.4583477139       -1.5413896465  W2        11147           0.0000000000
     33441     11147  TIP3      H2            -44.3272466405        7.1967477139       -2.1836496465  W2        11147           0.0000000000
     33442     11148  TIP3      OH2           -44.6346766405        3.9798377139      -10.5449796465  W2        11148           0.0000000000
     33443     11148  TIP3      H1            -44.9813266405        4.5968977139       -9.9005496465  W2        11148           0.0000000000
     33444     11148  TIP3      H2            -43.9759866405        4.4804077139      -11.0264296465  W2        11148           0.0000000000
     33445     11149  TIP3      OH2           -47.7114166405       18.3448577139      -13.4734896465  W2        11149           0.0000000000
     33446     11149  TIP3      H1            -47.5505466405       19.1446077139      -13.9742296465  W2        11149           0.0000000000
     33447     11149  TIP3      H2            -47.9086366405       18.6514577139      -12.5884296465  W2        11149           0.0000000000
     33448     11150  TIP3      OH2           -48.9769766405        5.0427777139      -13.8577296465  W2        11150           0.0000000000
     33449     11150  TIP3      H1            -49.0604966405        5.9310877139      -13.5110896465  W2        11150           0.0000000000
     33450     11150  TIP3      H2            -48.0869466405        4.7774477139      -13.6260496465  W2        11150           0.0000000000
     33451     11151  TIP3      OH2           -38.7781266405        5.7918377139       -1.4634596465  W2        11151           0.0000000000
     33452     11151  TIP3      H1            -39.6945466405        6.0540077139       -1.5510896465  W2        11151           0.0000000000
     33453     11151  TIP3      H2            -38.4426266405        5.7887377139       -2.3599296465  W2        11151           0.0000000000
     33454     11152  TIP3      OH2           -40.1760266405        9.5419377139       -7.3677296465  W2        11152           0.0000000000
     33455     11152  TIP3      H1            -40.9735866405        9.1269577139       -7.6962296465  W2        11152           0.0000000000
     33456     11152  TIP3      H2            -39.7309166405        8.8513077139       -6.8766796465  W2        11152           0.0000000000
     33457     11153  TIP3      OH2           -50.7184466405       15.4699977139      -14.7972796465  W2        11153           0.0000000000
     33458     11153  TIP3      H1            -50.1262966405       16.1694777139      -14.5210396465  W2        11153           0.0000000000
     33459     11153  TIP3      H2            -50.2591466405       15.0369477139      -15.5168196465  W2        11153           0.0000000000
     33460     11154  TIP3      OH2           -52.4025266405        8.1342977139      -15.6813396465  W2        11154           0.0000000000
     33461     11154  TIP3      H1            -52.4472666405        9.0736077139      -15.5026396465  W2        11154           0.0000000000
     33462     11154  TIP3      H2            -53.2902066405        7.8987877139      -15.9511296465  W2        11154           0.0000000000
     33463     11155  TIP3      OH2           -39.0895666405       18.7981877139       -5.7453796465  W2        11155           0.0000000000
     33464     11155  TIP3      H1            -39.2451366405       19.4766277139       -6.4024496465  W2        11155           0.0000000000
     33465     11155  TIP3      H2            -38.1569266405       18.8701177139       -5.5423196465  W2        11155           0.0000000000
     33466     11156  TIP3      OH2           -51.5943266405        2.9159577139       -7.0082396465  W2        11156           0.0000000000
     33467     11156  TIP3      H1            -51.8233466405        2.9752077139       -7.9357396465  W2        11156           0.0000000000
     33468     11156  TIP3      H2            -52.0369866405        2.1245077139       -6.7018296465  W2        11156           0.0000000000
     33469     11157  TIP3      OH2           -52.6639966405       16.8566677139      -10.8476596465  W2        11157           0.0000000000
     33470     11157  TIP3      H1            -53.4961366405       17.3289377139      -10.8205196465  W2        11157           0.0000000000
     33471     11157  TIP3      H2            -52.1181666405       17.3664277139      -11.4463496465  W2        11157           0.0000000000
     33472     11158  TIP3      OH2           -53.3756266405       19.4690377139        0.4821403535  W2        11158           0.0000000000
     33473     11158  TIP3      H1            -52.8354066405       19.2524377139        1.2420603535  W2        11158           0.0000000000
     33474     11158  TIP3      H2            -53.8568266405       18.6636377139        0.2923903535  W2        11158           0.0000000000
     33475     11159  TIP3      OH2           -48.7782866405       18.3884777139        2.1025603535  W2        11159           0.0000000000
     33476     11159  TIP3      H1            -48.0105666405       17.9295577139        2.4434803535  W2        11159           0.0000000000
     33477     11159  TIP3      H2            -48.7996666405       18.1624577139        1.1726803535  W2        11159           0.0000000000
     33478     11160  TIP3      OH2           -44.6863266405       17.8965377139      -16.5222596465  W2        11160           0.0000000000
     33479     11160  TIP3      H1            -45.3302266405       17.2653977139      -16.2008896465  W2        11160           0.0000000000
     33480     11160  TIP3      H2            -43.9244966405       17.3653377139      -16.7539096465  W2        11160           0.0000000000
     33481     11161  TIP3      OH2           -42.2014166405       16.7685877139        0.8317103535  W2        11161           0.0000000000
     33482     11161  TIP3      H1            -42.5524666405       15.9118877139        1.0747503535  W2        11161           0.0000000000
     33483     11161  TIP3      H2            -41.4750966405       16.9112577139        1.4386103535  W2        11161           0.0000000000
     33484     11162  TIP3      OH2           -40.0820366405       17.7135277139      -16.2884596465  W2        11162           0.0000000000
     33485     11162  TIP3      H1            -39.7989966405       16.9190477139      -15.8357696465  W2        11162           0.0000000000
     33486     11162  TIP3      H2            -39.3422466405       17.9466277139      -16.8493496465  W2        11162           0.0000000000
     33487     11163  TIP3      OH2           -53.4686766405       13.2794477139        1.4365703535  W2        11163           0.0000000000
     33488     11163  TIP3      H1            -53.3246266405       12.3775177139        1.1502403535  W2        11163           0.0000000000
     33489     11163  TIP3      H2            -54.2409366405       13.5656577139        0.9488003535  W2        11163           0.0000000000
     33490     11164  TIP3      OH2           -49.1273066405       13.6230177139      -16.4309696465  W2        11164           0.0000000000
     33491     11164  TIP3      H1            -49.0628966405       12.8289777139      -15.9003296465  W2        11164           0.0000000000
     33492     11164  TIP3      H2            -48.4743866405       13.5042977139      -17.1207696465  W2        11164           0.0000000000
     33493     11165  TIP3      OH2           -46.8130666405       13.2492577139        0.8692103535  W2        11165           0.0000000000
     33494     11165  TIP3      H1            -47.1416866405       13.5200677139        0.0119503535  W2        11165           0.0000000000
     33495     11165  TIP3      H2            -46.6612466405       12.3082377139        0.7817103535  W2        11165           0.0000000000
     33496     11166  TIP3      OH2           -43.7749666405       14.6701877139      -16.6951696465  W2        11166           0.0000000000
     33497     11166  TIP3      H1            -44.0435566405       14.8503977139      -15.7942796465  W2        11166           0.0000000000
     33498     11166  TIP3      H2            -43.9814066405       13.7448077139      -16.8265896465  W2        11166           0.0000000000
     33499     11167  TIP3      OH2           -41.0785466405       13.1649877139       -1.7475596465  W2        11167           0.0000000000
     33500     11167  TIP3      H1            -40.3330666405       13.7533577139       -1.8671596465  W2        11167           0.0000000000
     33501     11167  TIP3      H2            -41.8358666405       13.7469577139       -1.6842496465  W2        11167           0.0000000000
     33502     11168  TIP3      OH2           -52.6360266405       10.4797777139        0.8565003535  W2        11168           0.0000000000
     33503     11168  TIP3      H1            -52.2279066405        9.6224377139        0.7355603535  W2        11168           0.0000000000
     33504     11168  TIP3      H2            -52.8962666405       10.4939077139        1.7775303535  W2        11168           0.0000000000
     33505     11169  TIP3      OH2           -47.9779266405       11.5956377139      -14.1251696465  W2        11169           0.0000000000
     33506     11169  TIP3      H1            -48.4377266405       11.1114677139      -13.4393196465  W2        11169           0.0000000000
     33507     11169  TIP3      H2            -47.7230566405       10.9271777139      -14.7611196465  W2        11169           0.0000000000
     33508     11170  TIP3      OH2           -48.6889966405        9.4883477139       -1.7692096465  W2        11170           0.0000000000
     33509     11170  TIP3      H1            -49.3073866405       10.1630077139       -1.4887396465  W2        11170           0.0000000000
     33510     11170  TIP3      H2            -48.3448766405        9.8097377139       -2.6025896465  W2        11170           0.0000000000
     33511     11171  TIP3      OH2           -46.9068866405        9.8388177139      -15.8628496465  W2        11171           0.0000000000
     33512     11171  TIP3      H1            -47.0873866405        9.6839377139      -16.7900196465  W2        11171           0.0000000000
     33513     11171  TIP3      H2            -45.9568366405        9.9466877139      -15.8180596465  W2        11171           0.0000000000
     33514     11172  TIP3      OH2           -43.6691766405       11.9598777139        1.5082703535  W2        11172           0.0000000000
     33515     11172  TIP3      H1            -42.7160566405       12.0437877139        1.4808703535  W2        11172           0.0000000000
     33516     11172  TIP3      H2            -43.8297166405       11.2480577139        2.1277603535  W2        11172           0.0000000000
     33517     11173  TIP3      OH2           -37.5170566405       12.1932377139      -16.4170396465  W2        11173           0.0000000000
     33518     11173  TIP3      H1            -37.7905766405       11.7687877139      -17.2302096465  W2        11173           0.0000000000
     33519     11173  TIP3      H2            -37.4776466405       13.1246877139      -16.6339996465  W2        11173           0.0000000000
     33520     11174  TIP3      OH2           -48.3496266405        6.8434277139       -0.6868996465  W2        11174           0.0000000000
     33521     11174  TIP3      H1            -48.1995366405        6.1145577139       -1.2889296465  W2        11174           0.0000000000
     33522     11174  TIP3      H2            -48.3473866405        7.6205977139       -1.2456796465  W2        11174           0.0000000000
     33523     11175  TIP3      OH2           -47.9370566405        5.2130077139       -3.1941596465  W2        11175           0.0000000000
     33524     11175  TIP3      H1            -47.4013066405        5.6646777139       -3.8462296465  W2        11175           0.0000000000
     33525     11175  TIP3      H2            -48.7890966405        5.1049877139       -3.6167496465  W2        11175           0.0000000000
     33526     11176  TIP3      OH2           -46.3552166405       10.6526277139       -2.9546396465  W2        11176           0.0000000000
     33527     11176  TIP3      H1            -45.6047366405       10.4963777139       -3.5278596465  W2        11176           0.0000000000
     33528     11176  TIP3      H2            -46.6943866405       11.5042877139       -3.2300896465  W2        11176           0.0000000000
     33529     11177  TIP3      OH2           -41.9395966405        8.4678077139        2.0738903535  W2        11177           0.0000000000
     33530     11177  TIP3      H1            -41.7474666405        7.5367477139        1.9623403535  W2        11177           0.0000000000
     33531     11177  TIP3      H2            -41.0819666405        8.8927577139        2.0634303535  W2        11177           0.0000000000
     33532     11178  TIP3      OH2           -40.6228766405       11.2563277139        0.1511603535  W2        11178           0.0000000000
     33533     11178  TIP3      H1            -40.9043766405       11.9657877139       -0.4264596465  W2        11178           0.0000000000
     33534     11178  TIP3      H2            -39.6804466405       11.1836277139        0.0002803535  W2        11178           0.0000000000
     33535     11179  TIP3      OH2           -49.8709966405        8.0417777139        1.2246603535  W2        11179           0.0000000000
     33536     11179  TIP3      H1            -50.6380966405        7.5092577139        1.0144203535  W2        11179           0.0000000000
     33537     11179  TIP3      H2            -49.1920966405        7.7318177139        0.6252903535  W2        11179           0.0000000000
     33538     11180  TIP3      OH2           -47.1315066405        2.6695777139       -2.7627996465  W2        11180           0.0000000000
     33539     11180  TIP3      H1            -47.2295466405        3.6158977139       -2.8681796465  W2        11180           0.0000000000
     33540     11180  TIP3      H2            -47.8738866405        2.2969577139       -3.2384496465  W2        11180           0.0000000000
     33541     11181  TIP3      OH2           -45.8674566405        6.9911177139        0.8010403535  W2        11181           0.0000000000
     33542     11181  TIP3      H1            -46.1029166405        6.7717877139        1.7025303535  W2        11181           0.0000000000
     33543     11181  TIP3      H2            -46.6507666405        6.7842377139        0.2912903535  W2        11181           0.0000000000
     33544     11182  TIP3      OH2           -43.1517966405        6.1184677139       -0.1236096465  W2        11182           0.0000000000
     33545     11182  TIP3      H1            -44.0992566405        6.1504377139        0.0087203535  W2        11182           0.0000000000
     33546     11182  TIP3      H2            -42.8391266405        5.4931777139        0.5302103535  W2        11182           0.0000000000
     33547     11183  TIP3      OH2           -41.5176466405        4.7525777139        1.8815803535  W2        11183           0.0000000000
     33548     11183  TIP3      H1            -41.6144666405        3.8003077139        1.8757703535  W2        11183           0.0000000000
     33549     11183  TIP3      H2            -41.8393366405        5.0212577139        2.7421303535  W2        11183           0.0000000000
     33550     11184  TIP3      OH2           -51.6907166405        5.9621577139        0.9291303535  W2        11184           0.0000000000
     33551     11184  TIP3      H1            -51.4789766405        5.2557677139        0.3188803535  W2        11184           0.0000000000
     33552     11184  TIP3      H2            -51.8019666405        5.5247577139        1.7732503535  W2        11184           0.0000000000
     33553     11185  TIP3      OH2           -46.9096966405        1.9633177139       -0.0915196465  W2        11185           0.0000000000
     33554     11185  TIP3      H1            -46.1978566405        1.3235377139       -0.1056096465  W2        11185           0.0000000000
     33555     11185  TIP3      H2            -47.0106566405        2.2301477139       -1.0052096465  W2        11185           0.0000000000
     33556     11186  TIP3      OH2           -46.5559466405        3.6461577139        1.9621103535  W2        11186           0.0000000000
     33557     11186  TIP3      H1            -46.6877266405        3.1705377139        1.1419603535  W2        11186           0.0000000000
     33558     11186  TIP3      H2            -47.1552066405        4.3905177139        1.9068203535  W2        11186           0.0000000000
     33559     11187  TIP3      OH2           -47.0097166405       20.5291877139      -14.8614896465  W2        11187           0.0000000000
     33560     11187  TIP3      H1            -46.0766466405       20.6870577139      -14.7176496465  W2        11187           0.0000000000
     33561     11187  TIP3      H2            -47.2738366405       21.2044877139      -15.4863396465  W2        11187           0.0000000000
     33562     11188  TIP3      OH2           -53.4412266405       15.1655677139      -15.3786796465  W2        11188           0.0000000000
     33563     11188  TIP3      H1            -52.5273066405       15.2444577139      -15.1052896465  W2        11188           0.0000000000
     33564     11188  TIP3      H2            -53.4339166405       14.4785277139      -16.0451196465  W2        11188           0.0000000000
     33565     11189  TIP3      OH2           -54.7921666405       20.5584177139      -10.3012896465  W2        11189           0.0000000000
     33566     11189  TIP3      H1            -55.4394566405       20.0965877139      -10.8341696465  W2        11189           0.0000000000
     33567     11189  TIP3      H2            -54.4377066405       19.8867477139       -9.7186696465  W2        11189           0.0000000000
     33568     11190  TIP3      OH2           -53.9222466405       18.6391177139       -8.4966696465  W2        11190           0.0000000000
     33569     11190  TIP3      H1            -54.2565666405       17.7588477139       -8.3246496465  W2        11190           0.0000000000
     33570     11190  TIP3      H2            -53.7000066405       18.9846177139       -7.6321096465  W2        11190           0.0000000000
     33571     11191  TIP3      OH2           -36.3737666405       19.4487577139       -5.5161896465  W2        11191           0.0000000000
     33572     11191  TIP3      H1            -36.3950966405       19.6335977139       -4.5772496465  W2        11191           0.0000000000
     33573     11191  TIP3      H2            -35.6831466405       20.0171577139       -5.8570496465  W2        11191           0.0000000000
     33574     11192  TIP3      OH2           -36.8104766405       19.0158677139       -2.5942796465  W2        11192           0.0000000000
     33575     11192  TIP3      H1            -37.2976066405       18.2802777139       -2.9655396465  W2        11192           0.0000000000
     33576     11192  TIP3      H2            -36.2612066405       18.6222577139       -1.9163396465  W2        11192           0.0000000000
     33577     11193  TIP3      OH2           -38.3597466405       14.8056777139        2.0437503535  W2        11193           0.0000000000
     33578     11193  TIP3      H1            -39.2256366405       14.7006477139        2.4379803535  W2        11193           0.0000000000
     33579     11193  TIP3      H2            -37.9831566405       15.5640077139        2.4902203535  W2        11193           0.0000000000
     33580     11194  TIP3      OH2           -37.0587766405       13.0620477139      -12.4419996465  W2        11194           0.0000000000
     33581     11194  TIP3      H1            -36.2086366405       13.4831377139      -12.3148396465  W2        11194           0.0000000000
     33582     11194  TIP3      H2            -37.0532666405       12.3220577139      -11.8348596465  W2        11194           0.0000000000
     33583     11195  TIP3      OH2           -36.6642166405       11.1157877139      -10.6184296465  W2        11195           0.0000000000
     33584     11195  TIP3      H1            -37.3907566405       10.6360477139      -10.2206696465  W2        11195           0.0000000000
     33585     11195  TIP3      H2            -36.0828866405       11.3212577139       -9.8862696465  W2        11195           0.0000000000
     33586     11196  TIP3      OH2           -36.9050966405       13.9005377139       -5.6706696465  W2        11196           0.0000000000
     33587     11196  TIP3      H1            -36.0716766405       13.5225377139       -5.9513096465  W2        11196           0.0000000000
     33588     11196  TIP3      H2            -36.7930666405       14.8436577139       -5.7897596465  W2        11196           0.0000000000
     33589     11197  TIP3      OH2           -38.4188666405       16.7782877139       -3.3638296465  W2        11197           0.0000000000
     33590     11197  TIP3      H1            -39.0663366405       17.1034377139       -2.7383096465  W2        11197           0.0000000000
     33591     11197  TIP3      H2            -38.9364666405       16.3380577139       -4.0379996465  W2        11197           0.0000000000
     33592     11198  TIP3      OH2           -36.3959066405       11.0166377139      -14.2272996465  W2        11198           0.0000000000
     33593     11198  TIP3      H1            -36.9177966405       11.3730477139      -14.9462096465  W2        11198           0.0000000000
     33594     11198  TIP3      H2            -36.4289866405       11.6914177139      -13.5492096465  W2        11198           0.0000000000
     33595     11199  TIP3      OH2           -38.0470066405        8.2561977139      -15.6765896465  W2        11199           0.0000000000
     33596     11199  TIP3      H1            -37.9505666405        8.9228977139      -16.3566196465  W2        11199           0.0000000000
     33597     11199  TIP3      H2            -38.1870466405        7.4408277139      -16.1580396465  W2        11199           0.0000000000
     33598     11200  TIP3      OH2           -38.8775366405        9.6364377139      -10.0555596465  W2        11200           0.0000000000
     33599     11200  TIP3      H1            -39.0276566405        8.6912977139      -10.0757796465  W2        11200           0.0000000000
     33600     11200  TIP3      H2            -39.2310866405        9.9175777139       -9.2116496465  W2        11200           0.0000000000
     33601     11201  TIP3      OH2           -53.8422966405       11.7146577139       -6.0451796465  W2        11201           0.0000000000
     33602     11201  TIP3      H1            -53.6580066405       11.6328277139       -6.9808896465  W2        11201           0.0000000000
     33603     11201  TIP3      H2            -52.9930066405       11.5903577139       -5.6215396465  W2        11201           0.0000000000
     33604     11202  TIP3      OH2           -38.0212466405       11.6067677139       -0.4167296465  W2        11202           0.0000000000
     33605     11202  TIP3      H1            -37.4385166405       10.8719977139       -0.2250096465  W2        11202           0.0000000000
     33606     11202  TIP3      H2            -37.4573166405       12.3787977139       -0.3701496465  W2        11202           0.0000000000
     33607     11203  TIP3      OH2           -36.5245366405        9.5093477139        0.2678103535  W2        11203           0.0000000000
     33608     11203  TIP3      H1            -37.3878666405        9.1305577139        0.1022803535  W2        11203           0.0000000000
     33609     11203  TIP3      H2            -35.9201666405        8.7708277139        0.1933903535  W2        11203           0.0000000000
     33610     11204  TIP3      OH2           -38.7996266405        5.6641777139      -16.5590396465  W2        11204           0.0000000000
     33611     11204  TIP3      H1            -38.1890466405        5.2928577139      -15.9222196465  W2        11204           0.0000000000
     33612     11204  TIP3      H2            -39.6364766405        5.2428677139      -16.3630396465  W2        11204           0.0000000000
     33613     11205  TIP3      OH2           -39.1670566405        7.2190177139      -11.5930496465  W2        11205           0.0000000000
     33614     11205  TIP3      H1            -38.8873466405        6.3120577139      -11.4688796465  W2        11205           0.0000000000
     33615     11205  TIP3      H2            -38.4078866405        7.6531677139      -11.9821296465  W2        11205           0.0000000000
     33616     11206  TIP3      OH2           -38.5552266405        7.8007577139       -6.1571596465  W2        11206           0.0000000000
     33617     11206  TIP3      H1            -37.6224266405        8.0127477139       -6.1915596465  W2        11206           0.0000000000
     33618     11206  TIP3      H2            -38.7904766405        7.9019677139       -5.2348596465  W2        11206           0.0000000000
     33619     11207  TIP3      OH2           -38.5260366405        8.5372877139       -3.3812196465  W2        11207           0.0000000000
     33620     11207  TIP3      H1            -39.3689066405        8.8053277139       -3.0152396465  W2        11207           0.0000000000
     33621     11207  TIP3      H2            -38.0836066405        9.3594777139       -3.5921096465  W2        11207           0.0000000000
     33622     11208  TIP3      OH2           -54.2448166405        6.9851577139        0.0957003535  W2        11208           0.0000000000
     33623     11208  TIP3      H1            -53.3253266405        6.8629877139        0.3320103535  W2        11208           0.0000000000
     33624     11208  TIP3      H2            -54.6943666405        6.2351277139        0.4850503535  W2        11208           0.0000000000
     33625     11209  TIP3      OH2           -36.2428766405        2.5173077139        1.9722803535  W2        11209           0.0000000000
     33626     11209  TIP3      H1            -35.8931766405        1.8636577139        1.3667503535  W2        11209           0.0000000000
     33627     11209  TIP3      H2            -36.0959266405        3.3547177139        1.5325403535  W2        11209           0.0000000000
     33628     11210  TIP3      OH2           -38.5535766405        4.4819477139      -11.5448496465  W2        11210           0.0000000000
     33629     11210  TIP3      H1            -38.3710766405        4.0330977139      -10.7193496465  W2        11210           0.0000000000
     33630     11210  TIP3      H2            -39.1532866405        3.8973877139      -12.0083896465  W2        11210           0.0000000000
     33631     11211  TIP3      OH2           -53.0235666405        5.2973177139       -7.0130096465  W2        11211           0.0000000000
     33632     11211  TIP3      H1            -52.5784066405        4.5055677139       -6.7110396465  W2        11211           0.0000000000
     33633     11211  TIP3      H2            -52.5572666405        6.0138377139       -6.5824496465  W2        11211           0.0000000000
     33634     11212  TIP3      OH2           -54.7195366405        8.2966177139       -5.9439896465  W2        11212           0.0000000000
     33635     11212  TIP3      H1            -54.2275566405        8.0756677139       -6.7347896465  W2        11212           0.0000000000
     33636     11212  TIP3      H2            -54.3574466405        9.1369577139       -5.6630396465  W2        11212           0.0000000000
     33637     11213  TIP3      OH2           -36.7231566405        4.6267677139        0.3214103535  W2        11213           0.0000000000
     33638     11213  TIP3      H1            -37.6405866405        4.8974777139        0.2857603535  W2        11213           0.0000000000
     33639     11213  TIP3      H2            -36.6002166405        4.0916077139       -0.4626196465  W2        11213           0.0000000000
     33640     11214  TIP3      OH2           -36.6869566405        4.5497577139      -15.0168196465  W2        11214           0.0000000000
     33641     11214  TIP3      H1            -36.2746966405        3.8283277139      -15.4920196465  W2        11214           0.0000000000
     33642     11214  TIP3      H2            -36.0053066405        5.2192177139      -14.9583896465  W2        11214           0.0000000000
     33643     11215  TIP3      OH2           -54.4058866405        4.5545277139      -11.8897496465  W2        11215           0.0000000000
     33644     11215  TIP3      H1            -55.3310466405        4.7631877139      -12.0191996465  W2        11215           0.0000000000
     33645     11215  TIP3      H2            -53.9518966405        5.0386077139      -12.5795196465  W2        11215           0.0000000000
     33646     11216  TIP3      OH2           -39.6351666405       19.5386977139       -9.9440096465  W2        11216           0.0000000000
     33647     11216  TIP3      H1            -38.9828766405       19.1909077139      -10.5520996465  W2        11216           0.0000000000
     33648     11216  TIP3      H2            -39.1247866405       20.0270177139       -9.2980396465  W2        11216           0.0000000000
     33649     11217  TIP3      OH2           -54.4423466405        3.2924277139       -3.5454996465  W2        11217           0.0000000000
     33650     11217  TIP3      H1            -55.1072966405        3.0464577139       -2.9024096465  W2        11217           0.0000000000
     33651     11217  TIP3      H2            -54.8852166405        3.9144677139       -4.1226996465  W2        11217           0.0000000000
     33652     11218  TIP3      OH2           -52.2504166405       16.4678377139        0.5990803535  W2        11218           0.0000000000
     33653     11218  TIP3      H1            -53.0711666405       16.6424877139        0.1385503535  W2        11218           0.0000000000
     33654     11218  TIP3      H2            -52.5026366405       16.3943077139        1.5195203535  W2        11218           0.0000000000
     33655     11219  TIP3      OH2           -49.2961266405       17.4419577139       -3.1425196465  W2        11219           0.0000000000
     33656     11219  TIP3      H1            -49.7210166405       18.2518077139       -3.4250596465  W2        11219           0.0000000000
     33657     11219  TIP3      H2            -48.3918466405       17.5273677139       -3.4445396465  W2        11219           0.0000000000
     33658     11220  TIP3      OH2           -44.9849866405       18.8409577139       -0.1831496465  W2        11220           0.0000000000
     33659     11220  TIP3      H1            -44.8002366405       18.5075677139        0.6948803535  W2        11220           0.0000000000
     33660     11220  TIP3      H2            -44.1385366405       19.1508177139       -0.5052296465  W2        11220           0.0000000000
     33661     11221  TIP3      OH2           -42.6399466405       20.1268477139       -0.9390096465  W2        11221           0.0000000000
     33662     11221  TIP3      H1            -41.9630566405       19.4940777139       -1.1790896465  W2        11221           0.0000000000
     33663     11221  TIP3      H2            -42.3180666405       20.5278977139       -0.1316796465  W2        11221           0.0000000000
     33664     11222  TIP3      OH2           -37.7225666405        2.7163977139       -1.8595096465  W2        11222           0.0000000000
     33665     11222  TIP3      H1            -38.5352166405        3.0414277139       -2.2470396465  W2        11222           0.0000000000
     33666     11222  TIP3      H2            -37.4897166405        1.9562477139       -2.3925996465  W2        11222           0.0000000000
     33667     11223  TIP3      OH2           -51.8944566405       20.6983477139       -3.0949896465  W2        11223           0.0000000000
     33668     11223  TIP3      H1            -52.6148166405       21.1384477139       -3.5462196465  W2        11223           0.0000000000
     33669     11223  TIP3      H2            -52.2600566405       20.4478177139       -2.2465896465  W2        11223           0.0000000000
     33670     11224  TIP3      OH2           -49.4271966405       20.2987377139       -4.0652696465  W2        11224           0.0000000000
     33671     11224  TIP3      H1            -50.2919766405       20.3705877139       -3.6612596465  W2        11224           0.0000000000
     33672     11224  TIP3      H2            -49.4822966405       20.8454677139       -4.8490196465  W2        11224           0.0000000000
     33673     11225  TIP3      OH2           -44.7166366405       20.1866277139       -4.8896696465  W2        11225           0.0000000000
     33674     11225  TIP3      H1            -45.1732366405       20.7155977139       -5.5438296465  W2        11225           0.0000000000
     33675     11225  TIP3      H2            -44.5538366405       20.7897677139       -4.1644396465  W2        11225           0.0000000000
     33676     11226  TIP3      OH2           -42.3890066405       19.0645877139       -3.9446396465  W2        11226           0.0000000000
     33677     11226  TIP3      H1            -43.2936366405       19.2296077139       -4.2104296465  W2        11226           0.0000000000
     33678     11226  TIP3      H2            -41.9601466405       19.9178077139       -4.0102996465  W2        11226           0.0000000000
     33679     11227  TIP3      OH2           -39.7848166405       20.6344977139       -3.6498596465  W2        11227           0.0000000000
     33680     11227  TIP3      H1            -39.9666166405       21.5503877139       -3.8603696465  W2        11227           0.0000000000
     33681     11227  TIP3      H2            -39.6080366405       20.2242077139       -4.4963996465  W2        11227           0.0000000000
     33682     11228  TIP3      OH2           -52.4796466405       19.3215977139       -6.1848096465  W2        11228           0.0000000000
     33683     11228  TIP3      H1            -52.4980466405       18.8961077139       -5.3275796465  W2        11228           0.0000000000
     33684     11228  TIP3      H2            -51.6748566405       19.0030977139       -6.5935896465  W2        11228           0.0000000000
     33685     11229  TIP3      OH2           -50.3383366405       18.0314677139       -7.5298196465  W2        11229           0.0000000000
     33686     11229  TIP3      H1            -50.5572666405       17.1152077139       -7.3602196465  W2        11229           0.0000000000
     33687     11229  TIP3      H2            -49.5141166405       18.1715077139       -7.0636796465  W2        11229           0.0000000000
     33688     11230  TIP3      OH2           -47.8010866405       18.5013977139       -6.6810196465  W2        11230           0.0000000000
     33689     11230  TIP3      H1            -47.5885166405       17.6132977139       -6.9679296465  W2        11230           0.0000000000
     33690     11230  TIP3      H2            -47.7365766405       18.4671677139       -5.7266196465  W2        11230           0.0000000000
     33691     11231  TIP3      OH2           -44.2927166405        4.1654577139       -7.5366896465  W2        11231           0.0000000000
     33692     11231  TIP3      H1            -44.9670366405        3.5360177139       -7.2811096465  W2        11231           0.0000000000
     33693     11231  TIP3      H2            -43.7287966405        3.6813477139       -8.1398996465  W2        11231           0.0000000000
     33694     11232  TIP3      OH2           -39.1499966405        2.2728577139       -7.4239796465  W2        11232           0.0000000000
     33695     11232  TIP3      H1            -38.5462366405        2.8203977139       -7.9258796465  W2        11232           0.0000000000
     33696     11232  TIP3      H2            -40.0197966405        2.5918977139       -7.6645696465  W2        11232           0.0000000000
     33697     11233  TIP3      OH2           -37.4229566405        3.4117277139       -9.0908896465  W2        11233           0.0000000000
     33698     11233  TIP3      H1            -36.8112066405        2.8972977139       -9.6175296465  W2        11233           0.0000000000
     33699     11233  TIP3      H2            -37.0406166405        4.2889377139       -9.0674496465  W2        11233           0.0000000000
     33700     11234  TIP3      OH2           -51.9659666405        2.7994877139       -9.7146996465  W2        11234           0.0000000000
     33701     11234  TIP3      H1            -52.7429866405        2.5649777139      -10.2221096465  W2        11234           0.0000000000
     33702     11234  TIP3      H2            -51.4356066405        2.0026977139       -9.7058996465  W2        11234           0.0000000000
     33703     11235  TIP3      OH2           -53.1296266405        2.5972977139      -13.9110896465  W2        11235           0.0000000000
     33704     11235  TIP3      H1            -52.6905566405        3.2083477139      -14.5027396465  W2        11235           0.0000000000
     33705     11235  TIP3      H2            -53.7633866405        3.1357077139      -13.4370896465  W2        11235           0.0000000000
     33706     11236  TIP3      OH2           -47.3867066405        2.7261977139       -9.9013896465  W2        11236           0.0000000000
     33707     11236  TIP3      H1            -46.5123666405        3.1146277139       -9.9309596465  W2        11236           0.0000000000
     33708     11236  TIP3      H2            -47.5226266405        2.5109777139       -8.9786696465  W2        11236           0.0000000000
     33709     11237  TIP3      OH2           -41.8298666405        2.7561777139       -8.2522196465  W2        11237           0.0000000000
     33710     11237  TIP3      H1            -41.7537066405        2.8513377139       -9.2016196465  W2        11237           0.0000000000
     33711     11237  TIP3      H2            -42.1049466405        1.8484677139       -8.1233096465  W2        11237           0.0000000000
     33712     11238  TIP3      OH2           -40.4766066405        2.7819577139      -12.5597196465  W2        11238           0.0000000000
     33713     11238  TIP3      H1            -41.1794966405        3.3968777139      -12.7695796465  W2        11238           0.0000000000
     33714     11238  TIP3      H2            -40.9214666405        1.9446277139      -12.4286296465  W2        11238           0.0000000000
     33715     11239  TIP3      OH2           -53.2286766405       18.5455177139      -13.0135796465  W2        11239           0.0000000000
     33716     11239  TIP3      H1            -53.9136866405       18.5074077139      -13.6810696465  W2        11239           0.0000000000
     33717     11239  TIP3      H2            -53.2249566405       19.4582777139      -12.7253696465  W2        11239           0.0000000000
     33718     11240  TIP3      OH2           -51.2687166405        4.5134477139      -15.4686796465  W2        11240           0.0000000000
     33719     11240  TIP3      H1            -50.7773766405        3.8836877139      -15.9961296465  W2        11240           0.0000000000
     33720     11240  TIP3      H2            -50.6450866405        4.8093877139      -14.8055596465  W2        11240           0.0000000000
     33721     11241  TIP3      OH2           -46.2427066405        4.8065977139      -13.0116296465  W2        11241           0.0000000000
     33722     11241  TIP3      H1            -46.0645766405        4.1599177139      -12.3287696465  W2        11241           0.0000000000
     33723     11241  TIP3      H2            -46.2960866405        5.6403677139      -12.5445196465  W2        11241           0.0000000000
     33724     11242  TIP3      OH2           -44.3643266405       19.7550077139      -14.6159596465  W2        11242           0.0000000000
     33725     11242  TIP3      H1            -43.4983066405       20.1217477139      -14.7941396465  W2        11242           0.0000000000
     33726     11242  TIP3      H2            -44.6110466405       19.3158077139      -15.4298796465  W2        11242           0.0000000000
     33727     11243  TIP3      OH2           -37.6553666405       19.3180377139      -11.9368496465  W2        11243           0.0000000000
     33728     11243  TIP3      H1            -37.8496566405       18.5702477139      -12.5018896465  W2        11243           0.0000000000
     33729     11243  TIP3      H2            -37.6943566405       20.0760477139      -12.5200596465  W2        11243           0.0000000000
     33730     11244  TIP3      OH2           -52.0081666405        3.3136777139       -0.1970796465  W2        11244           0.0000000000
     33731     11244  TIP3      H1            -52.3743466405        2.5479377139        0.2453903535  W2        11244           0.0000000000
     33732     11244  TIP3      H2            -51.0953166405        3.3426977139        0.0894303535  W2        11244           0.0000000000
     33733     11245  TIP3      OH2           -50.0350866405        2.6641177139        1.3386303535  W2        11245           0.0000000000
     33734     11245  TIP3      H1            -49.1367266405        2.3901377139        1.1539703535  W2        11245           0.0000000000
     33735     11245  TIP3      H2            -50.4217766405        1.9217177139        1.8028903535  W2        11245           0.0000000000
     33736     11246  TIP3      OH2           -51.4105566405       19.4655977139      -15.9883696465  W2        11246           0.0000000000
     33737     11246  TIP3      H1            -51.6780966405       19.7518877139      -15.1150596465  W2        11246           0.0000000000
     33738     11246  TIP3      H2            -50.6392966405       18.9195177139      -15.8361196465  W2        11246           0.0000000000
     33739     11247  TIP3      OH2           -41.6138566405        1.9966477139        1.5209103535  W2        11247           0.0000000000
     33740     11247  TIP3      H1            -41.5371366405        1.5707177139        2.3746803535  W2        11247           0.0000000000
     33741     11247  TIP3      H2            -40.7201966405        2.0101177139        1.1782603535  W2        11247           0.0000000000
     33742     11248  TIP3      OH2           -38.4377466405       18.0692777139        0.2133303535  W2        11248           0.0000000000
     33743     11248  TIP3      H1            -39.2195566405       17.8830777139       -0.3066096465  W2        11248           0.0000000000
     33744     11248  TIP3      H2            -38.5097566405       18.9987077139        0.4305803535  W2        11248           0.0000000000
     33745     11249  TIP3      OH2           -24.0317066405       11.9557177139       -9.7559496465  W2        11249           0.0000000000
     33746     11249  TIP3      H1            -23.9425966405       12.8995377139       -9.8882396465  W2        11249           0.0000000000
     33747     11249  TIP3      H2            -24.6699466405       11.6803577139      -10.4140096465  W2        11249           0.0000000000
     33748     11250  TIP3      OH2           -25.0985766405       11.2107877139       -6.3371296465  W2        11250           0.0000000000
     33749     11250  TIP3      H1            -25.1368266405       10.5644177139       -5.6321696465  W2        11250           0.0000000000
     33750     11250  TIP3      H2            -25.4209266405       10.7442277139       -7.1082596465  W2        11250           0.0000000000
     33751     11251  TIP3      OH2           -32.7300766405       10.8249977139       -4.7441396465  W2        11251           0.0000000000
     33752     11251  TIP3      H1            -32.6888666405       10.1993277139       -4.0208996465  W2        11251           0.0000000000
     33753     11251  TIP3      H2            -32.0273066405       11.4488577139       -4.5620996465  W2        11251           0.0000000000
     33754     11252  TIP3      OH2           -21.3925566405       14.1498277139       -8.0356196465  W2        11252           0.0000000000
     33755     11252  TIP3      H1            -21.8332866405       13.4294277139       -7.5850596465  W2        11252           0.0000000000
     33756     11252  TIP3      H2            -21.4055866405       14.8705477139       -7.4058496465  W2        11252           0.0000000000
     33757     11253  TIP3      OH2           -31.8067666405       15.2748877139       -6.2092296465  W2        11253           0.0000000000
     33758     11253  TIP3      H1            -32.1762466405       14.4729377139       -6.5787996465  W2        11253           0.0000000000
     33759     11253  TIP3      H2            -30.8656566405       15.1063777139       -6.1628896465  W2        11253           0.0000000000
     33760     11254  TIP3      OH2           -35.1967166405        8.9351477139      -10.8163496465  W2        11254           0.0000000000
     33761     11254  TIP3      H1            -35.6443766405        9.7810177139      -10.8346996465  W2        11254           0.0000000000
     33762     11254  TIP3      H2            -35.7575966405        8.3555677139      -11.3318396465  W2        11254           0.0000000000
     33763     11255  TIP3      OH2           -34.4861066405       11.0971077139       -8.6905496465  W2        11255           0.0000000000
     33764     11255  TIP3      H1            -34.2727566405       10.3272677139       -8.1632496465  W2        11255           0.0000000000
     33765     11255  TIP3      H2            -33.7483466405       11.1867777139       -9.2937896465  W2        11255           0.0000000000
     33766     11256  TIP3      OH2           -24.2810066405       19.2539977139       -7.8235796465  W2        11256           0.0000000000
     33767     11256  TIP3      H1            -23.6613666405       18.5774677139       -8.0966596465  W2        11256           0.0000000000
     33768     11256  TIP3      H2            -24.4892666405       19.0360777139       -6.9150896465  W2        11256           0.0000000000
     33769     11257  TIP3      OH2           -26.7091366405       13.6429277139       -5.9310296465  W2        11257           0.0000000000
     33770     11257  TIP3      H1            -26.4053466405       12.9570677139       -6.5256196465  W2        11257           0.0000000000
     33771     11257  TIP3      H2            -25.9877366405       13.7617977139       -5.3132296465  W2        11257           0.0000000000
     33772     11258  TIP3      OH2           -18.0461566405        5.2444577139       -5.0704096465  W2        11258           0.0000000000
     33773     11258  TIP3      H1            -17.9969366405        5.8545777139       -4.3344996465  W2        11258           0.0000000000
     33774     11258  TIP3      H2            -17.6206466405        5.7055477139       -5.7932996465  W2        11258           0.0000000000
     33775     11259  TIP3      OH2           -23.5684366405        8.0371677139       -5.6035496465  W2        11259           0.0000000000
     33776     11259  TIP3      H1            -23.4258466405        7.0908677139       -5.5833896465  W2        11259           0.0000000000
     33777     11259  TIP3      H2            -23.6745366405        8.2441477139       -6.5320596465  W2        11259           0.0000000000
     33778     11260  TIP3      OH2           -30.4136066405        6.1388077139       -8.3310696465  W2        11260           0.0000000000
     33779     11260  TIP3      H1            -30.3704966405        6.9986577139       -8.7494396465  W2        11260           0.0000000000
     33780     11260  TIP3      H2            -30.8711966405        5.5862777139       -8.9647496465  W2        11260           0.0000000000
     33781     11261  TIP3      OH2           -22.6913366405        6.2693677139       -9.9302396465  W2        11261           0.0000000000
     33782     11261  TIP3      H1            -22.0449066405        5.9406877139       -9.3054796465  W2        11261           0.0000000000
     33783     11261  TIP3      H2            -22.1813966405        6.7872677139      -10.5530996465  W2        11261           0.0000000000
     33784     11262  TIP3      OH2           -33.7934566405        8.5353877139       -7.5689296465  W2        11262           0.0000000000
     33785     11262  TIP3      H1            -33.1397966405        7.9855577139       -7.1369196465  W2        11262           0.0000000000
     33786     11262  TIP3      H2            -33.7695266405        8.2612877139       -8.4857296465  W2        11262           0.0000000000
     33787     11263  TIP3      OH2           -28.6370066405       10.0855177139       -8.3537796465  W2        11263           0.0000000000
     33788     11263  TIP3      H1            -28.0209066405        9.5590577139       -7.8443796465  W2        11263           0.0000000000
     33789     11263  TIP3      H2            -29.2231266405        9.4453877139       -8.7574196465  W2        11263           0.0000000000
     33790     11264  TIP3      OH2           -17.6546966405        6.7223777139       -2.8344296465  W2        11264           0.0000000000
     33791     11264  TIP3      H1            -18.3432366405        7.3804477139       -2.9297696465  W2        11264           0.0000000000
     33792     11264  TIP3      H2            -17.6392366405        6.5251677139       -1.8978896465  W2        11264           0.0000000000
     33793     11265  TIP3      OH2           -31.6034166405        5.0566477139       -4.2569896465  W2        11265           0.0000000000
     33794     11265  TIP3      H1            -31.8222466405        5.5867077139       -5.0233896465  W2        11265           0.0000000000
     33795     11265  TIP3      H2            -32.2713266405        5.2831977139       -3.6098496465  W2        11265           0.0000000000
     33796     11266  TIP3      OH2           -24.2344366405       14.5567577139      -10.7130796465  W2        11266           0.0000000000
     33797     11266  TIP3      H1            -24.5299266405       14.2339877139      -11.5643896465  W2        11266           0.0000000000
     33798     11266  TIP3      H2            -24.5586566405       15.4564277139      -10.6718196465  W2        11266           0.0000000000
     33799     11267  TIP3      OH2           -29.0342766405       12.7322177139       -3.9696196465  W2        11267           0.0000000000
     33800     11267  TIP3      H1            -29.7743666405       13.3303677139       -3.8660996465  W2        11267           0.0000000000
     33801     11267  TIP3      H2            -28.3203266405       13.2861777139       -4.2852596465  W2        11267           0.0000000000
     33802     11268  TIP3      OH2           -20.9274966405        5.5602977139       -7.9496496465  W2        11268           0.0000000000
     33803     11268  TIP3      H1            -21.1426966405        4.7946377139       -7.4170496465  W2        11268           0.0000000000
     33804     11268  TIP3      H2            -20.2717566405        6.0327577139       -7.4367996465  W2        11268           0.0000000000
     33805     11269  TIP3      OH2           -32.0096866405        6.9488277139       -6.3047696465  W2        11269           0.0000000000
     33806     11269  TIP3      H1            -31.3960566405        7.5815877139       -5.9315296465  W2        11269           0.0000000000
     33807     11269  TIP3      H2            -31.4976166405        6.4763277139       -6.9610796465  W2        11269           0.0000000000
     33808     11270  TIP3      OH2           -30.6268466405       14.6965177139       -3.1824696465  W2        11270           0.0000000000
     33809     11270  TIP3      H1            -30.6320866405       15.5758677139       -3.5605396465  W2        11270           0.0000000000
     33810     11270  TIP3      H2            -31.4804366405       14.6129277139       -2.7574796465  W2        11270           0.0000000000
     33811     11271  TIP3      OH2           -34.5057566405       14.3673077139      -12.4005396465  W2        11271           0.0000000000
     33812     11271  TIP3      H1            -34.7776666405       14.5964077139      -13.2892496465  W2        11271           0.0000000000
     33813     11271  TIP3      H2            -34.4601866405       15.2051877139      -11.9400096465  W2        11271           0.0000000000
     33814     11272  TIP3      OH2           -20.8807866405       15.9888977139       -5.6876896465  W2        11272           0.0000000000
     33815     11272  TIP3      H1            -21.8224166405       16.0472877139       -5.5259996465  W2        11272           0.0000000000
     33816     11272  TIP3      H2            -20.6041766405       16.8949477139       -5.8247196465  W2        11272           0.0000000000
     33817     11273  TIP3      OH2           -20.5800866405        4.2754277139       -4.2702996465  W2        11273           0.0000000000
     33818     11273  TIP3      H1            -21.3161666405        4.8861377139       -4.3081696465  W2        11273           0.0000000000
     33819     11273  TIP3      H2            -19.8966866405        4.6903277139       -4.7966596465  W2        11273           0.0000000000
     33820     11274  TIP3      OH2           -27.5769466405        2.3621577139       -6.8044996465  W2        11274           0.0000000000
     33821     11274  TIP3      H1            -27.6945266405        1.4137577139       -6.8586696465  W2        11274           0.0000000000
     33822     11274  TIP3      H2            -28.4319366405        2.6947677139       -6.5313896465  W2        11274           0.0000000000
     33823     11275  TIP3      OH2           -22.6286666405       17.7702477139       -9.0625296465  W2        11275           0.0000000000
     33824     11275  TIP3      H1            -22.2034366405       17.0630377139       -9.5475696465  W2        11275           0.0000000000
     33825     11275  TIP3      H2            -22.3116666405       18.5715177139       -9.4793096465  W2        11275           0.0000000000
     33826     11276  TIP3      OH2           -21.4690166405       15.6710977139      -10.5538696465  W2        11276           0.0000000000
     33827     11276  TIP3      H1            -21.7265366405       14.9811077139      -11.1652796465  W2        11276           0.0000000000
     33828     11276  TIP3      H2            -21.3979366405       15.2282177139       -9.7082796465  W2        11276           0.0000000000
     33829     11277  TIP3      OH2           -19.7829966405       14.2377677139       -2.0765196465  W2        11277           0.0000000000
     33830     11277  TIP3      H1            -19.6433666405       13.6460177139       -2.8158196465  W2        11277           0.0000000000
     33831     11277  TIP3      H2            -19.6157166405       15.1103577139       -2.4326396465  W2        11277           0.0000000000
     33832     11278  TIP3      OH2           -25.3104566405       11.1997177139      -12.3039196465  W2        11278           0.0000000000
     33833     11278  TIP3      H1            -26.0219066405       11.7346877139      -12.6558696465  W2        11278           0.0000000000
     33834     11278  TIP3      H2            -24.6194966405       11.2549277139      -12.9640296465  W2        11278           0.0000000000
     33835     11279  TIP3      OH2           -25.2565366405        9.6571477139      -15.2654196465  W2        11279           0.0000000000
     33836     11279  TIP3      H1            -24.5555466405        9.6798377139      -14.6140196465  W2        11279           0.0000000000
     33837     11279  TIP3      H2            -24.9542466405        9.0291177139      -15.9214896465  W2        11279           0.0000000000
     33838     11280  TIP3      OH2           -17.9410666405       10.5775677139       -4.0104796465  W2        11280           0.0000000000
     33839     11280  TIP3      H1            -18.5936566405       11.2721277139       -3.9213896465  W2        11280           0.0000000000
     33840     11280  TIP3      H2            -17.4760366405       10.7876577139       -4.8203196465  W2        11280           0.0000000000
     33841     11281  TIP3      OH2           -21.9046866405       11.4090477139      -11.3523296465  W2        11281           0.0000000000
     33842     11281  TIP3      H1            -22.6365866405       11.6374177139      -10.7792696465  W2        11281           0.0000000000
     33843     11281  TIP3      H2            -21.4574666405       10.6953177139      -10.8975796465  W2        11281           0.0000000000
     33844     11282  TIP3      OH2           -22.0073366405        9.5833077139       -2.2846296465  W2        11282           0.0000000000
     33845     11282  TIP3      H1            -21.9274266405       10.3467477139       -1.7127796465  W2        11282           0.0000000000
     33846     11282  TIP3      H2            -22.6085666405        9.8625477139       -2.9751196465  W2        11282           0.0000000000
     33847     11283  TIP3      OH2           -30.2593166405       12.0396677139       -9.4698296465  W2        11283           0.0000000000
     33848     11283  TIP3      H1            -30.5897966405       11.6690077139      -10.2881296465  W2        11283           0.0000000000
     33849     11283  TIP3      H2            -29.6709066405       11.3690677139       -9.1229996465  W2        11283           0.0000000000
     33850     11284  TIP3      OH2           -28.8925666405       15.4677277139       -6.7886096465  W2        11284           0.0000000000
     33851     11284  TIP3      H1            -28.9874366405       14.8890377139       -7.5451496465  W2        11284           0.0000000000
     33852     11284  TIP3      H2            -28.1632066405       15.0962977139       -6.2923296465  W2        11284           0.0000000000
     33853     11285  TIP3      OH2           -29.8927666405       10.8082277139       -5.8363296465  W2        11285           0.0000000000
     33854     11285  TIP3      H1            -29.3275166405       10.9296477139       -6.5992096465  W2        11285           0.0000000000
     33855     11285  TIP3      H2            -29.5738766405       11.4457277139       -5.1974796465  W2        11285           0.0000000000
     33856     11286  TIP3      OH2           -23.5835466405       16.3114177139       -5.1022796465  W2        11286           0.0000000000
     33857     11286  TIP3      H1            -23.8238866405       16.9737277139       -4.4543596465  W2        11286           0.0000000000
     33858     11286  TIP3      H2            -23.7817266405       15.4769377139       -4.6773196465  W2        11286           0.0000000000
     33859     11287  TIP3      OH2           -29.0126966405       15.2074977139       -1.1191396465  W2        11287           0.0000000000
     33860     11287  TIP3      H1            -29.3239466405       15.9898177139       -0.6638196465  W2        11287           0.0000000000
     33861     11287  TIP3      H2            -29.6626766405       15.0544077139       -1.8049396465  W2        11287           0.0000000000
     33862     11288  TIP3      OH2           -23.0337366405       10.5713377139      -13.6672096465  W2        11288           0.0000000000
     33863     11288  TIP3      H1            -22.4541866405       10.7213677139      -12.9203196465  W2        11288           0.0000000000
     33864     11288  TIP3      H2            -22.6197366405       11.0420777139      -14.3905696465  W2        11288           0.0000000000
     33865     11289  TIP3      OH2           -32.0927066405       11.4056077139       -1.8905696465  W2        11289           0.0000000000
     33866     11289  TIP3      H1            -32.0223866405       12.0562877139       -1.1920696465  W2        11289           0.0000000000
     33867     11289  TIP3      H2            -32.9834866405       11.5083577139       -2.2254796465  W2        11289           0.0000000000
     33868     11290  TIP3      OH2           -25.3072466405       17.3081877139      -10.2318996465  W2        11290           0.0000000000
     33869     11290  TIP3      H1            -24.8334866405       17.6038177139       -9.4544796465  W2        11290           0.0000000000
     33870     11290  TIP3      H2            -25.8703166405       18.0463477139      -10.4649396465  W2        11290           0.0000000000
     33871     11291  TIP3      OH2           -30.7731066405       17.2789977139       -0.3557596465  W2        11291           0.0000000000
     33872     11291  TIP3      H1            -30.7655766405       17.1429677139       -1.3032096465  W2        11291           0.0000000000
     33873     11291  TIP3      H2            -31.6890666405       17.1618077139       -0.1037596465  W2        11291           0.0000000000
     33874     11292  TIP3      OH2           -19.3348966405        2.3213777139      -13.8542396465  W2        11292           0.0000000000
     33875     11292  TIP3      H1            -20.2348266405        2.4602777139      -13.5591796465  W2        11292           0.0000000000
     33876     11292  TIP3      H2            -19.0830566405        3.1528377139      -14.2560696465  W2        11292           0.0000000000
     33877     11293  TIP3      OH2           -31.2690466405       11.1090977139      -11.8805496465  W2        11293           0.0000000000
     33878     11293  TIP3      H1            -31.5609166405       11.8772677139      -12.3714196465  W2        11293           0.0000000000
     33879     11293  TIP3      H2            -31.9435266405       10.4497177139      -12.0434096465  W2        11293           0.0000000000
     33880     11294  TIP3      OH2           -18.1457566405       16.6876177139      -15.4778496465  W2        11294           0.0000000000
     33881     11294  TIP3      H1            -18.0724066405       17.6266377139      -15.3073196465  W2        11294           0.0000000000
     33882     11294  TIP3      H2            -17.2402466405       16.3824777139      -15.5341196465  W2        11294           0.0000000000
     33883     11295  TIP3      OH2           -35.1760366405       13.4720177139       -3.0655696465  W2        11295           0.0000000000
     33884     11295  TIP3      H1            -35.6771966405       13.4439577139       -3.8805996465  W2        11295           0.0000000000
     33885     11295  TIP3      H2            -35.1706666405       12.5663377139       -2.7558396465  W2        11295           0.0000000000
     33886     11296  TIP3      OH2           -35.4257666405       16.2523977139       -6.1815496465  W2        11296           0.0000000000
     33887     11296  TIP3      H1            -34.4797066405       16.1080977139       -6.2005996465  W2        11296           0.0000000000
     33888     11296  TIP3      H2            -35.5381366405       17.0366777139       -5.6444296465  W2        11296           0.0000000000
     33889     11297  TIP3      OH2           -17.2279166405       16.9183677139       -0.4991796465  W2        11297           0.0000000000
     33890     11297  TIP3      H1            -17.2772366405       15.9631777139       -0.5364196465  W2        11297           0.0000000000
     33891     11297  TIP3      H2            -18.0546866405       17.1858977139       -0.0977996465  W2        11297           0.0000000000
     33892     11298  TIP3      OH2           -26.2495166405       16.4922877139       -1.6230396465  W2        11298           0.0000000000
     33893     11298  TIP3      H1            -26.1620566405       17.3187477139       -1.1481296465  W2        11298           0.0000000000
     33894     11298  TIP3      H2            -27.1130066405       16.1626677139       -1.3741096465  W2        11298           0.0000000000
     33895     11299  TIP3      OH2           -25.8349366405       20.2646577139      -11.8169796465  W2        11299           0.0000000000
     33896     11299  TIP3      H1            -25.9103366405       20.1433777139      -12.7634596465  W2        11299           0.0000000000
     33897     11299  TIP3      H2            -25.8020666405       21.2139277139      -11.6985196465  W2        11299           0.0000000000
     33898     11300  TIP3      OH2           -32.1815566405       19.0533577139      -10.0360796465  W2        11300           0.0000000000
     33899     11300  TIP3      H1            -32.0295166405       18.7053977139       -9.1574296465  W2        11300           0.0000000000
     33900     11300  TIP3      H2            -33.0325166405       18.6970877139      -10.2913596465  W2        11300           0.0000000000
     33901     11301  TIP3      OH2           -22.7333366405       19.4186777139      -14.8147396465  W2        11301           0.0000000000
     33902     11301  TIP3      H1            -22.3584966405       18.6742877139      -15.2854796465  W2        11301           0.0000000000
     33903     11301  TIP3      H2            -22.7289666405       19.1487377139      -13.8964096465  W2        11301           0.0000000000
     33904     11302  TIP3      OH2           -23.0645266405       19.3443877139      -12.0655196465  W2        11302           0.0000000000
     33905     11302  TIP3      H1            -23.9995466405       19.4445777139      -11.8868196465  W2        11302           0.0000000000
     33906     11302  TIP3      H2            -22.7843366405       18.6349877139      -11.4871996465  W2        11302           0.0000000000
     33907     11303  TIP3      OH2           -20.0759366405        8.4116177139       -0.0189596465  W2        11303           0.0000000000
     33908     11303  TIP3      H1            -20.4832566405        8.8921777139       -0.7396296465  W2        11303           0.0000000000
     33909     11303  TIP3      H2            -20.0353666405        7.5062177139       -0.3268796465  W2        11303           0.0000000000
     33910     11304  TIP3      OH2           -32.9269866405       14.7955577139       -2.0222896465  W2        11304           0.0000000000
     33911     11304  TIP3      H1            -32.7108566405       14.4341177139       -1.1627096465  W2        11304           0.0000000000
     33912     11304  TIP3      H2            -33.7825166405       14.4209377139       -2.2319396465  W2        11304           0.0000000000
     33913     11305  TIP3      OH2           -30.3081866405        3.2656077139       -6.0268696465  W2        11305           0.0000000000
     33914     11305  TIP3      H1            -31.1698166405        3.1784277139       -6.4345796465  W2        11305           0.0000000000
     33915     11305  TIP3      H2            -30.3306166405        4.1216177139       -5.5991096465  W2        11305           0.0000000000
     33916     11306  TIP3      OH2           -25.6454066405        2.9876477139       -2.6521696465  W2        11306           0.0000000000
     33917     11306  TIP3      H1            -25.2250966405        2.5723577139       -1.8991096465  W2        11306           0.0000000000
     33918     11306  TIP3      H2            -26.5784466405        2.8089777139       -2.5349696465  W2        11306           0.0000000000
     33919     11307  TIP3      OH2           -22.3189166405        6.7431677139       -1.7987196465  W2        11307           0.0000000000
     33920     11307  TIP3      H1            -22.8329666405        6.6173877139       -1.0011196465  W2        11307           0.0000000000
     33921     11307  TIP3      H2            -22.4744466405        7.6554777139       -2.0430996465  W2        11307           0.0000000000
     33922     11308  TIP3      OH2           -21.5564266405       11.6041677139      -16.0374196465  W2        11308           0.0000000000
     33923     11308  TIP3      H1            -21.5143466405       11.3815577139      -16.9674196465  W2        11308           0.0000000000
     33924     11308  TIP3      H2            -20.7072166405       12.0028777139      -15.8474296465  W2        11308           0.0000000000
     33925     11309  TIP3      OH2           -25.9836766405        5.4799877139      -15.3670896465  W2        11309           0.0000000000
     33926     11309  TIP3      H1            -26.2371966405        5.4991477139      -14.4442796465  W2        11309           0.0000000000
     33927     11309  TIP3      H2            -26.2404666405        4.6085277139      -15.6684696465  W2        11309           0.0000000000
     33928     11310  TIP3      OH2           -30.2171766405        8.2310577139       -4.9318496465  W2        11310           0.0000000000
     33929     11310  TIP3      H1            -30.8589666405        8.1907877139       -4.2228396465  W2        11310           0.0000000000
     33930     11310  TIP3      H2            -30.1799766405        9.1575277139       -5.1695496465  W2        11310           0.0000000000
     33931     11311  TIP3      OH2           -30.2202666405        8.4520677139      -10.0198496465  W2        11311           0.0000000000
     33932     11311  TIP3      H1            -31.1129766405        8.1116777139      -10.0784696465  W2        11311           0.0000000000
     33933     11311  TIP3      H2            -29.7696066405        8.0751577139      -10.7755296465  W2        11311           0.0000000000
     33934     11312  TIP3      OH2           -24.6847166405        8.8680977139      -11.2027696465  W2        11312           0.0000000000
     33935     11312  TIP3      H1            -25.0936866405        9.6829577139      -11.4942896465  W2        11312           0.0000000000
     33936     11312  TIP3      H2            -23.9640966405        8.7281077139      -11.8170596465  W2        11312           0.0000000000
     33937     11313  TIP3      OH2           -25.5825566405        9.0437377139        0.2853003535  W2        11313           0.0000000000
     33938     11313  TIP3      H1            -26.1451766405        8.3388977139        0.6060803535  W2        11313           0.0000000000
     33939     11313  TIP3      H2            -24.7562166405        8.9229277139        0.7530603535  W2        11313           0.0000000000
     33940     11314  TIP3      OH2           -23.6799466405        8.3141377139       -8.3887996465  W2        11314           0.0000000000
     33941     11314  TIP3      H1            -23.8754966405        8.9198177139       -9.1037396465  W2        11314           0.0000000000
     33942     11314  TIP3      H2            -23.4986866405        7.4806577139       -8.8231696465  W2        11314           0.0000000000
     33943     11315  TIP3      OH2           -32.4671266405        8.5514077139       -3.0646496465  W2        11315           0.0000000000
     33944     11315  TIP3      H1            -32.5051866405        8.9515677139       -2.1959396465  W2        11315           0.0000000000
     33945     11315  TIP3      H2            -32.9580166405        7.7346477139       -2.9743596465  W2        11315           0.0000000000
     33946     11316  TIP3      OH2           -29.1013866405        5.9256377139      -16.2660496465  W2        11316           0.0000000000
     33947     11316  TIP3      H1            -29.5323166405        5.4806477139      -15.5363096465  W2        11316           0.0000000000
     33948     11316  TIP3      H2            -29.8195166405        6.2972677139      -16.7782996465  W2        11316           0.0000000000
     33949     11317  TIP3      OH2           -35.8590466405        5.6675877139       -9.2141796465  W2        11317           0.0000000000
     33950     11317  TIP3      H1            -35.2282766405        5.6387977139       -8.4947896465  W2        11317           0.0000000000
     33951     11317  TIP3      H2            -35.4096166405        5.2424577139       -9.9445896465  W2        11317           0.0000000000
     33952     11318  TIP3      OH2           -34.5848366405        6.4137877139      -13.7901396465  W2        11318           0.0000000000
     33953     11318  TIP3      H1            -34.1106666405        7.0047777139      -14.3750496465  W2        11318           0.0000000000
     33954     11318  TIP3      H2            -35.3021966405        6.9440777139      -13.4431296465  W2        11318           0.0000000000
     33955     11319  TIP3      OH2           -24.4160266405        9.9522677139       -3.7175596465  W2        11319           0.0000000000
     33956     11319  TIP3      H1            -24.0925466405        9.3212377139       -4.3605096465  W2        11319           0.0000000000
     33957     11319  TIP3      H2            -24.8560966405        9.4174877139       -3.0568196465  W2        11319           0.0000000000
     33958     11320  TIP3      OH2           -27.6387366405        5.8798177139       -8.9334396465  W2        11320           0.0000000000
     33959     11320  TIP3      H1            -28.5496266405        5.9364977139       -8.6448396465  W2        11320           0.0000000000
     33960     11320  TIP3      H2            -27.1334466405        5.8193677139       -8.1227196465  W2        11320           0.0000000000
     33961     11321  TIP3      OH2           -32.8103966405        7.5084477139      -10.1066796465  W2        11321           0.0000000000
     33962     11321  TIP3      H1            -33.6995966405        7.6079977139      -10.4467196465  W2        11321           0.0000000000
     33963     11321  TIP3      H2            -32.5139066405        6.6667477139      -10.4528896465  W2        11321           0.0000000000
     33964     11322  TIP3      OH2           -29.1572166405        7.5087077139      -12.4502196465  W2        11322           0.0000000000
     33965     11322  TIP3      H1            -28.2256666405        7.6377077139      -12.2719096465  W2        11322           0.0000000000
     33966     11322  TIP3      H2            -29.3721866405        8.1781377139      -13.0997496465  W2        11322           0.0000000000
     33967     11323  TIP3      OH2           -23.2335466405        5.1144477139       -5.6692596465  W2        11323           0.0000000000
     33968     11323  TIP3      H1            -23.9103866405        5.2457577139       -5.0052896465  W2        11323           0.0000000000
     33969     11323  TIP3      H2            -23.7190566405        4.9593977139       -6.4794896465  W2        11323           0.0000000000
     33970     11324  TIP3      OH2           -30.4831966405        8.7029277139      -14.8836096465  W2        11324           0.0000000000
     33971     11324  TIP3      H1            -31.0256866405        8.3233077139      -15.5748496465  W2        11324           0.0000000000
     33972     11324  TIP3      H2            -29.6497066405        8.8973977139      -15.3121996465  W2        11324           0.0000000000
     33973     11325  TIP3      OH2           -19.9460366405       20.7859877139        0.6075003535  W2        11325           0.0000000000
     33974     11325  TIP3      H1            -19.7461666405       21.2101777139       -0.2269696465  W2        11325           0.0000000000
     33975     11325  TIP3      H2            -19.2906666405       21.1298077139        1.2145403535  W2        11325           0.0000000000
     33976     11326  TIP3      OH2           -32.3480566405       13.2601177139        0.2155503535  W2        11326           0.0000000000
     33977     11326  TIP3      H1            -31.6158166405       13.5147077139        0.7770003535  W2        11326           0.0000000000
     33978     11326  TIP3      H2            -33.1281866405       13.4646577139        0.7310903535  W2        11326           0.0000000000
     33979     11327  TIP3      OH2           -26.3187666405        8.6671177139       -7.0464796465  W2        11327           0.0000000000
     33980     11327  TIP3      H1            -25.7544266405        8.1207777139       -7.5935196465  W2        11327           0.0000000000
     33981     11327  TIP3      H2            -26.4664266405        8.1453077139       -6.2577196465  W2        11327           0.0000000000
     33982     11328  TIP3      OH2           -31.3167966405        4.8037277139      -10.6279996465  W2        11328           0.0000000000
     33983     11328  TIP3      H1            -31.6338466405        3.9012577139      -10.6634596465  W2        11328           0.0000000000
     33984     11328  TIP3      H2            -30.5353866405        4.8054677139      -11.1808396465  W2        11328           0.0000000000
     33985     11329  TIP3      OH2           -27.6921766405        7.0557277139       -4.6324396465  W2        11329           0.0000000000
     33986     11329  TIP3      H1            -28.5276466405        7.5096777139       -4.5221996465  W2        11329           0.0000000000
     33987     11329  TIP3      H2            -27.1681166405        7.3315777139       -3.8804496465  W2        11329           0.0000000000
     33988     11330  TIP3      OH2           -27.1479166405       13.2684977139      -12.9477996465  W2        11330           0.0000000000
     33989     11330  TIP3      H1            -27.8928166405       12.7610277139      -13.2700096465  W2        11330           0.0000000000
     33990     11330  TIP3      H2            -27.2821966405       13.3172977139      -12.0013196465  W2        11330           0.0000000000
     33991     11331  TIP3      OH2           -19.9980266405       12.4013177139       -4.1610396465  W2        11331           0.0000000000
     33992     11331  TIP3      H1            -19.3561466405       12.8579477139       -4.7048196465  W2        11331           0.0000000000
     33993     11331  TIP3      H2            -20.8283366405       12.5145577139       -4.6236296465  W2        11331           0.0000000000
     33994     11332  TIP3      OH2           -23.2502366405        6.0824877139      -14.7485396465  W2        11332           0.0000000000
     33995     11332  TIP3      H1            -24.1888166405        6.1940477139      -14.8996596465  W2        11332           0.0000000000
     33996     11332  TIP3      H2            -22.9530266405        6.9391777139      -14.4419696465  W2        11332           0.0000000000
     33997     11333  TIP3      OH2           -25.6287066405       13.4528277139       -1.7108896465  W2        11333           0.0000000000
     33998     11333  TIP3      H1            -25.9740966405       13.0710677139       -0.9039296465  W2        11333           0.0000000000
     33999     11333  TIP3      H2            -25.8286966405       14.3861877139       -1.6395996465  W2        11333           0.0000000000
     34000     11334  TIP3      OH2           -22.5318866405        7.9497577139      -13.0877996465  W2        11334           0.0000000000
     34001     11334  TIP3      H1            -21.6399866405        7.8122577139      -12.7686796465  W2        11334           0.0000000000
     34002     11334  TIP3      H2            -22.4755266405        8.7403677139      -13.6244496465  W2        11334           0.0000000000
     34003     11335  TIP3      OH2           -32.0230866405       12.5634977139       -7.1780096465  W2        11335           0.0000000000
     34004     11335  TIP3      H1            -31.2783666405       12.5610677139       -7.7793596465  W2        11335           0.0000000000
     34005     11335  TIP3      H2            -31.9454266405       11.7398777139       -6.6964996465  W2        11335           0.0000000000
     34006     11336  TIP3      OH2           -25.0225066405       14.7269277139      -13.9223396465  W2        11336           0.0000000000
     34007     11336  TIP3      H1            -25.3176666405       15.5537177139      -13.5408596465  W2        11336           0.0000000000
     34008     11336  TIP3      H2            -25.7255066405       14.1076177139      -13.7261996465  W2        11336           0.0000000000
     34009     11337  TIP3      OH2           -35.0151166405       11.0241877139       -1.8631596465  W2        11337           0.0000000000
     34010     11337  TIP3      H1            -34.7922566405       10.6061477139       -1.0314096465  W2        11337           0.0000000000
     34011     11337  TIP3      H2            -35.6171066405       10.4116877139       -2.2858796465  W2        11337           0.0000000000
     34012     11338  TIP3      OH2           -27.9986266405       10.5411777139        0.3498103535  W2        11338           0.0000000000
     34013     11338  TIP3      H1            -28.2945466405       10.3754777139       -0.5452796465  W2        11338           0.0000000000
     34014     11338  TIP3      H2            -27.0671066405       10.3212077139        0.3392003535  W2        11338           0.0000000000
     34015     11339  TIP3      OH2           -23.3783466405       15.9143777139       -1.7603896465  W2        11339           0.0000000000
     34016     11339  TIP3      H1            -24.2789166405       16.0976377139       -2.0279996465  W2        11339           0.0000000000
     34017     11339  TIP3      H2            -23.3442366405       16.1733077139       -0.8395096465  W2        11339           0.0000000000
     34018     11340  TIP3      OH2           -17.6470166405        8.1591677139      -13.3931296465  W2        11340           0.0000000000
     34019     11340  TIP3      H1            -18.2013866405        7.7629677139      -14.0653796465  W2        11340           0.0000000000
     34020     11340  TIP3      H2            -17.5466566405        9.0696877139      -13.6707996465  W2        11340           0.0000000000
     34021     11341  TIP3      OH2           -17.6838166405       13.9593377139       -0.5559796465  W2        11341           0.0000000000
     34022     11341  TIP3      H1            -18.5349666405       14.1977177139       -0.9233396465  W2        11341           0.0000000000
     34023     11341  TIP3      H2            -17.0934766405       13.9426577139       -1.3092696465  W2        11341           0.0000000000
     34024     11342  TIP3      OH2           -19.3518466405       16.9452077139      -12.9279196465  W2        11342           0.0000000000
     34025     11342  TIP3      H1            -19.7247366405       16.1195877139      -12.6188596465  W2        11342           0.0000000000
     34026     11342  TIP3      H2            -19.0744966405       16.7621477139      -13.8255796465  W2        11342           0.0000000000
     34027     11343  TIP3      OH2           -22.1914566405       11.7531577139       -5.9067296465  W2        11343           0.0000000000
     34028     11343  TIP3      H1            -23.1197666405       11.5213477139       -5.9337996465  W2        11343           0.0000000000
     34029     11343  TIP3      H2            -21.7403466405       10.9761377139       -6.2368496465  W2        11343           0.0000000000
     34030     11344  TIP3      OH2           -29.6481466405       16.0813177139       -9.7738596465  W2        11344           0.0000000000
     34031     11344  TIP3      H1            -29.1209266405       16.8547577139       -9.9739796465  W2        11344           0.0000000000
     34032     11344  TIP3      H2            -30.5282966405       16.3062377139      -10.0754596465  W2        11344           0.0000000000
     34033     11345  TIP3      OH2           -33.8933766405       10.9437277139      -15.1866196465  W2        11345           0.0000000000
     34034     11345  TIP3      H1            -33.2773866405       11.5704477139      -14.8071396465  W2        11345           0.0000000000
     34035     11345  TIP3      H2            -34.7551166405       11.2597077139      -14.9149696465  W2        11345           0.0000000000
     34036     11346  TIP3      OH2           -28.2209166405       13.7443077139      -10.1974296465  W2        11346           0.0000000000
     34037     11346  TIP3      H1            -28.4619166405       14.6697477139      -10.1558996465  W2        11346           0.0000000000
     34038     11346  TIP3      H2            -28.9615566405       13.2854377139       -9.8010396465  W2        11346           0.0000000000
     34039     11347  TIP3      OH2           -27.7062566405       17.8936677139       -3.8823196465  W2        11347           0.0000000000
     34040     11347  TIP3      H1            -27.3437866405       18.7482277139       -4.1158796465  W2        11347           0.0000000000
     34041     11347  TIP3      H2            -27.1747366405       17.6018277139       -3.1416896465  W2        11347           0.0000000000
     34042     11348  TIP3      OH2           -29.5378366405       18.7660677139      -10.6522096465  W2        11348           0.0000000000
     34043     11348  TIP3      H1            -30.4877866405       18.8718077139      -10.6008796465  W2        11348           0.0000000000
     34044     11348  TIP3      H2            -29.1860266405       19.5868077139      -10.3074596465  W2        11348           0.0000000000
     34045     11349  TIP3      OH2           -24.1621766405       13.9927377139       -4.1817596465  W2        11349           0.0000000000
     34046     11349  TIP3      H1            -24.5880466405       13.7649077139       -3.3553596465  W2        11349           0.0000000000
     34047     11349  TIP3      H2            -23.5815966405       13.2539177139       -4.3642296465  W2        11349           0.0000000000
     34048     11350  TIP3      OH2           -21.9592866405       14.9217877139      -15.1078596465  W2        11350           0.0000000000
     34049     11350  TIP3      H1            -21.6059766405       14.5417677139      -14.3035096465  W2        11350           0.0000000000
     34050     11350  TIP3      H2            -22.9079366405       14.8282677139      -15.0209296465  W2        11350           0.0000000000
     34051     11351  TIP3      OH2           -21.5037566405       18.5446877139       -1.7122796465  W2        11351           0.0000000000
     34052     11351  TIP3      H1            -22.1054366405       17.9889777139       -2.2076496465  W2        11351           0.0000000000
     34053     11351  TIP3      H2            -21.2223866405       19.2116677139       -2.3385396465  W2        11351           0.0000000000
     34054     11352  TIP3      OH2           -17.4558466405       19.4010377139      -14.9068396465  W2        11352           0.0000000000
     34055     11352  TIP3      H1            -16.7120566405       19.9870877139      -15.0466796465  W2        11352           0.0000000000
     34056     11352  TIP3      H2            -18.1500366405       19.9696177139      -14.5735996465  W2        11352           0.0000000000
     34057     11353  TIP3      OH2           -33.3811666405        5.7774577139       -2.3050196465  W2        11353           0.0000000000
     34058     11353  TIP3      H1            -34.2739366405        6.1159977139       -2.3726196465  W2        11353           0.0000000000
     34059     11353  TIP3      H2            -33.4798866405        4.9220677139       -1.8869396465  W2        11353           0.0000000000
     34060     11354  TIP3      OH2           -21.0933566405       13.5939877139      -12.8810696465  W2        11354           0.0000000000
     34061     11354  TIP3      H1            -21.3705966405       12.8659177139      -12.3249596465  W2        11354           0.0000000000
     34062     11354  TIP3      H2            -20.1660566405       13.7131877139      -12.6758096465  W2        11354           0.0000000000
     34063     11355  TIP3      OH2           -33.7299666405       17.5818977139       -3.8700796465  W2        11355           0.0000000000
     34064     11355  TIP3      H1            -33.5129366405       16.6501377139       -3.9011096465  W2        11355           0.0000000000
     34065     11355  TIP3      H2            -33.4836166405       17.8563977139       -2.9867996465  W2        11355           0.0000000000
     34066     11356  TIP3      OH2           -27.8685066405       16.0333977139      -16.6608596465  W2        11356           0.0000000000
     34067     11356  TIP3      H1            -27.6295266405       15.2852077139      -17.2079696465  W2        11356           0.0000000000
     34068     11356  TIP3      H2            -28.1373766405       15.6455677139      -15.8280796465  W2        11356           0.0000000000
     34069     11357  TIP3      OH2           -28.9314466405       15.6037777139      -14.2045996465  W2        11357           0.0000000000
     34070     11357  TIP3      H1            -28.7846466405       15.0837577139      -13.4145096465  W2        11357           0.0000000000
     34071     11357  TIP3      H2            -28.9342766405       16.5105377139      -13.8980096465  W2        11357           0.0000000000
     34072     11358  TIP3      OH2           -32.4783366405       12.8561077139      -13.6940596465  W2        11358           0.0000000000
     34073     11358  TIP3      H1            -33.1644066405       13.2083577139      -13.1270896465  W2        11358           0.0000000000
     34074     11358  TIP3      H2            -31.9555466405       13.6190677139      -13.9406296465  W2        11358           0.0000000000
     34075     11359  TIP3      OH2           -24.6468266405        5.5184877139       -3.4151596465  W2        11359           0.0000000000
     34076     11359  TIP3      H1            -23.9480366405        5.5923577139       -2.7651896465  W2        11359           0.0000000000
     34077     11359  TIP3      H2            -25.0276866405        4.6539877139       -3.2608696465  W2        11359           0.0000000000
     34078     11360  TIP3      OH2           -23.8623366405        5.1706577139      -12.3179296465  W2        11360           0.0000000000
     34079     11360  TIP3      H1            -23.6425066405        5.6421977139      -13.1213896465  W2        11360           0.0000000000
     34080     11360  TIP3      H2            -23.3039366405        5.5649177139      -11.6478696465  W2        11360           0.0000000000
     34081     11361  TIP3      OH2           -26.1937266405       17.3011377139      -13.4551796465  W2        11361           0.0000000000
     34082     11361  TIP3      H1            -27.0101166405       17.7981077139      -13.4027496465  W2        11361           0.0000000000
     34083     11361  TIP3      H2            -25.6640966405       17.7764877139      -14.0952996465  W2        11361           0.0000000000
     34084     11362  TIP3      OH2           -26.6623466405        6.8985377139      -11.4830896465  W2        11362           0.0000000000
     34085     11362  TIP3      H1            -25.8500866405        7.4028577139      -11.4369196465  W2        11362           0.0000000000
     34086     11362  TIP3      H2            -26.9070466405        6.7535077139      -10.5691296465  W2        11362           0.0000000000
     34087     11363  TIP3      OH2           -26.1267066405        7.8848077139       -2.2984296465  W2        11363           0.0000000000
     34088     11363  TIP3      H1            -26.0076766405        8.4583477139       -1.5413896465  W2        11363           0.0000000000
     34089     11363  TIP3      H2            -25.4712466405        7.1967477139       -2.1836496465  W2        11363           0.0000000000
     34090     11364  TIP3      OH2           -25.7786766405        3.9798377139      -10.5449796465  W2        11364           0.0000000000
     34091     11364  TIP3      H1            -26.1253266405        4.5968977139       -9.9005496465  W2        11364           0.0000000000
     34092     11364  TIP3      H2            -25.1199866405        4.4804077139      -11.0264296465  W2        11364           0.0000000000
     34093     11365  TIP3      OH2           -28.8554166405       18.3448577139      -13.4734896465  W2        11365           0.0000000000
     34094     11365  TIP3      H1            -28.6945466405       19.1446077139      -13.9742296465  W2        11365           0.0000000000
     34095     11365  TIP3      H2            -29.0526366405       18.6514577139      -12.5884296465  W2        11365           0.0000000000
     34096     11366  TIP3      OH2           -30.1209766405        5.0427777139      -13.8577296465  W2        11366           0.0000000000
     34097     11366  TIP3      H1            -30.2044966405        5.9310877139      -13.5110896465  W2        11366           0.0000000000
     34098     11366  TIP3      H2            -29.2309466405        4.7774477139      -13.6260496465  W2        11366           0.0000000000
     34099     11367  TIP3      OH2           -19.9221266405        5.7918377139       -1.4634596465  W2        11367           0.0000000000
     34100     11367  TIP3      H1            -20.8385466405        6.0540077139       -1.5510896465  W2        11367           0.0000000000
     34101     11367  TIP3      H2            -19.5866266405        5.7887377139       -2.3599296465  W2        11367           0.0000000000
     34102     11368  TIP3      OH2           -21.3200266405        9.5419377139       -7.3677296465  W2        11368           0.0000000000
     34103     11368  TIP3      H1            -22.1175866405        9.1269577139       -7.6962296465  W2        11368           0.0000000000
     34104     11368  TIP3      H2            -20.8749166405        8.8513077139       -6.8766796465  W2        11368           0.0000000000
     34105     11369  TIP3      OH2           -31.8624466405       15.4699977139      -14.7972796465  W2        11369           0.0000000000
     34106     11369  TIP3      H1            -31.2702966405       16.1694777139      -14.5210396465  W2        11369           0.0000000000
     34107     11369  TIP3      H2            -31.4031466405       15.0369477139      -15.5168196465  W2        11369           0.0000000000
     34108     11370  TIP3      OH2           -33.5465266405        8.1342977139      -15.6813396465  W2        11370           0.0000000000
     34109     11370  TIP3      H1            -33.5912666405        9.0736077139      -15.5026396465  W2        11370           0.0000000000
     34110     11370  TIP3      H2            -34.4342066405        7.8987877139      -15.9511296465  W2        11370           0.0000000000
     34111     11371  TIP3      OH2           -20.2335666405       18.7981877139       -5.7453796465  W2        11371           0.0000000000
     34112     11371  TIP3      H1            -20.3891366405       19.4766277139       -6.4024496465  W2        11371           0.0000000000
     34113     11371  TIP3      H2            -19.3009266405       18.8701177139       -5.5423196465  W2        11371           0.0000000000
     34114     11372  TIP3      OH2           -32.7383266405        2.9159577139       -7.0082396465  W2        11372           0.0000000000
     34115     11372  TIP3      H1            -32.9673466405        2.9752077139       -7.9357396465  W2        11372           0.0000000000
     34116     11372  TIP3      H2            -33.1809866405        2.1245077139       -6.7018296465  W2        11372           0.0000000000
     34117     11373  TIP3      OH2           -33.8079966405       16.8566677139      -10.8476596465  W2        11373           0.0000000000
     34118     11373  TIP3      H1            -34.6401366405       17.3289377139      -10.8205196465  W2        11373           0.0000000000
     34119     11373  TIP3      H2            -33.2621666405       17.3664277139      -11.4463496465  W2        11373           0.0000000000
     34120     11374  TIP3      OH2           -34.5196266405       19.4690377139        0.4821403535  W2        11374           0.0000000000
     34121     11374  TIP3      H1            -33.9794066405       19.2524377139        1.2420603535  W2        11374           0.0000000000
     34122     11374  TIP3      H2            -35.0008266405       18.6636377139        0.2923903535  W2        11374           0.0000000000
     34123     11375  TIP3      OH2           -29.9222866405       18.3884777139        2.1025603535  W2        11375           0.0000000000
     34124     11375  TIP3      H1            -29.1545666405       17.9295577139        2.4434803535  W2        11375           0.0000000000
     34125     11375  TIP3      H2            -29.9436666405       18.1624577139        1.1726803535  W2        11375           0.0000000000
     34126     11376  TIP3      OH2           -25.8303266405       17.8965377139      -16.5222596465  W2        11376           0.0000000000
     34127     11376  TIP3      H1            -26.4742266405       17.2653977139      -16.2008896465  W2        11376           0.0000000000
     34128     11376  TIP3      H2            -25.0684966405       17.3653377139      -16.7539096465  W2        11376           0.0000000000
     34129     11377  TIP3      OH2           -23.3454166405       16.7685877139        0.8317103535  W2        11377           0.0000000000
     34130     11377  TIP3      H1            -23.6964666405       15.9118877139        1.0747503535  W2        11377           0.0000000000
     34131     11377  TIP3      H2            -22.6190966405       16.9112577139        1.4386103535  W2        11377           0.0000000000
     34132     11378  TIP3      OH2           -21.2260366405       17.7135277139      -16.2884596465  W2        11378           0.0000000000
     34133     11378  TIP3      H1            -20.9429966405       16.9190477139      -15.8357696465  W2        11378           0.0000000000
     34134     11378  TIP3      H2            -20.4862466405       17.9466277139      -16.8493496465  W2        11378           0.0000000000
     34135     11379  TIP3      OH2           -34.6126766405       13.2794477139        1.4365703535  W2        11379           0.0000000000
     34136     11379  TIP3      H1            -34.4686266405       12.3775177139        1.1502403535  W2        11379           0.0000000000
     34137     11379  TIP3      H2            -35.3849366405       13.5656577139        0.9488003535  W2        11379           0.0000000000
     34138     11380  TIP3      OH2           -30.2713066405       13.6230177139      -16.4309696465  W2        11380           0.0000000000
     34139     11380  TIP3      H1            -30.2068966405       12.8289777139      -15.9003296465  W2        11380           0.0000000000
     34140     11380  TIP3      H2            -29.6183866405       13.5042977139      -17.1207696465  W2        11380           0.0000000000
     34141     11381  TIP3      OH2           -27.9570666405       13.2492577139        0.8692103535  W2        11381           0.0000000000
     34142     11381  TIP3      H1            -28.2856866405       13.5200677139        0.0119503535  W2        11381           0.0000000000
     34143     11381  TIP3      H2            -27.8052466405       12.3082377139        0.7817103535  W2        11381           0.0000000000
     34144     11382  TIP3      OH2           -24.9189666405       14.6701877139      -16.6951696465  W2        11382           0.0000000000
     34145     11382  TIP3      H1            -25.1875566405       14.8503977139      -15.7942796465  W2        11382           0.0000000000
     34146     11382  TIP3      H2            -25.1254066405       13.7448077139      -16.8265896465  W2        11382           0.0000000000
     34147     11383  TIP3      OH2           -22.2225466405       13.1649877139       -1.7475596465  W2        11383           0.0000000000
     34148     11383  TIP3      H1            -21.4770666405       13.7533577139       -1.8671596465  W2        11383           0.0000000000
     34149     11383  TIP3      H2            -22.9798666405       13.7469577139       -1.6842496465  W2        11383           0.0000000000
     34150     11384  TIP3      OH2           -33.7800266405       10.4797777139        0.8565003535  W2        11384           0.0000000000
     34151     11384  TIP3      H1            -33.3719066405        9.6224377139        0.7355603535  W2        11384           0.0000000000
     34152     11384  TIP3      H2            -34.0402666405       10.4939077139        1.7775303535  W2        11384           0.0000000000
     34153     11385  TIP3      OH2           -29.1219266405       11.5956377139      -14.1251696465  W2        11385           0.0000000000
     34154     11385  TIP3      H1            -29.5817266405       11.1114677139      -13.4393196465  W2        11385           0.0000000000
     34155     11385  TIP3      H2            -28.8670566405       10.9271777139      -14.7611196465  W2        11385           0.0000000000
     34156     11386  TIP3      OH2           -29.8329966405        9.4883477139       -1.7692096465  W2        11386           0.0000000000
     34157     11386  TIP3      H1            -30.4513866405       10.1630077139       -1.4887396465  W2        11386           0.0000000000
     34158     11386  TIP3      H2            -29.4888766405        9.8097377139       -2.6025896465  W2        11386           0.0000000000
     34159     11387  TIP3      OH2           -28.0508866405        9.8388177139      -15.8628496465  W2        11387           0.0000000000
     34160     11387  TIP3      H1            -28.2313866405        9.6839377139      -16.7900196465  W2        11387           0.0000000000
     34161     11387  TIP3      H2            -27.1008366405        9.9466877139      -15.8180596465  W2        11387           0.0000000000
     34162     11388  TIP3      OH2           -24.8131766405       11.9598777139        1.5082703535  W2        11388           0.0000000000
     34163     11388  TIP3      H1            -23.8600566405       12.0437877139        1.4808703535  W2        11388           0.0000000000
     34164     11388  TIP3      H2            -24.9737166405       11.2480577139        2.1277603535  W2        11388           0.0000000000
     34165     11389  TIP3      OH2           -18.6610566405       12.1932377139      -16.4170396465  W2        11389           0.0000000000
     34166     11389  TIP3      H1            -18.9345766405       11.7687877139      -17.2302096465  W2        11389           0.0000000000
     34167     11389  TIP3      H2            -18.6216466405       13.1246877139      -16.6339996465  W2        11389           0.0000000000
     34168     11390  TIP3      OH2           -29.4936266405        6.8434277139       -0.6868996465  W2        11390           0.0000000000
     34169     11390  TIP3      H1            -29.3435366405        6.1145577139       -1.2889296465  W2        11390           0.0000000000
     34170     11390  TIP3      H2            -29.4913866405        7.6205977139       -1.2456796465  W2        11390           0.0000000000
     34171     11391  TIP3      OH2           -29.0810566405        5.2130077139       -3.1941596465  W2        11391           0.0000000000
     34172     11391  TIP3      H1            -28.5453066405        5.6646777139       -3.8462296465  W2        11391           0.0000000000
     34173     11391  TIP3      H2            -29.9330966405        5.1049877139       -3.6167496465  W2        11391           0.0000000000
     34174     11392  TIP3      OH2           -27.4992166405       10.6526277139       -2.9546396465  W2        11392           0.0000000000
     34175     11392  TIP3      H1            -26.7487366405       10.4963777139       -3.5278596465  W2        11392           0.0000000000
     34176     11392  TIP3      H2            -27.8383866405       11.5042877139       -3.2300896465  W2        11392           0.0000000000
     34177     11393  TIP3      OH2           -23.0835966405        8.4678077139        2.0738903535  W2        11393           0.0000000000
     34178     11393  TIP3      H1            -22.8914666405        7.5367477139        1.9623403535  W2        11393           0.0000000000
     34179     11393  TIP3      H2            -22.2259666405        8.8927577139        2.0634303535  W2        11393           0.0000000000
     34180     11394  TIP3      OH2           -21.7668766405       11.2563277139        0.1511603535  W2        11394           0.0000000000
     34181     11394  TIP3      H1            -22.0483766405       11.9657877139       -0.4264596465  W2        11394           0.0000000000
     34182     11394  TIP3      H2            -20.8244466405       11.1836277139        0.0002803535  W2        11394           0.0000000000
     34183     11395  TIP3      OH2           -31.0149966405        8.0417777139        1.2246603535  W2        11395           0.0000000000
     34184     11395  TIP3      H1            -31.7820966405        7.5092577139        1.0144203535  W2        11395           0.0000000000
     34185     11395  TIP3      H2            -30.3360966405        7.7318177139        0.6252903535  W2        11395           0.0000000000
     34186     11396  TIP3      OH2           -28.2755066405        2.6695777139       -2.7627996465  W2        11396           0.0000000000
     34187     11396  TIP3      H1            -28.3735466405        3.6158977139       -2.8681796465  W2        11396           0.0000000000
     34188     11396  TIP3      H2            -29.0178866405        2.2969577139       -3.2384496465  W2        11396           0.0000000000
     34189     11397  TIP3      OH2           -27.0114566405        6.9911177139        0.8010403535  W2        11397           0.0000000000
     34190     11397  TIP3      H1            -27.2469166405        6.7717877139        1.7025303535  W2        11397           0.0000000000
     34191     11397  TIP3      H2            -27.7947666405        6.7842377139        0.2912903535  W2        11397           0.0000000000
     34192     11398  TIP3      OH2           -24.2957966405        6.1184677139       -0.1236096465  W2        11398           0.0000000000
     34193     11398  TIP3      H1            -25.2432566405        6.1504377139        0.0087203535  W2        11398           0.0000000000
     34194     11398  TIP3      H2            -23.9831266405        5.4931777139        0.5302103535  W2        11398           0.0000000000
     34195     11399  TIP3      OH2           -22.6616466405        4.7525777139        1.8815803535  W2        11399           0.0000000000
     34196     11399  TIP3      H1            -22.7584666405        3.8003077139        1.8757703535  W2        11399           0.0000000000
     34197     11399  TIP3      H2            -22.9833366405        5.0212577139        2.7421303535  W2        11399           0.0000000000
     34198     11400  TIP3      OH2           -32.8347166405        5.9621577139        0.9291303535  W2        11400           0.0000000000
     34199     11400  TIP3      H1            -32.6229766405        5.2557677139        0.3188803535  W2        11400           0.0000000000
     34200     11400  TIP3      H2            -32.9459666405        5.5247577139        1.7732503535  W2        11400           0.0000000000
     34201     11401  TIP3      OH2           -28.0536966405        1.9633177139       -0.0915196465  W2        11401           0.0000000000
     34202     11401  TIP3      H1            -27.3418566405        1.3235377139       -0.1056096465  W2        11401           0.0000000000
     34203     11401  TIP3      H2            -28.1546566405        2.2301477139       -1.0052096465  W2        11401           0.0000000000
     34204     11402  TIP3      OH2           -27.6999466405        3.6461577139        1.9621103535  W2        11402           0.0000000000
     34205     11402  TIP3      H1            -27.8317266405        3.1705377139        1.1419603535  W2        11402           0.0000000000
     34206     11402  TIP3      H2            -28.2992066405        4.3905177139        1.9068203535  W2        11402           0.0000000000
     34207     11403  TIP3      OH2           -28.1537166405       20.5291877139      -14.8614896465  W2        11403           0.0000000000
     34208     11403  TIP3      H1            -27.2206466405       20.6870577139      -14.7176496465  W2        11403           0.0000000000
     34209     11403  TIP3      H2            -28.4178366405       21.2044877139      -15.4863396465  W2        11403           0.0000000000
     34210     11404  TIP3      OH2           -34.5852266405       15.1655677139      -15.3786796465  W2        11404           0.0000000000
     34211     11404  TIP3      H1            -33.6713066405       15.2444577139      -15.1052896465  W2        11404           0.0000000000
     34212     11404  TIP3      H2            -34.5779166405       14.4785277139      -16.0451196465  W2        11404           0.0000000000
     34213     11405  TIP3      OH2           -35.9361666405       20.5584177139      -10.3012896465  W2        11405           0.0000000000
     34214     11405  TIP3      H1            -36.5834566405       20.0965877139      -10.8341696465  W2        11405           0.0000000000
     34215     11405  TIP3      H2            -35.5817066405       19.8867477139       -9.7186696465  W2        11405           0.0000000000
     34216     11406  TIP3      OH2           -35.0662466405       18.6391177139       -8.4966696465  W2        11406           0.0000000000
     34217     11406  TIP3      H1            -35.4005666405       17.7588477139       -8.3246496465  W2        11406           0.0000000000
     34218     11406  TIP3      H2            -34.8440066405       18.9846177139       -7.6321096465  W2        11406           0.0000000000
     34219     11407  TIP3      OH2           -17.5177666405       19.4487577139       -5.5161896465  W2        11407           0.0000000000
     34220     11407  TIP3      H1            -17.5390966405       19.6335977139       -4.5772496465  W2        11407           0.0000000000
     34221     11407  TIP3      H2            -16.8271466405       20.0171577139       -5.8570496465  W2        11407           0.0000000000
     34222     11408  TIP3      OH2           -17.9544766405       19.0158677139       -2.5942796465  W2        11408           0.0000000000
     34223     11408  TIP3      H1            -18.4416066405       18.2802777139       -2.9655396465  W2        11408           0.0000000000
     34224     11408  TIP3      H2            -17.4052066405       18.6222577139       -1.9163396465  W2        11408           0.0000000000
     34225     11409  TIP3      OH2           -19.5037466405       14.8056777139        2.0437503535  W2        11409           0.0000000000
     34226     11409  TIP3      H1            -20.3696366405       14.7006477139        2.4379803535  W2        11409           0.0000000000
     34227     11409  TIP3      H2            -19.1271566405       15.5640077139        2.4902203535  W2        11409           0.0000000000
     34228     11410  TIP3      OH2           -18.2027766405       13.0620477139      -12.4419996465  W2        11410           0.0000000000
     34229     11410  TIP3      H1            -17.3526366405       13.4831377139      -12.3148396465  W2        11410           0.0000000000
     34230     11410  TIP3      H2            -18.1972666405       12.3220577139      -11.8348596465  W2        11410           0.0000000000
     34231     11411  TIP3      OH2           -17.8082166405       11.1157877139      -10.6184296465  W2        11411           0.0000000000
     34232     11411  TIP3      H1            -18.5347566405       10.6360477139      -10.2206696465  W2        11411           0.0000000000
     34233     11411  TIP3      H2            -17.2268866405       11.3212577139       -9.8862696465  W2        11411           0.0000000000
     34234     11412  TIP3      OH2           -18.0490966405       13.9005377139       -5.6706696465  W2        11412           0.0000000000
     34235     11412  TIP3      H1            -17.2156766405       13.5225377139       -5.9513096465  W2        11412           0.0000000000
     34236     11412  TIP3      H2            -17.9370666405       14.8436577139       -5.7897596465  W2        11412           0.0000000000
     34237     11413  TIP3      OH2           -19.5628666405       16.7782877139       -3.3638296465  W2        11413           0.0000000000
     34238     11413  TIP3      H1            -20.2103366405       17.1034377139       -2.7383096465  W2        11413           0.0000000000
     34239     11413  TIP3      H2            -20.0804666405       16.3380577139       -4.0379996465  W2        11413           0.0000000000
     34240     11414  TIP3      OH2           -17.5399066405       11.0166377139      -14.2272996465  W2        11414           0.0000000000
     34241     11414  TIP3      H1            -18.0617966405       11.3730477139      -14.9462096465  W2        11414           0.0000000000
     34242     11414  TIP3      H2            -17.5729866405       11.6914177139      -13.5492096465  W2        11414           0.0000000000
     34243     11415  TIP3      OH2           -19.1910066405        8.2561977139      -15.6765896465  W2        11415           0.0000000000
     34244     11415  TIP3      H1            -19.0945666405        8.9228977139      -16.3566196465  W2        11415           0.0000000000
     34245     11415  TIP3      H2            -19.3310466405        7.4408277139      -16.1580396465  W2        11415           0.0000000000
     34246     11416  TIP3      OH2           -20.0215366405        9.6364377139      -10.0555596465  W2        11416           0.0000000000
     34247     11416  TIP3      H1            -20.1716566405        8.6912977139      -10.0757796465  W2        11416           0.0000000000
     34248     11416  TIP3      H2            -20.3750866405        9.9175777139       -9.2116496465  W2        11416           0.0000000000
     34249     11417  TIP3      OH2           -34.9862966405       11.7146577139       -6.0451796465  W2        11417           0.0000000000
     34250     11417  TIP3      H1            -34.8020066405       11.6328277139       -6.9808896465  W2        11417           0.0000000000
     34251     11417  TIP3      H2            -34.1370066405       11.5903577139       -5.6215396465  W2        11417           0.0000000000
     34252     11418  TIP3      OH2           -19.1652466405       11.6067677139       -0.4167296465  W2        11418           0.0000000000
     34253     11418  TIP3      H1            -18.5825166405       10.8719977139       -0.2250096465  W2        11418           0.0000000000
     34254     11418  TIP3      H2            -18.6013166405       12.3787977139       -0.3701496465  W2        11418           0.0000000000
     34255     11419  TIP3      OH2           -17.6685366405        9.5093477139        0.2678103535  W2        11419           0.0000000000
     34256     11419  TIP3      H1            -18.5318666405        9.1305577139        0.1022803535  W2        11419           0.0000000000
     34257     11419  TIP3      H2            -17.0641666405        8.7708277139        0.1933903535  W2        11419           0.0000000000
     34258     11420  TIP3      OH2           -19.9436266405        5.6641777139      -16.5590396465  W2        11420           0.0000000000
     34259     11420  TIP3      H1            -19.3330466405        5.2928577139      -15.9222196465  W2        11420           0.0000000000
     34260     11420  TIP3      H2            -20.7804766405        5.2428677139      -16.3630396465  W2        11420           0.0000000000
     34261     11421  TIP3      OH2           -20.3110566405        7.2190177139      -11.5930496465  W2        11421           0.0000000000
     34262     11421  TIP3      H1            -20.0313466405        6.3120577139      -11.4688796465  W2        11421           0.0000000000
     34263     11421  TIP3      H2            -19.5518866405        7.6531677139      -11.9821296465  W2        11421           0.0000000000
     34264     11422  TIP3      OH2           -19.6992266405        7.8007577139       -6.1571596465  W2        11422           0.0000000000
     34265     11422  TIP3      H1            -18.7664266405        8.0127477139       -6.1915596465  W2        11422           0.0000000000
     34266     11422  TIP3      H2            -19.9344766405        7.9019677139       -5.2348596465  W2        11422           0.0000000000
     34267     11423  TIP3      OH2           -19.6700366405        8.5372877139       -3.3812196465  W2        11423           0.0000000000
     34268     11423  TIP3      H1            -20.5129066405        8.8053277139       -3.0152396465  W2        11423           0.0000000000
     34269     11423  TIP3      H2            -19.2276066405        9.3594777139       -3.5921096465  W2        11423           0.0000000000
     34270     11424  TIP3      OH2           -35.3888166405        6.9851577139        0.0957003535  W2        11424           0.0000000000
     34271     11424  TIP3      H1            -34.4693266405        6.8629877139        0.3320103535  W2        11424           0.0000000000
     34272     11424  TIP3      H2            -35.8383666405        6.2351277139        0.4850503535  W2        11424           0.0000000000
     34273     11425  TIP3      OH2           -17.3868766405        2.5173077139        1.9722803535  W2        11425           0.0000000000
     34274     11425  TIP3      H1            -17.0371766405        1.8636577139        1.3667503535  W2        11425           0.0000000000
     34275     11425  TIP3      H2            -17.2399266405        3.3547177139        1.5325403535  W2        11425           0.0000000000
     34276     11426  TIP3      OH2           -19.6975766405        4.4819477139      -11.5448496465  W2        11426           0.0000000000
     34277     11426  TIP3      H1            -19.5150766405        4.0330977139      -10.7193496465  W2        11426           0.0000000000
     34278     11426  TIP3      H2            -20.2972866405        3.8973877139      -12.0083896465  W2        11426           0.0000000000
     34279     11427  TIP3      OH2           -34.1675666405        5.2973177139       -7.0130096465  W2        11427           0.0000000000
     34280     11427  TIP3      H1            -33.7224066405        4.5055677139       -6.7110396465  W2        11427           0.0000000000
     34281     11427  TIP3      H2            -33.7012666405        6.0138377139       -6.5824496465  W2        11427           0.0000000000
     34282     11428  TIP3      OH2           -35.8635366405        8.2966177139       -5.9439896465  W2        11428           0.0000000000
     34283     11428  TIP3      H1            -35.3715566405        8.0756677139       -6.7347896465  W2        11428           0.0000000000
     34284     11428  TIP3      H2            -35.5014466405        9.1369577139       -5.6630396465  W2        11428           0.0000000000
     34285     11429  TIP3      OH2           -17.8671566405        4.6267677139        0.3214103535  W2        11429           0.0000000000
     34286     11429  TIP3      H1            -18.7845866405        4.8974777139        0.2857603535  W2        11429           0.0000000000
     34287     11429  TIP3      H2            -17.7442166405        4.0916077139       -0.4626196465  W2        11429           0.0000000000
     34288     11430  TIP3      OH2           -17.8309566405        4.5497577139      -15.0168196465  W2        11430           0.0000000000
     34289     11430  TIP3      H1            -17.4186966405        3.8283277139      -15.4920196465  W2        11430           0.0000000000
     34290     11430  TIP3      H2            -17.1493066405        5.2192177139      -14.9583896465  W2        11430           0.0000000000
     34291     11431  TIP3      OH2           -35.5498866405        4.5545277139      -11.8897496465  W2        11431           0.0000000000
     34292     11431  TIP3      H1            -36.4750466405        4.7631877139      -12.0191996465  W2        11431           0.0000000000
     34293     11431  TIP3      H2            -35.0958966405        5.0386077139      -12.5795196465  W2        11431           0.0000000000
     34294     11432  TIP3      OH2           -20.7791666405       19.5386977139       -9.9440096465  W2        11432           0.0000000000
     34295     11432  TIP3      H1            -20.1268766405       19.1909077139      -10.5520996465  W2        11432           0.0000000000
     34296     11432  TIP3      H2            -20.2687866405       20.0270177139       -9.2980396465  W2        11432           0.0000000000
     34297     11433  TIP3      OH2           -35.5863466405        3.2924277139       -3.5454996465  W2        11433           0.0000000000
     34298     11433  TIP3      H1            -36.2512966405        3.0464577139       -2.9024096465  W2        11433           0.0000000000
     34299     11433  TIP3      H2            -36.0292166405        3.9144677139       -4.1226996465  W2        11433           0.0000000000
     34300     11434  TIP3      OH2           -33.3944166405       16.4678377139        0.5990803535  W2        11434           0.0000000000
     34301     11434  TIP3      H1            -34.2151666405       16.6424877139        0.1385503535  W2        11434           0.0000000000
     34302     11434  TIP3      H2            -33.6466366405       16.3943077139        1.5195203535  W2        11434           0.0000000000
     34303     11435  TIP3      OH2           -30.4401266405       17.4419577139       -3.1425196465  W2        11435           0.0000000000
     34304     11435  TIP3      H1            -30.8650166405       18.2518077139       -3.4250596465  W2        11435           0.0000000000
     34305     11435  TIP3      H2            -29.5358466405       17.5273677139       -3.4445396465  W2        11435           0.0000000000
     34306     11436  TIP3      OH2           -26.1289866405       18.8409577139       -0.1831496465  W2        11436           0.0000000000
     34307     11436  TIP3      H1            -25.9442366405       18.5075677139        0.6948803535  W2        11436           0.0000000000
     34308     11436  TIP3      H2            -25.2825366405       19.1508177139       -0.5052296465  W2        11436           0.0000000000
     34309     11437  TIP3      OH2           -23.7839466405       20.1268477139       -0.9390096465  W2        11437           0.0000000000
     34310     11437  TIP3      H1            -23.1070566405       19.4940777139       -1.1790896465  W2        11437           0.0000000000
     34311     11437  TIP3      H2            -23.4620666405       20.5278977139       -0.1316796465  W2        11437           0.0000000000
     34312     11438  TIP3      OH2           -18.8665666405        2.7163977139       -1.8595096465  W2        11438           0.0000000000
     34313     11438  TIP3      H1            -19.6792166405        3.0414277139       -2.2470396465  W2        11438           0.0000000000
     34314     11438  TIP3      H2            -18.6337166405        1.9562477139       -2.3925996465  W2        11438           0.0000000000
     34315     11439  TIP3      OH2           -33.0384566405       20.6983477139       -3.0949896465  W2        11439           0.0000000000
     34316     11439  TIP3      H1            -33.7588166405       21.1384477139       -3.5462196465  W2        11439           0.0000000000
     34317     11439  TIP3      H2            -33.4040566405       20.4478177139       -2.2465896465  W2        11439           0.0000000000
     34318     11440  TIP3      OH2           -30.5711966405       20.2987377139       -4.0652696465  W2        11440           0.0000000000
     34319     11440  TIP3      H1            -31.4359766405       20.3705877139       -3.6612596465  W2        11440           0.0000000000
     34320     11440  TIP3      H2            -30.6262966405       20.8454677139       -4.8490196465  W2        11440           0.0000000000
     34321     11441  TIP3      OH2           -25.8606366405       20.1866277139       -4.8896696465  W2        11441           0.0000000000
     34322     11441  TIP3      H1            -26.3172366405       20.7155977139       -5.5438296465  W2        11441           0.0000000000
     34323     11441  TIP3      H2            -25.6978366405       20.7897677139       -4.1644396465  W2        11441           0.0000000000
     34324     11442  TIP3      OH2           -23.5330066405       19.0645877139       -3.9446396465  W2        11442           0.0000000000
     34325     11442  TIP3      H1            -24.4376366405       19.2296077139       -4.2104296465  W2        11442           0.0000000000
     34326     11442  TIP3      H2            -23.1041466405       19.9178077139       -4.0102996465  W2        11442           0.0000000000
     34327     11443  TIP3      OH2           -20.9288166405       20.6344977139       -3.6498596465  W2        11443           0.0000000000
     34328     11443  TIP3      H1            -21.1106166405       21.5503877139       -3.8603696465  W2        11443           0.0000000000
     34329     11443  TIP3      H2            -20.7520366405       20.2242077139       -4.4963996465  W2        11443           0.0000000000
     34330     11444  TIP3      OH2           -33.6236466405       19.3215977139       -6.1848096465  W2        11444           0.0000000000
     34331     11444  TIP3      H1            -33.6420466405       18.8961077139       -5.3275796465  W2        11444           0.0000000000
     34332     11444  TIP3      H2            -32.8188566405       19.0030977139       -6.5935896465  W2        11444           0.0000000000
     34333     11445  TIP3      OH2           -31.4823366405       18.0314677139       -7.5298196465  W2        11445           0.0000000000
     34334     11445  TIP3      H1            -31.7012666405       17.1152077139       -7.3602196465  W2        11445           0.0000000000
     34335     11445  TIP3      H2            -30.6581166405       18.1715077139       -7.0636796465  W2        11445           0.0000000000
     34336     11446  TIP3      OH2           -28.9450866405       18.5013977139       -6.6810196465  W2        11446           0.0000000000
     34337     11446  TIP3      H1            -28.7325166405       17.6132977139       -6.9679296465  W2        11446           0.0000000000
     34338     11446  TIP3      H2            -28.8805766405       18.4671677139       -5.7266196465  W2        11446           0.0000000000
     34339     11447  TIP3      OH2           -25.4367166405        4.1654577139       -7.5366896465  W2        11447           0.0000000000
     34340     11447  TIP3      H1            -26.1110366405        3.5360177139       -7.2811096465  W2        11447           0.0000000000
     34341     11447  TIP3      H2            -24.8727966405        3.6813477139       -8.1398996465  W2        11447           0.0000000000
     34342     11448  TIP3      OH2           -20.2939966405        2.2728577139       -7.4239796465  W2        11448           0.0000000000
     34343     11448  TIP3      H1            -19.6902366405        2.8203977139       -7.9258796465  W2        11448           0.0000000000
     34344     11448  TIP3      H2            -21.1637966405        2.5918977139       -7.6645696465  W2        11448           0.0000000000
     34345     11449  TIP3      OH2           -18.5669566405        3.4117277139       -9.0908896465  W2        11449           0.0000000000
     34346     11449  TIP3      H1            -17.9552066405        2.8972977139       -9.6175296465  W2        11449           0.0000000000
     34347     11449  TIP3      H2            -18.1846166405        4.2889377139       -9.0674496465  W2        11449           0.0000000000
     34348     11450  TIP3      OH2           -33.1099666405        2.7994877139       -9.7146996465  W2        11450           0.0000000000
     34349     11450  TIP3      H1            -33.8869866405        2.5649777139      -10.2221096465  W2        11450           0.0000000000
     34350     11450  TIP3      H2            -32.5796066405        2.0026977139       -9.7058996465  W2        11450           0.0000000000
     34351     11451  TIP3      OH2           -34.2736266405        2.5972977139      -13.9110896465  W2        11451           0.0000000000
     34352     11451  TIP3      H1            -33.8345566405        3.2083477139      -14.5027396465  W2        11451           0.0000000000
     34353     11451  TIP3      H2            -34.9073866405        3.1357077139      -13.4370896465  W2        11451           0.0000000000
     34354     11452  TIP3      OH2           -28.5307066405        2.7261977139       -9.9013896465  W2        11452           0.0000000000
     34355     11452  TIP3      H1            -27.6563666405        3.1146277139       -9.9309596465  W2        11452           0.0000000000
     34356     11452  TIP3      H2            -28.6666266405        2.5109777139       -8.9786696465  W2        11452           0.0000000000
     34357     11453  TIP3      OH2           -22.9738666405        2.7561777139       -8.2522196465  W2        11453           0.0000000000
     34358     11453  TIP3      H1            -22.8977066405        2.8513377139       -9.2016196465  W2        11453           0.0000000000
     34359     11453  TIP3      H2            -23.2489466405        1.8484677139       -8.1233096465  W2        11453           0.0000000000
     34360     11454  TIP3      OH2           -21.6206066405        2.7819577139      -12.5597196465  W2        11454           0.0000000000
     34361     11454  TIP3      H1            -22.3234966405        3.3968777139      -12.7695796465  W2        11454           0.0000000000
     34362     11454  TIP3      H2            -22.0654666405        1.9446277139      -12.4286296465  W2        11454           0.0000000000
     34363     11455  TIP3      OH2           -34.3726766405       18.5455177139      -13.0135796465  W2        11455           0.0000000000
     34364     11455  TIP3      H1            -35.0576866405       18.5074077139      -13.6810696465  W2        11455           0.0000000000
     34365     11455  TIP3      H2            -34.3689566405       19.4582777139      -12.7253696465  W2        11455           0.0000000000
     34366     11456  TIP3      OH2           -32.4127166405        4.5134477139      -15.4686796465  W2        11456           0.0000000000
     34367     11456  TIP3      H1            -31.9213766405        3.8836877139      -15.9961296465  W2        11456           0.0000000000
     34368     11456  TIP3      H2            -31.7890866405        4.8093877139      -14.8055596465  W2        11456           0.0000000000
     34369     11457  TIP3      OH2           -27.3867066405        4.8065977139      -13.0116296465  W2        11457           0.0000000000
     34370     11457  TIP3      H1            -27.2085766405        4.1599177139      -12.3287696465  W2        11457           0.0000000000
     34371     11457  TIP3      H2            -27.4400866405        5.6403677139      -12.5445196465  W2        11457           0.0000000000
     34372     11458  TIP3      OH2           -25.5083266405       19.7550077139      -14.6159596465  W2        11458           0.0000000000
     34373     11458  TIP3      H1            -24.6423066405       20.1217477139      -14.7941396465  W2        11458           0.0000000000
     34374     11458  TIP3      H2            -25.7550466405       19.3158077139      -15.4298796465  W2        11458           0.0000000000
     34375     11459  TIP3      OH2           -18.7993666405       19.3180377139      -11.9368496465  W2        11459           0.0000000000
     34376     11459  TIP3      H1            -18.9936566405       18.5702477139      -12.5018896465  W2        11459           0.0000000000
     34377     11459  TIP3      H2            -18.8383566405       20.0760477139      -12.5200596465  W2        11459           0.0000000000
     34378     11460  TIP3      OH2           -33.1521666405        3.3136777139       -0.1970796465  W2        11460           0.0000000000
     34379     11460  TIP3      H1            -33.5183466405        2.5479377139        0.2453903535  W2        11460           0.0000000000
     34380     11460  TIP3      H2            -32.2393166405        3.3426977139        0.0894303535  W2        11460           0.0000000000
     34381     11461  TIP3      OH2           -31.1790866405        2.6641177139        1.3386303535  W2        11461           0.0000000000
     34382     11461  TIP3      H1            -30.2807266405        2.3901377139        1.1539703535  W2        11461           0.0000000000
     34383     11461  TIP3      H2            -31.5657766405        1.9217177139        1.8028903535  W2        11461           0.0000000000
     34384     11462  TIP3      OH2           -32.5545566405       19.4655977139      -15.9883696465  W2        11462           0.0000000000
     34385     11462  TIP3      H1            -32.8220966405       19.7518877139      -15.1150596465  W2        11462           0.0000000000
     34386     11462  TIP3      H2            -31.7832966405       18.9195177139      -15.8361196465  W2        11462           0.0000000000
     34387     11463  TIP3      OH2           -22.7578566405        1.9966477139        1.5209103535  W2        11463           0.0000000000
     34388     11463  TIP3      H1            -22.6811366405        1.5707177139        2.3746803535  W2        11463           0.0000000000
     34389     11463  TIP3      H2            -21.8641966405        2.0101177139        1.1782603535  W2        11463           0.0000000000
     34390     11464  TIP3      OH2           -19.5817466405       18.0692777139        0.2133303535  W2        11464           0.0000000000
     34391     11464  TIP3      H1            -20.3635566405       17.8830777139       -0.3066096465  W2        11464           0.0000000000
     34392     11464  TIP3      H2            -19.6537566405       18.9987077139        0.4305803535  W2        11464           0.0000000000
     34393     11465  TIP3      OH2            -5.1757066405       11.9557177139       -9.7559496465  W2        11465           0.0000000000
     34394     11465  TIP3      H1             -5.0865966405       12.8995377139       -9.8882396465  W2        11465           0.0000000000
     34395     11465  TIP3      H2             -5.8139466405       11.6803577139      -10.4140096465  W2        11465           0.0000000000
     34396     11466  TIP3      OH2            -6.2425766405       11.2107877139       -6.3371296465  W2        11466           0.0000000000
     34397     11466  TIP3      H1             -6.2808266405       10.5644177139       -5.6321696465  W2        11466           0.0000000000
     34398     11466  TIP3      H2             -6.5649266405       10.7442277139       -7.1082596465  W2        11466           0.0000000000
     34399     11467  TIP3      OH2           -13.8740766405       10.8249977139       -4.7441396465  W2        11467           0.0000000000
     34400     11467  TIP3      H1            -13.8328666405       10.1993277139       -4.0208996465  W2        11467           0.0000000000
     34401     11467  TIP3      H2            -13.1713066405       11.4488577139       -4.5620996465  W2        11467           0.0000000000
     34402     11468  TIP3      OH2            -2.5365566405       14.1498277139       -8.0356196465  W2        11468           0.0000000000
     34403     11468  TIP3      H1             -2.9772866405       13.4294277139       -7.5850596465  W2        11468           0.0000000000
     34404     11468  TIP3      H2             -2.5495866405       14.8705477139       -7.4058496465  W2        11468           0.0000000000
     34405     11469  TIP3      OH2           -12.9507666405       15.2748877139       -6.2092296465  W2        11469           0.0000000000
     34406     11469  TIP3      H1            -13.3202466405       14.4729377139       -6.5787996465  W2        11469           0.0000000000
     34407     11469  TIP3      H2            -12.0096566405       15.1063777139       -6.1628896465  W2        11469           0.0000000000
     34408     11470  TIP3      OH2           -16.3407166405        8.9351477139      -10.8163496465  W2        11470           0.0000000000
     34409     11470  TIP3      H1            -16.7883766405        9.7810177139      -10.8346996465  W2        11470           0.0000000000
     34410     11470  TIP3      H2            -16.9015966405        8.3555677139      -11.3318396465  W2        11470           0.0000000000
     34411     11471  TIP3      OH2           -15.6301066405       11.0971077139       -8.6905496465  W2        11471           0.0000000000
     34412     11471  TIP3      H1            -15.4167566405       10.3272677139       -8.1632496465  W2        11471           0.0000000000
     34413     11471  TIP3      H2            -14.8923466405       11.1867777139       -9.2937896465  W2        11471           0.0000000000
     34414     11472  TIP3      OH2            -5.4250066405       19.2539977139       -7.8235796465  W2        11472           0.0000000000
     34415     11472  TIP3      H1             -4.8053666405       18.5774677139       -8.0966596465  W2        11472           0.0000000000
     34416     11472  TIP3      H2             -5.6332666405       19.0360777139       -6.9150896465  W2        11472           0.0000000000
     34417     11473  TIP3      OH2            -7.8531366405       13.6429277139       -5.9310296465  W2        11473           0.0000000000
     34418     11473  TIP3      H1             -7.5493466405       12.9570677139       -6.5256196465  W2        11473           0.0000000000
     34419     11473  TIP3      H2             -7.1317366405       13.7617977139       -5.3132296465  W2        11473           0.0000000000
     34420     11474  TIP3      OH2             0.8098433595        5.2444577139       -5.0704096465  W2        11474           0.0000000000
     34421     11474  TIP3      H1              0.8590633595        5.8545777139       -4.3344996465  W2        11474           0.0000000000
     34422     11474  TIP3      H2              1.2353533595        5.7055477139       -5.7932996465  W2        11474           0.0000000000
     34423     11475  TIP3      OH2            -4.7124366405        8.0371677139       -5.6035496465  W2        11475           0.0000000000
     34424     11475  TIP3      H1             -4.5698466405        7.0908677139       -5.5833896465  W2        11475           0.0000000000
     34425     11475  TIP3      H2             -4.8185366405        8.2441477139       -6.5320596465  W2        11475           0.0000000000
     34426     11476  TIP3      OH2           -11.5576066405        6.1388077139       -8.3310696465  W2        11476           0.0000000000
     34427     11476  TIP3      H1            -11.5144966405        6.9986577139       -8.7494396465  W2        11476           0.0000000000
     34428     11476  TIP3      H2            -12.0151966405        5.5862777139       -8.9647496465  W2        11476           0.0000000000
     34429     11477  TIP3      OH2            -3.8353366405        6.2693677139       -9.9302396465  W2        11477           0.0000000000
     34430     11477  TIP3      H1             -3.1889066405        5.9406877139       -9.3054796465  W2        11477           0.0000000000
     34431     11477  TIP3      H2             -3.3253966405        6.7872677139      -10.5530996465  W2        11477           0.0000000000
     34432     11478  TIP3      OH2           -14.9374566405        8.5353877139       -7.5689296465  W2        11478           0.0000000000
     34433     11478  TIP3      H1            -14.2837966405        7.9855577139       -7.1369196465  W2        11478           0.0000000000
     34434     11478  TIP3      H2            -14.9135266405        8.2612877139       -8.4857296465  W2        11478           0.0000000000
     34435     11479  TIP3      OH2            -9.7810066405       10.0855177139       -8.3537796465  W2        11479           0.0000000000
     34436     11479  TIP3      H1             -9.1649066405        9.5590577139       -7.8443796465  W2        11479           0.0000000000
     34437     11479  TIP3      H2            -10.3671266405        9.4453877139       -8.7574196465  W2        11479           0.0000000000
     34438     11480  TIP3      OH2             1.2013033595        6.7223777139       -2.8344296465  W2        11480           0.0000000000
     34439     11480  TIP3      H1              0.5127633595        7.3804477139       -2.9297696465  W2        11480           0.0000000000
     34440     11480  TIP3      H2              1.2167633595        6.5251677139       -1.8978896465  W2        11480           0.0000000000
     34441     11481  TIP3      OH2           -12.7474166405        5.0566477139       -4.2569896465  W2        11481           0.0000000000
     34442     11481  TIP3      H1            -12.9662466405        5.5867077139       -5.0233896465  W2        11481           0.0000000000
     34443     11481  TIP3      H2            -13.4153266405        5.2831977139       -3.6098496465  W2        11481           0.0000000000
     34444     11482  TIP3      OH2            -5.3784366405       14.5567577139      -10.7130796465  W2        11482           0.0000000000
     34445     11482  TIP3      H1             -5.6739266405       14.2339877139      -11.5643896465  W2        11482           0.0000000000
     34446     11482  TIP3      H2             -5.7026566405       15.4564277139      -10.6718196465  W2        11482           0.0000000000
     34447     11483  TIP3      OH2           -10.1782766405       12.7322177139       -3.9696196465  W2        11483           0.0000000000
     34448     11483  TIP3      H1            -10.9183666405       13.3303677139       -3.8660996465  W2        11483           0.0000000000
     34449     11483  TIP3      H2             -9.4643266405       13.2861777139       -4.2852596465  W2        11483           0.0000000000
     34450     11484  TIP3      OH2            -2.0714966405        5.5602977139       -7.9496496465  W2        11484           0.0000000000
     34451     11484  TIP3      H1             -2.2866966405        4.7946377139       -7.4170496465  W2        11484           0.0000000000
     34452     11484  TIP3      H2             -1.4157566405        6.0327577139       -7.4367996465  W2        11484           0.0000000000
     34453     11485  TIP3      OH2           -13.1536866405        6.9488277139       -6.3047696465  W2        11485           0.0000000000
     34454     11485  TIP3      H1            -12.5400566405        7.5815877139       -5.9315296465  W2        11485           0.0000000000
     34455     11485  TIP3      H2            -12.6416166405        6.4763277139       -6.9610796465  W2        11485           0.0000000000
     34456     11486  TIP3      OH2           -11.7708466405       14.6965177139       -3.1824696465  W2        11486           0.0000000000
     34457     11486  TIP3      H1            -11.7760866405       15.5758677139       -3.5605396465  W2        11486           0.0000000000
     34458     11486  TIP3      H2            -12.6244366405       14.6129277139       -2.7574796465  W2        11486           0.0000000000
     34459     11487  TIP3      OH2           -15.6497566405       14.3673077139      -12.4005396465  W2        11487           0.0000000000
     34460     11487  TIP3      H1            -15.9216666405       14.5964077139      -13.2892496465  W2        11487           0.0000000000
     34461     11487  TIP3      H2            -15.6041866405       15.2051877139      -11.9400096465  W2        11487           0.0000000000
     34462     11488  TIP3      OH2            -2.0247866405       15.9888977139       -5.6876896465  W2        11488           0.0000000000
     34463     11488  TIP3      H1             -2.9664166405       16.0472877139       -5.5259996465  W2        11488           0.0000000000
     34464     11488  TIP3      H2             -1.7481766405       16.8949477139       -5.8247196465  W2        11488           0.0000000000
     34465     11489  TIP3      OH2            -1.7240866405        4.2754277139       -4.2702996465  W2        11489           0.0000000000
     34466     11489  TIP3      H1             -2.4601666405        4.8861377139       -4.3081696465  W2        11489           0.0000000000
     34467     11489  TIP3      H2             -1.0406866405        4.6903277139       -4.7966596465  W2        11489           0.0000000000
     34468     11490  TIP3      OH2            -8.7209466405        2.3621577139       -6.8044996465  W2        11490           0.0000000000
     34469     11490  TIP3      H1             -8.8385266405        1.4137577139       -6.8586696465  W2        11490           0.0000000000
     34470     11490  TIP3      H2             -9.5759366405        2.6947677139       -6.5313896465  W2        11490           0.0000000000
     34471     11491  TIP3      OH2            -3.7726666405       17.7702477139       -9.0625296465  W2        11491           0.0000000000
     34472     11491  TIP3      H1             -3.3474366405       17.0630377139       -9.5475696465  W2        11491           0.0000000000
     34473     11491  TIP3      H2             -3.4556666405       18.5715177139       -9.4793096465  W2        11491           0.0000000000
     34474     11492  TIP3      OH2            -2.6130166405       15.6710977139      -10.5538696465  W2        11492           0.0000000000
     34475     11492  TIP3      H1             -2.8705366405       14.9811077139      -11.1652796465  W2        11492           0.0000000000
     34476     11492  TIP3      H2             -2.5419366405       15.2282177139       -9.7082796465  W2        11492           0.0000000000
     34477     11493  TIP3      OH2            -0.9269966405       14.2377677139       -2.0765196465  W2        11493           0.0000000000
     34478     11493  TIP3      H1             -0.7873666405       13.6460177139       -2.8158196465  W2        11493           0.0000000000
     34479     11493  TIP3      H2             -0.7597166405       15.1103577139       -2.4326396465  W2        11493           0.0000000000
     34480     11494  TIP3      OH2            -6.4544566405       11.1997177139      -12.3039196465  W2        11494           0.0000000000
     34481     11494  TIP3      H1             -7.1659066405       11.7346877139      -12.6558696465  W2        11494           0.0000000000
     34482     11494  TIP3      H2             -5.7634966405       11.2549277139      -12.9640296465  W2        11494           0.0000000000
     34483     11495  TIP3      OH2            -6.4005366405        9.6571477139      -15.2654196465  W2        11495           0.0000000000
     34484     11495  TIP3      H1             -5.6995466405        9.6798377139      -14.6140196465  W2        11495           0.0000000000
     34485     11495  TIP3      H2             -6.0982466405        9.0291177139      -15.9214896465  W2        11495           0.0000000000
     34486     11496  TIP3      OH2             0.9149333595       10.5775677139       -4.0104796465  W2        11496           0.0000000000
     34487     11496  TIP3      H1              0.2623433595       11.2721277139       -3.9213896465  W2        11496           0.0000000000
     34488     11496  TIP3      H2              1.3799633595       10.7876577139       -4.8203196465  W2        11496           0.0000000000
     34489     11497  TIP3      OH2            -3.0486866405       11.4090477139      -11.3523296465  W2        11497           0.0000000000
     34490     11497  TIP3      H1             -3.7805866405       11.6374177139      -10.7792696465  W2        11497           0.0000000000
     34491     11497  TIP3      H2             -2.6014666405       10.6953177139      -10.8975796465  W2        11497           0.0000000000
     34492     11498  TIP3      OH2            -3.1513366405        9.5833077139       -2.2846296465  W2        11498           0.0000000000
     34493     11498  TIP3      H1             -3.0714266405       10.3467477139       -1.7127796465  W2        11498           0.0000000000
     34494     11498  TIP3      H2             -3.7525666405        9.8625477139       -2.9751196465  W2        11498           0.0000000000
     34495     11499  TIP3      OH2           -11.4033166405       12.0396677139       -9.4698296465  W2        11499           0.0000000000
     34496     11499  TIP3      H1            -11.7337966405       11.6690077139      -10.2881296465  W2        11499           0.0000000000
     34497     11499  TIP3      H2            -10.8149066405       11.3690677139       -9.1229996465  W2        11499           0.0000000000
     34498     11500  TIP3      OH2           -10.0365666405       15.4677277139       -6.7886096465  W2        11500           0.0000000000
     34499     11500  TIP3      H1            -10.1314366405       14.8890377139       -7.5451496465  W2        11500           0.0000000000
     34500     11500  TIP3      H2             -9.3072066405       15.0962977139       -6.2923296465  W2        11500           0.0000000000
     34501     11501  TIP3      OH2           -11.0367666405       10.8082277139       -5.8363296465  W2        11501           0.0000000000
     34502     11501  TIP3      H1            -10.4715166405       10.9296477139       -6.5992096465  W2        11501           0.0000000000
     34503     11501  TIP3      H2            -10.7178766405       11.4457277139       -5.1974796465  W2        11501           0.0000000000
     34504     11502  TIP3      OH2            -4.7275466405       16.3114177139       -5.1022796465  W2        11502           0.0000000000
     34505     11502  TIP3      H1             -4.9678866405       16.9737277139       -4.4543596465  W2        11502           0.0000000000
     34506     11502  TIP3      H2             -4.9257266405       15.4769377139       -4.6773196465  W2        11502           0.0000000000
     34507     11503  TIP3      OH2           -10.1566966405       15.2074977139       -1.1191396465  W2        11503           0.0000000000
     34508     11503  TIP3      H1            -10.4679466405       15.9898177139       -0.6638196465  W2        11503           0.0000000000
     34509     11503  TIP3      H2            -10.8066766405       15.0544077139       -1.8049396465  W2        11503           0.0000000000
     34510     11504  TIP3      OH2            -4.1777366405       10.5713377139      -13.6672096465  W2        11504           0.0000000000
     34511     11504  TIP3      H1             -3.5981866405       10.7213677139      -12.9203196465  W2        11504           0.0000000000
     34512     11504  TIP3      H2             -3.7637366405       11.0420777139      -14.3905696465  W2        11504           0.0000000000
     34513     11505  TIP3      OH2           -13.2367066405       11.4056077139       -1.8905696465  W2        11505           0.0000000000
     34514     11505  TIP3      H1            -13.1663866405       12.0562877139       -1.1920696465  W2        11505           0.0000000000
     34515     11505  TIP3      H2            -14.1274866405       11.5083577139       -2.2254796465  W2        11505           0.0000000000
     34516     11506  TIP3      OH2            -6.4512466405       17.3081877139      -10.2318996465  W2        11506           0.0000000000
     34517     11506  TIP3      H1             -5.9774866405       17.6038177139       -9.4544796465  W2        11506           0.0000000000
     34518     11506  TIP3      H2             -7.0143166405       18.0463477139      -10.4649396465  W2        11506           0.0000000000
     34519     11507  TIP3      OH2           -11.9171066405       17.2789977139       -0.3557596465  W2        11507           0.0000000000
     34520     11507  TIP3      H1            -11.9095766405       17.1429677139       -1.3032096465  W2        11507           0.0000000000
     34521     11507  TIP3      H2            -12.8330666405       17.1618077139       -0.1037596465  W2        11507           0.0000000000
     34522     11508  TIP3      OH2            -0.4788966405        2.3213777139      -13.8542396465  W2        11508           0.0000000000
     34523     11508  TIP3      H1             -1.3788266405        2.4602777139      -13.5591796465  W2        11508           0.0000000000
     34524     11508  TIP3      H2             -0.2270566405        3.1528377139      -14.2560696465  W2        11508           0.0000000000
     34525     11509  TIP3      OH2           -12.4130466405       11.1090977139      -11.8805496465  W2        11509           0.0000000000
     34526     11509  TIP3      H1            -12.7049166405       11.8772677139      -12.3714196465  W2        11509           0.0000000000
     34527     11509  TIP3      H2            -13.0875266405       10.4497177139      -12.0434096465  W2        11509           0.0000000000
     34528     11510  TIP3      OH2             0.7102433595       16.6876177139      -15.4778496465  W2        11510           0.0000000000
     34529     11510  TIP3      H1              0.7835933595       17.6266377139      -15.3073196465  W2        11510           0.0000000000
     34530     11510  TIP3      H2              1.6157533595       16.3824777139      -15.5341196465  W2        11510           0.0000000000
     34531     11511  TIP3      OH2           -16.3200366405       13.4720177139       -3.0655696465  W2        11511           0.0000000000
     34532     11511  TIP3      H1            -16.8211966405       13.4439577139       -3.8805996465  W2        11511           0.0000000000
     34533     11511  TIP3      H2            -16.3146666405       12.5663377139       -2.7558396465  W2        11511           0.0000000000
     34534     11512  TIP3      OH2           -16.5697666405       16.2523977139       -6.1815496465  W2        11512           0.0000000000
     34535     11512  TIP3      H1            -15.6237066405       16.1080977139       -6.2005996465  W2        11512           0.0000000000
     34536     11512  TIP3      H2            -16.6821366405       17.0366777139       -5.6444296465  W2        11512           0.0000000000
     34537     11513  TIP3      OH2             1.6280833595       16.9183677139       -0.4991796465  W2        11513           0.0000000000
     34538     11513  TIP3      H1              1.5787633595       15.9631777139       -0.5364196465  W2        11513           0.0000000000
     34539     11513  TIP3      H2              0.8013133595       17.1858977139       -0.0977996465  W2        11513           0.0000000000
     34540     11514  TIP3      OH2            -7.3935166405       16.4922877139       -1.6230396465  W2        11514           0.0000000000
     34541     11514  TIP3      H1             -7.3060566405       17.3187477139       -1.1481296465  W2        11514           0.0000000000
     34542     11514  TIP3      H2             -8.2570066405       16.1626677139       -1.3741096465  W2        11514           0.0000000000
     34543     11515  TIP3      OH2            -6.9789366405       20.2646577139      -11.8169796465  W2        11515           0.0000000000
     34544     11515  TIP3      H1             -7.0543366405       20.1433777139      -12.7634596465  W2        11515           0.0000000000
     34545     11515  TIP3      H2             -6.9460666405       21.2139277139      -11.6985196465  W2        11515           0.0000000000
     34546     11516  TIP3      OH2           -13.3255566405       19.0533577139      -10.0360796465  W2        11516           0.0000000000
     34547     11516  TIP3      H1            -13.1735166405       18.7053977139       -9.1574296465  W2        11516           0.0000000000
     34548     11516  TIP3      H2            -14.1765166405       18.6970877139      -10.2913596465  W2        11516           0.0000000000
     34549     11517  TIP3      OH2            -3.8773366405       19.4186777139      -14.8147396465  W2        11517           0.0000000000
     34550     11517  TIP3      H1             -3.5024966405       18.6742877139      -15.2854796465  W2        11517           0.0000000000
     34551     11517  TIP3      H2             -3.8729666405       19.1487377139      -13.8964096465  W2        11517           0.0000000000
     34552     11518  TIP3      OH2            -4.2085266405       19.3443877139      -12.0655196465  W2        11518           0.0000000000
     34553     11518  TIP3      H1             -5.1435466405       19.4445777139      -11.8868196465  W2        11518           0.0000000000
     34554     11518  TIP3      H2             -3.9283366405       18.6349877139      -11.4871996465  W2        11518           0.0000000000
     34555     11519  TIP3      OH2            -1.2199366405        8.4116177139       -0.0189596465  W2        11519           0.0000000000
     34556     11519  TIP3      H1             -1.6272566405        8.8921777139       -0.7396296465  W2        11519           0.0000000000
     34557     11519  TIP3      H2             -1.1793666405        7.5062177139       -0.3268796465  W2        11519           0.0000000000
     34558     11520  TIP3      OH2           -14.0709866405       14.7955577139       -2.0222896465  W2        11520           0.0000000000
     34559     11520  TIP3      H1            -13.8548566405       14.4341177139       -1.1627096465  W2        11520           0.0000000000
     34560     11520  TIP3      H2            -14.9265166405       14.4209377139       -2.2319396465  W2        11520           0.0000000000
     34561     11521  TIP3      OH2           -11.4521866405        3.2656077139       -6.0268696465  W2        11521           0.0000000000
     34562     11521  TIP3      H1            -12.3138166405        3.1784277139       -6.4345796465  W2        11521           0.0000000000
     34563     11521  TIP3      H2            -11.4746166405        4.1216177139       -5.5991096465  W2        11521           0.0000000000
     34564     11522  TIP3      OH2            -6.7894066405        2.9876477139       -2.6521696465  W2        11522           0.0000000000
     34565     11522  TIP3      H1             -6.3690966405        2.5723577139       -1.8991096465  W2        11522           0.0000000000
     34566     11522  TIP3      H2             -7.7224466405        2.8089777139       -2.5349696465  W2        11522           0.0000000000
     34567     11523  TIP3      OH2            -3.4629166405        6.7431677139       -1.7987196465  W2        11523           0.0000000000
     34568     11523  TIP3      H1             -3.9769666405        6.6173877139       -1.0011196465  W2        11523           0.0000000000
     34569     11523  TIP3      H2             -3.6184466405        7.6554777139       -2.0430996465  W2        11523           0.0000000000
     34570     11524  TIP3      OH2            -2.7004266405       11.6041677139      -16.0374196465  W2        11524           0.0000000000
     34571     11524  TIP3      H1             -2.6583466405       11.3815577139      -16.9674196465  W2        11524           0.0000000000
     34572     11524  TIP3      H2             -1.8512166405       12.0028777139      -15.8474296465  W2        11524           0.0000000000
     34573     11525  TIP3      OH2            -7.1276766405        5.4799877139      -15.3670896465  W2        11525           0.0000000000
     34574     11525  TIP3      H1             -7.3811966405        5.4991477139      -14.4442796465  W2        11525           0.0000000000
     34575     11525  TIP3      H2             -7.3844666405        4.6085277139      -15.6684696465  W2        11525           0.0000000000
     34576     11526  TIP3      OH2           -11.3611766405        8.2310577139       -4.9318496465  W2        11526           0.0000000000
     34577     11526  TIP3      H1            -12.0029666405        8.1907877139       -4.2228396465  W2        11526           0.0000000000
     34578     11526  TIP3      H2            -11.3239766405        9.1575277139       -5.1695496465  W2        11526           0.0000000000
     34579     11527  TIP3      OH2           -11.3642666405        8.4520677139      -10.0198496465  W2        11527           0.0000000000
     34580     11527  TIP3      H1            -12.2569766405        8.1116777139      -10.0784696465  W2        11527           0.0000000000
     34581     11527  TIP3      H2            -10.9136066405        8.0751577139      -10.7755296465  W2        11527           0.0000000000
     34582     11528  TIP3      OH2            -5.8287166405        8.8680977139      -11.2027696465  W2        11528           0.0000000000
     34583     11528  TIP3      H1             -6.2376866405        9.6829577139      -11.4942896465  W2        11528           0.0000000000
     34584     11528  TIP3      H2             -5.1080966405        8.7281077139      -11.8170596465  W2        11528           0.0000000000
     34585     11529  TIP3      OH2            -6.7265566405        9.0437377139        0.2853003535  W2        11529           0.0000000000
     34586     11529  TIP3      H1             -7.2891766405        8.3388977139        0.6060803535  W2        11529           0.0000000000
     34587     11529  TIP3      H2             -5.9002166405        8.9229277139        0.7530603535  W2        11529           0.0000000000
     34588     11530  TIP3      OH2            -4.8239466405        8.3141377139       -8.3887996465  W2        11530           0.0000000000
     34589     11530  TIP3      H1             -5.0194966405        8.9198177139       -9.1037396465  W2        11530           0.0000000000
     34590     11530  TIP3      H2             -4.6426866405        7.4806577139       -8.8231696465  W2        11530           0.0000000000
     34591     11531  TIP3      OH2           -13.6111266405        8.5514077139       -3.0646496465  W2        11531           0.0000000000
     34592     11531  TIP3      H1            -13.6491866405        8.9515677139       -2.1959396465  W2        11531           0.0000000000
     34593     11531  TIP3      H2            -14.1020166405        7.7346477139       -2.9743596465  W2        11531           0.0000000000
     34594     11532  TIP3      OH2           -10.2453866405        5.9256377139      -16.2660496465  W2        11532           0.0000000000
     34595     11532  TIP3      H1            -10.6763166405        5.4806477139      -15.5363096465  W2        11532           0.0000000000
     34596     11532  TIP3      H2            -10.9635166405        6.2972677139      -16.7782996465  W2        11532           0.0000000000
     34597     11533  TIP3      OH2           -17.0030466405        5.6675877139       -9.2141796465  W2        11533           0.0000000000
     34598     11533  TIP3      H1            -16.3722766405        5.6387977139       -8.4947896465  W2        11533           0.0000000000
     34599     11533  TIP3      H2            -16.5536166405        5.2424577139       -9.9445896465  W2        11533           0.0000000000
     34600     11534  TIP3      OH2           -15.7288366405        6.4137877139      -13.7901396465  W2        11534           0.0000000000
     34601     11534  TIP3      H1            -15.2546666405        7.0047777139      -14.3750496465  W2        11534           0.0000000000
     34602     11534  TIP3      H2            -16.4461966405        6.9440777139      -13.4431296465  W2        11534           0.0000000000
     34603     11535  TIP3      OH2            -5.5600266405        9.9522677139       -3.7175596465  W2        11535           0.0000000000
     34604     11535  TIP3      H1             -5.2365466405        9.3212377139       -4.3605096465  W2        11535           0.0000000000
     34605     11535  TIP3      H2             -6.0000966405        9.4174877139       -3.0568196465  W2        11535           0.0000000000
     34606     11536  TIP3      OH2            -8.7827366405        5.8798177139       -8.9334396465  W2        11536           0.0000000000
     34607     11536  TIP3      H1             -9.6936266405        5.9364977139       -8.6448396465  W2        11536           0.0000000000
     34608     11536  TIP3      H2             -8.2774466405        5.8193677139       -8.1227196465  W2        11536           0.0000000000
     34609     11537  TIP3      OH2           -13.9543966405        7.5084477139      -10.1066796465  W2        11537           0.0000000000
     34610     11537  TIP3      H1            -14.8435966405        7.6079977139      -10.4467196465  W2        11537           0.0000000000
     34611     11537  TIP3      H2            -13.6579066405        6.6667477139      -10.4528896465  W2        11537           0.0000000000
     34612     11538  TIP3      OH2           -10.3012166405        7.5087077139      -12.4502196465  W2        11538           0.0000000000
     34613     11538  TIP3      H1             -9.3696666405        7.6377077139      -12.2719096465  W2        11538           0.0000000000
     34614     11538  TIP3      H2            -10.5161866405        8.1781377139      -13.0997496465  W2        11538           0.0000000000
     34615     11539  TIP3      OH2            -4.3775466405        5.1144477139       -5.6692596465  W2        11539           0.0000000000
     34616     11539  TIP3      H1             -5.0543866405        5.2457577139       -5.0052896465  W2        11539           0.0000000000
     34617     11539  TIP3      H2             -4.8630566405        4.9593977139       -6.4794896465  W2        11539           0.0000000000
     34618     11540  TIP3      OH2           -11.6271966405        8.7029277139      -14.8836096465  W2        11540           0.0000000000
     34619     11540  TIP3      H1            -12.1696866405        8.3233077139      -15.5748496465  W2        11540           0.0000000000
     34620     11540  TIP3      H2            -10.7937066405        8.8973977139      -15.3121996465  W2        11540           0.0000000000
     34621     11541  TIP3      OH2            -1.0900366405       20.7859877139        0.6075003535  W2        11541           0.0000000000
     34622     11541  TIP3      H1             -0.8901666405       21.2101777139       -0.2269696465  W2        11541           0.0000000000
     34623     11541  TIP3      H2             -0.4346666405       21.1298077139        1.2145403535  W2        11541           0.0000000000
     34624     11542  TIP3      OH2           -13.4920566405       13.2601177139        0.2155503535  W2        11542           0.0000000000
     34625     11542  TIP3      H1            -12.7598166405       13.5147077139        0.7770003535  W2        11542           0.0000000000
     34626     11542  TIP3      H2            -14.2721866405       13.4646577139        0.7310903535  W2        11542           0.0000000000
     34627     11543  TIP3      OH2            -7.4627666405        8.6671177139       -7.0464796465  W2        11543           0.0000000000
     34628     11543  TIP3      H1             -6.8984266405        8.1207777139       -7.5935196465  W2        11543           0.0000000000
     34629     11543  TIP3      H2             -7.6104266405        8.1453077139       -6.2577196465  W2        11543           0.0000000000
     34630     11544  TIP3      OH2           -12.4607966405        4.8037277139      -10.6279996465  W2        11544           0.0000000000
     34631     11544  TIP3      H1            -12.7778466405        3.9012577139      -10.6634596465  W2        11544           0.0000000000
     34632     11544  TIP3      H2            -11.6793866405        4.8054677139      -11.1808396465  W2        11544           0.0000000000
     34633     11545  TIP3      OH2            -8.8361766405        7.0557277139       -4.6324396465  W2        11545           0.0000000000
     34634     11545  TIP3      H1             -9.6716466405        7.5096777139       -4.5221996465  W2        11545           0.0000000000
     34635     11545  TIP3      H2             -8.3121166405        7.3315777139       -3.8804496465  W2        11545           0.0000000000
     34636     11546  TIP3      OH2            -8.2919166405       13.2684977139      -12.9477996465  W2        11546           0.0000000000
     34637     11546  TIP3      H1             -9.0368166405       12.7610277139      -13.2700096465  W2        11546           0.0000000000
     34638     11546  TIP3      H2             -8.4261966405       13.3172977139      -12.0013196465  W2        11546           0.0000000000
     34639     11547  TIP3      OH2            -1.1420266405       12.4013177139       -4.1610396465  W2        11547           0.0000000000
     34640     11547  TIP3      H1             -0.5001466405       12.8579477139       -4.7048196465  W2        11547           0.0000000000
     34641     11547  TIP3      H2             -1.9723366405       12.5145577139       -4.6236296465  W2        11547           0.0000000000
     34642     11548  TIP3      OH2            -4.3942366405        6.0824877139      -14.7485396465  W2        11548           0.0000000000
     34643     11548  TIP3      H1             -5.3328166405        6.1940477139      -14.8996596465  W2        11548           0.0000000000
     34644     11548  TIP3      H2             -4.0970266405        6.9391777139      -14.4419696465  W2        11548           0.0000000000
     34645     11549  TIP3      OH2            -6.7727066405       13.4528277139       -1.7108896465  W2        11549           0.0000000000
     34646     11549  TIP3      H1             -7.1180966405       13.0710677139       -0.9039296465  W2        11549           0.0000000000
     34647     11549  TIP3      H2             -6.9726966405       14.3861877139       -1.6395996465  W2        11549           0.0000000000
     34648     11550  TIP3      OH2            -3.6758866405        7.9497577139      -13.0877996465  W2        11550           0.0000000000
     34649     11550  TIP3      H1             -2.7839866405        7.8122577139      -12.7686796465  W2        11550           0.0000000000
     34650     11550  TIP3      H2             -3.6195266405        8.7403677139      -13.6244496465  W2        11550           0.0000000000
     34651     11551  TIP3      OH2           -13.1670866405       12.5634977139       -7.1780096465  W2        11551           0.0000000000
     34652     11551  TIP3      H1            -12.4223666405       12.5610677139       -7.7793596465  W2        11551           0.0000000000
     34653     11551  TIP3      H2            -13.0894266405       11.7398777139       -6.6964996465  W2        11551           0.0000000000
     34654     11552  TIP3      OH2            -6.1665066405       14.7269277139      -13.9223396465  W2        11552           0.0000000000
     34655     11552  TIP3      H1             -6.4616666405       15.5537177139      -13.5408596465  W2        11552           0.0000000000
     34656     11552  TIP3      H2             -6.8695066405       14.1076177139      -13.7261996465  W2        11552           0.0000000000
     34657     11553  TIP3      OH2           -16.1591166405       11.0241877139       -1.8631596465  W2        11553           0.0000000000
     34658     11553  TIP3      H1            -15.9362566405       10.6061477139       -1.0314096465  W2        11553           0.0000000000
     34659     11553  TIP3      H2            -16.7611066405       10.4116877139       -2.2858796465  W2        11553           0.0000000000
     34660     11554  TIP3      OH2            -9.1426266405       10.5411777139        0.3498103535  W2        11554           0.0000000000
     34661     11554  TIP3      H1             -9.4385466405       10.3754777139       -0.5452796465  W2        11554           0.0000000000
     34662     11554  TIP3      H2             -8.2111066405       10.3212077139        0.3392003535  W2        11554           0.0000000000
     34663     11555  TIP3      OH2            -4.5223466405       15.9143777139       -1.7603896465  W2        11555           0.0000000000
     34664     11555  TIP3      H1             -5.4229166405       16.0976377139       -2.0279996465  W2        11555           0.0000000000
     34665     11555  TIP3      H2             -4.4882366405       16.1733077139       -0.8395096465  W2        11555           0.0000000000
     34666     11556  TIP3      OH2             1.2089833595        8.1591677139      -13.3931296465  W2        11556           0.0000000000
     34667     11556  TIP3      H1              0.6546133595        7.7629677139      -14.0653796465  W2        11556           0.0000000000
     34668     11556  TIP3      H2              1.3093433595        9.0696877139      -13.6707996465  W2        11556           0.0000000000
     34669     11557  TIP3      OH2             1.1721833595       13.9593377139       -0.5559796465  W2        11557           0.0000000000
     34670     11557  TIP3      H1              0.3210333595       14.1977177139       -0.9233396465  W2        11557           0.0000000000
     34671     11557  TIP3      H2              1.7625233595       13.9426577139       -1.3092696465  W2        11557           0.0000000000
     34672     11558  TIP3      OH2            -0.4958466405       16.9452077139      -12.9279196465  W2        11558           0.0000000000
     34673     11558  TIP3      H1             -0.8687366405       16.1195877139      -12.6188596465  W2        11558           0.0000000000
     34674     11558  TIP3      H2             -0.2184966405       16.7621477139      -13.8255796465  W2        11558           0.0000000000
     34675     11559  TIP3      OH2            -3.3354566405       11.7531577139       -5.9067296465  W2        11559           0.0000000000
     34676     11559  TIP3      H1             -4.2637666405       11.5213477139       -5.9337996465  W2        11559           0.0000000000
     34677     11559  TIP3      H2             -2.8843466405       10.9761377139       -6.2368496465  W2        11559           0.0000000000
     34678     11560  TIP3      OH2           -10.7921466405       16.0813177139       -9.7738596465  W2        11560           0.0000000000
     34679     11560  TIP3      H1            -10.2649266405       16.8547577139       -9.9739796465  W2        11560           0.0000000000
     34680     11560  TIP3      H2            -11.6722966405       16.3062377139      -10.0754596465  W2        11560           0.0000000000
     34681     11561  TIP3      OH2           -15.0373766405       10.9437277139      -15.1866196465  W2        11561           0.0000000000
     34682     11561  TIP3      H1            -14.4213866405       11.5704477139      -14.8071396465  W2        11561           0.0000000000
     34683     11561  TIP3      H2            -15.8991166405       11.2597077139      -14.9149696465  W2        11561           0.0000000000
     34684     11562  TIP3      OH2            -9.3649166405       13.7443077139      -10.1974296465  W2        11562           0.0000000000
     34685     11562  TIP3      H1             -9.6059166405       14.6697477139      -10.1558996465  W2        11562           0.0000000000
     34686     11562  TIP3      H2            -10.1055566405       13.2854377139       -9.8010396465  W2        11562           0.0000000000
     34687     11563  TIP3      OH2            -8.8502566405       17.8936677139       -3.8823196465  W2        11563           0.0000000000
     34688     11563  TIP3      H1             -8.4877866405       18.7482277139       -4.1158796465  W2        11563           0.0000000000
     34689     11563  TIP3      H2             -8.3187366405       17.6018277139       -3.1416896465  W2        11563           0.0000000000
     34690     11564  TIP3      OH2           -10.6818366405       18.7660677139      -10.6522096465  W2        11564           0.0000000000
     34691     11564  TIP3      H1            -11.6317866405       18.8718077139      -10.6008796465  W2        11564           0.0000000000
     34692     11564  TIP3      H2            -10.3300266405       19.5868077139      -10.3074596465  W2        11564           0.0000000000
     34693     11565  TIP3      OH2            -5.3061766405       13.9927377139       -4.1817596465  W2        11565           0.0000000000
     34694     11565  TIP3      H1             -5.7320466405       13.7649077139       -3.3553596465  W2        11565           0.0000000000
     34695     11565  TIP3      H2             -4.7255966405       13.2539177139       -4.3642296465  W2        11565           0.0000000000
     34696     11566  TIP3      OH2            -3.1032866405       14.9217877139      -15.1078596465  W2        11566           0.0000000000
     34697     11566  TIP3      H1             -2.7499766405       14.5417677139      -14.3035096465  W2        11566           0.0000000000
     34698     11566  TIP3      H2             -4.0519366405       14.8282677139      -15.0209296465  W2        11566           0.0000000000
     34699     11567  TIP3      OH2            -2.6477566405       18.5446877139       -1.7122796465  W2        11567           0.0000000000
     34700     11567  TIP3      H1             -3.2494366405       17.9889777139       -2.2076496465  W2        11567           0.0000000000
     34701     11567  TIP3      H2             -2.3663866405       19.2116677139       -2.3385396465  W2        11567           0.0000000000
     34702     11568  TIP3      OH2             1.4001533595       19.4010377139      -14.9068396465  W2        11568           0.0000000000
     34703     11568  TIP3      H1              2.1439433595       19.9870877139      -15.0466796465  W2        11568           0.0000000000
     34704     11568  TIP3      H2              0.7059633595       19.9696177139      -14.5735996465  W2        11568           0.0000000000
     34705     11569  TIP3      OH2           -14.5251666405        5.7774577139       -2.3050196465  W2        11569           0.0000000000
     34706     11569  TIP3      H1            -15.4179366405        6.1159977139       -2.3726196465  W2        11569           0.0000000000
     34707     11569  TIP3      H2            -14.6238866405        4.9220677139       -1.8869396465  W2        11569           0.0000000000
     34708     11570  TIP3      OH2            -2.2373566405       13.5939877139      -12.8810696465  W2        11570           0.0000000000
     34709     11570  TIP3      H1             -2.5145966405       12.8659177139      -12.3249596465  W2        11570           0.0000000000
     34710     11570  TIP3      H2             -1.3100566405       13.7131877139      -12.6758096465  W2        11570           0.0000000000
     34711     11571  TIP3      OH2           -14.8739666405       17.5818977139       -3.8700796465  W2        11571           0.0000000000
     34712     11571  TIP3      H1            -14.6569366405       16.6501377139       -3.9011096465  W2        11571           0.0000000000
     34713     11571  TIP3      H2            -14.6276166405       17.8563977139       -2.9867996465  W2        11571           0.0000000000
     34714     11572  TIP3      OH2            -9.0125066405       16.0333977139      -16.6608596465  W2        11572           0.0000000000
     34715     11572  TIP3      H1             -8.7735266405       15.2852077139      -17.2079696465  W2        11572           0.0000000000
     34716     11572  TIP3      H2             -9.2813766405       15.6455677139      -15.8280796465  W2        11572           0.0000000000
     34717     11573  TIP3      OH2           -10.0754466405       15.6037777139      -14.2045996465  W2        11573           0.0000000000
     34718     11573  TIP3      H1             -9.9286466405       15.0837577139      -13.4145096465  W2        11573           0.0000000000
     34719     11573  TIP3      H2            -10.0782766405       16.5105377139      -13.8980096465  W2        11573           0.0000000000
     34720     11574  TIP3      OH2           -13.6223366405       12.8561077139      -13.6940596465  W2        11574           0.0000000000
     34721     11574  TIP3      H1            -14.3084066405       13.2083577139      -13.1270896465  W2        11574           0.0000000000
     34722     11574  TIP3      H2            -13.0995466405       13.6190677139      -13.9406296465  W2        11574           0.0000000000
     34723     11575  TIP3      OH2            -5.7908266405        5.5184877139       -3.4151596465  W2        11575           0.0000000000
     34724     11575  TIP3      H1             -5.0920366405        5.5923577139       -2.7651896465  W2        11575           0.0000000000
     34725     11575  TIP3      H2             -6.1716866405        4.6539877139       -3.2608696465  W2        11575           0.0000000000
     34726     11576  TIP3      OH2            -5.0063366405        5.1706577139      -12.3179296465  W2        11576           0.0000000000
     34727     11576  TIP3      H1             -4.7865066405        5.6421977139      -13.1213896465  W2        11576           0.0000000000
     34728     11576  TIP3      H2             -4.4479366405        5.5649177139      -11.6478696465  W2        11576           0.0000000000
     34729     11577  TIP3      OH2            -7.3377266405       17.3011377139      -13.4551796465  W2        11577           0.0000000000
     34730     11577  TIP3      H1             -8.1541166405       17.7981077139      -13.4027496465  W2        11577           0.0000000000
     34731     11577  TIP3      H2             -6.8080966405       17.7764877139      -14.0952996465  W2        11577           0.0000000000
     34732     11578  TIP3      OH2            -7.8063466405        6.8985377139      -11.4830896465  W2        11578           0.0000000000
     34733     11578  TIP3      H1             -6.9940866405        7.4028577139      -11.4369196465  W2        11578           0.0000000000
     34734     11578  TIP3      H2             -8.0510466405        6.7535077139      -10.5691296465  W2        11578           0.0000000000
     34735     11579  TIP3      OH2            -7.2707066405        7.8848077139       -2.2984296465  W2        11579           0.0000000000
     34736     11579  TIP3      H1             -7.1516766405        8.4583477139       -1.5413896465  W2        11579           0.0000000000
     34737     11579  TIP3      H2             -6.6152466405        7.1967477139       -2.1836496465  W2        11579           0.0000000000
     34738     11580  TIP3      OH2            -6.9226766405        3.9798377139      -10.5449796465  W2        11580           0.0000000000
     34739     11580  TIP3      H1             -7.2693266405        4.5968977139       -9.9005496465  W2        11580           0.0000000000
     34740     11580  TIP3      H2             -6.2639866405        4.4804077139      -11.0264296465  W2        11580           0.0000000000
     34741     11581  TIP3      OH2            -9.9994166405       18.3448577139      -13.4734896465  W2        11581           0.0000000000
     34742     11581  TIP3      H1             -9.8385466405       19.1446077139      -13.9742296465  W2        11581           0.0000000000
     34743     11581  TIP3      H2            -10.1966366405       18.6514577139      -12.5884296465  W2        11581           0.0000000000
     34744     11582  TIP3      OH2           -11.2649766405        5.0427777139      -13.8577296465  W2        11582           0.0000000000
     34745     11582  TIP3      H1            -11.3484966405        5.9310877139      -13.5110896465  W2        11582           0.0000000000
     34746     11582  TIP3      H2            -10.3749466405        4.7774477139      -13.6260496465  W2        11582           0.0000000000
     34747     11583  TIP3      OH2            -1.0661266405        5.7918377139       -1.4634596465  W2        11583           0.0000000000
     34748     11583  TIP3      H1             -1.9825466405        6.0540077139       -1.5510896465  W2        11583           0.0000000000
     34749     11583  TIP3      H2             -0.7306266405        5.7887377139       -2.3599296465  W2        11583           0.0000000000
     34750     11584  TIP3      OH2            -2.4640266405        9.5419377139       -7.3677296465  W2        11584           0.0000000000
     34751     11584  TIP3      H1             -3.2615866405        9.1269577139       -7.6962296465  W2        11584           0.0000000000
     34752     11584  TIP3      H2             -2.0189166405        8.8513077139       -6.8766796465  W2        11584           0.0000000000
     34753     11585  TIP3      OH2           -13.0064466405       15.4699977139      -14.7972796465  W2        11585           0.0000000000
     34754     11585  TIP3      H1            -12.4142966405       16.1694777139      -14.5210396465  W2        11585           0.0000000000
     34755     11585  TIP3      H2            -12.5471466405       15.0369477139      -15.5168196465  W2        11585           0.0000000000
     34756     11586  TIP3      OH2           -14.6905266405        8.1342977139      -15.6813396465  W2        11586           0.0000000000
     34757     11586  TIP3      H1            -14.7352666405        9.0736077139      -15.5026396465  W2        11586           0.0000000000
     34758     11586  TIP3      H2            -15.5782066405        7.8987877139      -15.9511296465  W2        11586           0.0000000000
     34759     11587  TIP3      OH2            -1.3775666405       18.7981877139       -5.7453796465  W2        11587           0.0000000000
     34760     11587  TIP3      H1             -1.5331366405       19.4766277139       -6.4024496465  W2        11587           0.0000000000
     34761     11587  TIP3      H2             -0.4449266405       18.8701177139       -5.5423196465  W2        11587           0.0000000000
     34762     11588  TIP3      OH2           -13.8823266405        2.9159577139       -7.0082396465  W2        11588           0.0000000000
     34763     11588  TIP3      H1            -14.1113466405        2.9752077139       -7.9357396465  W2        11588           0.0000000000
     34764     11588  TIP3      H2            -14.3249866405        2.1245077139       -6.7018296465  W2        11588           0.0000000000
     34765     11589  TIP3      OH2           -14.9519966405       16.8566677139      -10.8476596465  W2        11589           0.0000000000
     34766     11589  TIP3      H1            -15.7841366405       17.3289377139      -10.8205196465  W2        11589           0.0000000000
     34767     11589  TIP3      H2            -14.4061666405       17.3664277139      -11.4463496465  W2        11589           0.0000000000
     34768     11590  TIP3      OH2           -15.6636266405       19.4690377139        0.4821403535  W2        11590           0.0000000000
     34769     11590  TIP3      H1            -15.1234066405       19.2524377139        1.2420603535  W2        11590           0.0000000000
     34770     11590  TIP3      H2            -16.1448266405       18.6636377139        0.2923903535  W2        11590           0.0000000000
     34771     11591  TIP3      OH2           -11.0662866405       18.3884777139        2.1025603535  W2        11591           0.0000000000
     34772     11591  TIP3      H1            -10.2985666405       17.9295577139        2.4434803535  W2        11591           0.0000000000
     34773     11591  TIP3      H2            -11.0876666405       18.1624577139        1.1726803535  W2        11591           0.0000000000
     34774     11592  TIP3      OH2            -6.9743266405       17.8965377139      -16.5222596465  W2        11592           0.0000000000
     34775     11592  TIP3      H1             -7.6182266405       17.2653977139      -16.2008896465  W2        11592           0.0000000000
     34776     11592  TIP3      H2             -6.2124966405       17.3653377139      -16.7539096465  W2        11592           0.0000000000
     34777     11593  TIP3      OH2            -4.4894166405       16.7685877139        0.8317103535  W2        11593           0.0000000000
     34778     11593  TIP3      H1             -4.8404666405       15.9118877139        1.0747503535  W2        11593           0.0000000000
     34779     11593  TIP3      H2             -3.7630966405       16.9112577139        1.4386103535  W2        11593           0.0000000000
     34780     11594  TIP3      OH2            -2.3700366405       17.7135277139      -16.2884596465  W2        11594           0.0000000000
     34781     11594  TIP3      H1             -2.0869966405       16.9190477139      -15.8357696465  W2        11594           0.0000000000
     34782     11594  TIP3      H2             -1.6302466405       17.9466277139      -16.8493496465  W2        11594           0.0000000000
     34783     11595  TIP3      OH2           -15.7566766405       13.2794477139        1.4365703535  W2        11595           0.0000000000
     34784     11595  TIP3      H1            -15.6126266405       12.3775177139        1.1502403535  W2        11595           0.0000000000
     34785     11595  TIP3      H2            -16.5289366405       13.5656577139        0.9488003535  W2        11595           0.0000000000
     34786     11596  TIP3      OH2           -11.4153066405       13.6230177139      -16.4309696465  W2        11596           0.0000000000
     34787     11596  TIP3      H1            -11.3508966405       12.8289777139      -15.9003296465  W2        11596           0.0000000000
     34788     11596  TIP3      H2            -10.7623866405       13.5042977139      -17.1207696465  W2        11596           0.0000000000
     34789     11597  TIP3      OH2            -9.1010666405       13.2492577139        0.8692103535  W2        11597           0.0000000000
     34790     11597  TIP3      H1             -9.4296866405       13.5200677139        0.0119503535  W2        11597           0.0000000000
     34791     11597  TIP3      H2             -8.9492466405       12.3082377139        0.7817103535  W2        11597           0.0000000000
     34792     11598  TIP3      OH2            -6.0629666405       14.6701877139      -16.6951696465  W2        11598           0.0000000000
     34793     11598  TIP3      H1             -6.3315566405       14.8503977139      -15.7942796465  W2        11598           0.0000000000
     34794     11598  TIP3      H2             -6.2694066405       13.7448077139      -16.8265896465  W2        11598           0.0000000000
     34795     11599  TIP3      OH2            -3.3665466405       13.1649877139       -1.7475596465  W2        11599           0.0000000000
     34796     11599  TIP3      H1             -2.6210666405       13.7533577139       -1.8671596465  W2        11599           0.0000000000
     34797     11599  TIP3      H2             -4.1238666405       13.7469577139       -1.6842496465  W2        11599           0.0000000000
     34798     11600  TIP3      OH2           -14.9240266405       10.4797777139        0.8565003535  W2        11600           0.0000000000
     34799     11600  TIP3      H1            -14.5159066405        9.6224377139        0.7355603535  W2        11600           0.0000000000
     34800     11600  TIP3      H2            -15.1842666405       10.4939077139        1.7775303535  W2        11600           0.0000000000
     34801     11601  TIP3      OH2           -10.2659266405       11.5956377139      -14.1251696465  W2        11601           0.0000000000
     34802     11601  TIP3      H1            -10.7257266405       11.1114677139      -13.4393196465  W2        11601           0.0000000000
     34803     11601  TIP3      H2            -10.0110566405       10.9271777139      -14.7611196465  W2        11601           0.0000000000
     34804     11602  TIP3      OH2           -10.9769966405        9.4883477139       -1.7692096465  W2        11602           0.0000000000
     34805     11602  TIP3      H1            -11.5953866405       10.1630077139       -1.4887396465  W2        11602           0.0000000000
     34806     11602  TIP3      H2            -10.6328766405        9.8097377139       -2.6025896465  W2        11602           0.0000000000
     34807     11603  TIP3      OH2            -9.1948866405        9.8388177139      -15.8628496465  W2        11603           0.0000000000
     34808     11603  TIP3      H1             -9.3753866405        9.6839377139      -16.7900196465  W2        11603           0.0000000000
     34809     11603  TIP3      H2             -8.2448366405        9.9466877139      -15.8180596465  W2        11603           0.0000000000
     34810     11604  TIP3      OH2            -5.9571766405       11.9598777139        1.5082703535  W2        11604           0.0000000000
     34811     11604  TIP3      H1             -5.0040566405       12.0437877139        1.4808703535  W2        11604           0.0000000000
     34812     11604  TIP3      H2             -6.1177166405       11.2480577139        2.1277603535  W2        11604           0.0000000000
     34813     11605  TIP3      OH2             0.1949433595       12.1932377139      -16.4170396465  W2        11605           0.0000000000
     34814     11605  TIP3      H1             -0.0785766405       11.7687877139      -17.2302096465  W2        11605           0.0000000000
     34815     11605  TIP3      H2              0.2343533595       13.1246877139      -16.6339996465  W2        11605           0.0000000000
     34816     11606  TIP3      OH2           -10.6376266405        6.8434277139       -0.6868996465  W2        11606           0.0000000000
     34817     11606  TIP3      H1            -10.4875366405        6.1145577139       -1.2889296465  W2        11606           0.0000000000
     34818     11606  TIP3      H2            -10.6353866405        7.6205977139       -1.2456796465  W2        11606           0.0000000000
     34819     11607  TIP3      OH2           -10.2250566405        5.2130077139       -3.1941596465  W2        11607           0.0000000000
     34820     11607  TIP3      H1             -9.6893066405        5.6646777139       -3.8462296465  W2        11607           0.0000000000
     34821     11607  TIP3      H2            -11.0770966405        5.1049877139       -3.6167496465  W2        11607           0.0000000000
     34822     11608  TIP3      OH2            -8.6432166405       10.6526277139       -2.9546396465  W2        11608           0.0000000000
     34823     11608  TIP3      H1             -7.8927366405       10.4963777139       -3.5278596465  W2        11608           0.0000000000
     34824     11608  TIP3      H2             -8.9823866405       11.5042877139       -3.2300896465  W2        11608           0.0000000000
     34825     11609  TIP3      OH2            -4.2275966405        8.4678077139        2.0738903535  W2        11609           0.0000000000
     34826     11609  TIP3      H1             -4.0354666405        7.5367477139        1.9623403535  W2        11609           0.0000000000
     34827     11609  TIP3      H2             -3.3699666405        8.8927577139        2.0634303535  W2        11609           0.0000000000
     34828     11610  TIP3      OH2            -2.9108766405       11.2563277139        0.1511603535  W2        11610           0.0000000000
     34829     11610  TIP3      H1             -3.1923766405       11.9657877139       -0.4264596465  W2        11610           0.0000000000
     34830     11610  TIP3      H2             -1.9684466405       11.1836277139        0.0002803535  W2        11610           0.0000000000
     34831     11611  TIP3      OH2           -12.1589966405        8.0417777139        1.2246603535  W2        11611           0.0000000000
     34832     11611  TIP3      H1            -12.9260966405        7.5092577139        1.0144203535  W2        11611           0.0000000000
     34833     11611  TIP3      H2            -11.4800966405        7.7318177139        0.6252903535  W2        11611           0.0000000000
     34834     11612  TIP3      OH2            -9.4195066405        2.6695777139       -2.7627996465  W2        11612           0.0000000000
     34835     11612  TIP3      H1             -9.5175466405        3.6158977139       -2.8681796465  W2        11612           0.0000000000
     34836     11612  TIP3      H2            -10.1618866405        2.2969577139       -3.2384496465  W2        11612           0.0000000000
     34837     11613  TIP3      OH2            -8.1554566405        6.9911177139        0.8010403535  W2        11613           0.0000000000
     34838     11613  TIP3      H1             -8.3909166405        6.7717877139        1.7025303535  W2        11613           0.0000000000
     34839     11613  TIP3      H2             -8.9387666405        6.7842377139        0.2912903535  W2        11613           0.0000000000
     34840     11614  TIP3      OH2            -5.4397966405        6.1184677139       -0.1236096465  W2        11614           0.0000000000
     34841     11614  TIP3      H1             -6.3872566405        6.1504377139        0.0087203535  W2        11614           0.0000000000
     34842     11614  TIP3      H2             -5.1271266405        5.4931777139        0.5302103535  W2        11614           0.0000000000
     34843     11615  TIP3      OH2            -3.8056466405        4.7525777139        1.8815803535  W2        11615           0.0000000000
     34844     11615  TIP3      H1             -3.9024666405        3.8003077139        1.8757703535  W2        11615           0.0000000000
     34845     11615  TIP3      H2             -4.1273366405        5.0212577139        2.7421303535  W2        11615           0.0000000000
     34846     11616  TIP3      OH2           -13.9787166405        5.9621577139        0.9291303535  W2        11616           0.0000000000
     34847     11616  TIP3      H1            -13.7669766405        5.2557677139        0.3188803535  W2        11616           0.0000000000
     34848     11616  TIP3      H2            -14.0899666405        5.5247577139        1.7732503535  W2        11616           0.0000000000
     34849     11617  TIP3      OH2            -9.1976966405        1.9633177139       -0.0915196465  W2        11617           0.0000000000
     34850     11617  TIP3      H1             -8.4858566405        1.3235377139       -0.1056096465  W2        11617           0.0000000000
     34851     11617  TIP3      H2             -9.2986566405        2.2301477139       -1.0052096465  W2        11617           0.0000000000
     34852     11618  TIP3      OH2            -8.8439466405        3.6461577139        1.9621103535  W2        11618           0.0000000000
     34853     11618  TIP3      H1             -8.9757266405        3.1705377139        1.1419603535  W2        11618           0.0000000000
     34854     11618  TIP3      H2             -9.4432066405        4.3905177139        1.9068203535  W2        11618           0.0000000000
     34855     11619  TIP3      OH2            -9.2977166405       20.5291877139      -14.8614896465  W2        11619           0.0000000000
     34856     11619  TIP3      H1             -8.3646466405       20.6870577139      -14.7176496465  W2        11619           0.0000000000
     34857     11619  TIP3      H2             -9.5618366405       21.2044877139      -15.4863396465  W2        11619           0.0000000000
     34858     11620  TIP3      OH2           -15.7292266405       15.1655677139      -15.3786796465  W2        11620           0.0000000000
     34859     11620  TIP3      H1            -14.8153066405       15.2444577139      -15.1052896465  W2        11620           0.0000000000
     34860     11620  TIP3      H2            -15.7219166405       14.4785277139      -16.0451196465  W2        11620           0.0000000000
     34861     11621  TIP3      OH2           -17.0801666405       20.5584177139      -10.3012896465  W2        11621           0.0000000000
     34862     11621  TIP3      H1            -17.7274566405       20.0965877139      -10.8341696465  W2        11621           0.0000000000
     34863     11621  TIP3      H2            -16.7257066405       19.8867477139       -9.7186696465  W2        11621           0.0000000000
     34864     11622  TIP3      OH2           -16.2102466405       18.6391177139       -8.4966696465  W2        11622           0.0000000000
     34865     11622  TIP3      H1            -16.5445666405       17.7588477139       -8.3246496465  W2        11622           0.0000000000
     34866     11622  TIP3      H2            -15.9880066405       18.9846177139       -7.6321096465  W2        11622           0.0000000000
     34867     11623  TIP3      OH2             1.3382333595       19.4487577139       -5.5161896465  W2        11623           0.0000000000
     34868     11623  TIP3      H1              1.3169033595       19.6335977139       -4.5772496465  W2        11623           0.0000000000
     34869     11623  TIP3      H2              2.0288533595       20.0171577139       -5.8570496465  W2        11623           0.0000000000
     34870     11624  TIP3      OH2             0.9015233595       19.0158677139       -2.5942796465  W2        11624           0.0000000000
     34871     11624  TIP3      H1              0.4143933595       18.2802777139       -2.9655396465  W2        11624           0.0000000000
     34872     11624  TIP3      H2              1.4507933595       18.6222577139       -1.9163396465  W2        11624           0.0000000000
     34873     11625  TIP3      OH2            -0.6477466405       14.8056777139        2.0437503535  W2        11625           0.0000000000
     34874     11625  TIP3      H1             -1.5136366405       14.7006477139        2.4379803535  W2        11625           0.0000000000
     34875     11625  TIP3      H2             -0.2711566405       15.5640077139        2.4902203535  W2        11625           0.0000000000
     34876     11626  TIP3      OH2             0.6532233595       13.0620477139      -12.4419996465  W2        11626           0.0000000000
     34877     11626  TIP3      H1              1.5033633595       13.4831377139      -12.3148396465  W2        11626           0.0000000000
     34878     11626  TIP3      H2              0.6587333595       12.3220577139      -11.8348596465  W2        11626           0.0000000000
     34879     11627  TIP3      OH2             1.0477833595       11.1157877139      -10.6184296465  W2        11627           0.0000000000
     34880     11627  TIP3      H1              0.3212433595       10.6360477139      -10.2206696465  W2        11627           0.0000000000
     34881     11627  TIP3      H2              1.6291133595       11.3212577139       -9.8862696465  W2        11627           0.0000000000
     34882     11628  TIP3      OH2             0.8069033595       13.9005377139       -5.6706696465  W2        11628           0.0000000000
     34883     11628  TIP3      H1              1.6403233595       13.5225377139       -5.9513096465  W2        11628           0.0000000000
     34884     11628  TIP3      H2              0.9189333595       14.8436577139       -5.7897596465  W2        11628           0.0000000000
     34885     11629  TIP3      OH2            -0.7068666405       16.7782877139       -3.3638296465  W2        11629           0.0000000000
     34886     11629  TIP3      H1             -1.3543366405       17.1034377139       -2.7383096465  W2        11629           0.0000000000
     34887     11629  TIP3      H2             -1.2244666405       16.3380577139       -4.0379996465  W2        11629           0.0000000000
     34888     11630  TIP3      OH2             1.3160933595       11.0166377139      -14.2272996465  W2        11630           0.0000000000
     34889     11630  TIP3      H1              0.7942033595       11.3730477139      -14.9462096465  W2        11630           0.0000000000
     34890     11630  TIP3      H2              1.2830133595       11.6914177139      -13.5492096465  W2        11630           0.0000000000
     34891     11631  TIP3      OH2            -0.3350066405        8.2561977139      -15.6765896465  W2        11631           0.0000000000
     34892     11631  TIP3      H1             -0.2385666405        8.9228977139      -16.3566196465  W2        11631           0.0000000000
     34893     11631  TIP3      H2             -0.4750466405        7.4408277139      -16.1580396465  W2        11631           0.0000000000
     34894     11632  TIP3      OH2            -1.1655366405        9.6364377139      -10.0555596465  W2        11632           0.0000000000
     34895     11632  TIP3      H1             -1.3156566405        8.6912977139      -10.0757796465  W2        11632           0.0000000000
     34896     11632  TIP3      H2             -1.5190866405        9.9175777139       -9.2116496465  W2        11632           0.0000000000
     34897     11633  TIP3      OH2           -16.1302966405       11.7146577139       -6.0451796465  W2        11633           0.0000000000
     34898     11633  TIP3      H1            -15.9460066405       11.6328277139       -6.9808896465  W2        11633           0.0000000000
     34899     11633  TIP3      H2            -15.2810066405       11.5903577139       -5.6215396465  W2        11633           0.0000000000
     34900     11634  TIP3      OH2            -0.3092466405       11.6067677139       -0.4167296465  W2        11634           0.0000000000
     34901     11634  TIP3      H1              0.2734833595       10.8719977139       -0.2250096465  W2        11634           0.0000000000
     34902     11634  TIP3      H2              0.2546833595       12.3787977139       -0.3701496465  W2        11634           0.0000000000
     34903     11635  TIP3      OH2             1.1874633595        9.5093477139        0.2678103535  W2        11635           0.0000000000
     34904     11635  TIP3      H1              0.3241333595        9.1305577139        0.1022803535  W2        11635           0.0000000000
     34905     11635  TIP3      H2              1.7918333595        8.7708277139        0.1933903535  W2        11635           0.0000000000
     34906     11636  TIP3      OH2            -1.0876266405        5.6641777139      -16.5590396465  W2        11636           0.0000000000
     34907     11636  TIP3      H1             -0.4770466405        5.2928577139      -15.9222196465  W2        11636           0.0000000000
     34908     11636  TIP3      H2             -1.9244766405        5.2428677139      -16.3630396465  W2        11636           0.0000000000
     34909     11637  TIP3      OH2            -1.4550566405        7.2190177139      -11.5930496465  W2        11637           0.0000000000
     34910     11637  TIP3      H1             -1.1753466405        6.3120577139      -11.4688796465  W2        11637           0.0000000000
     34911     11637  TIP3      H2             -0.6958866405        7.6531677139      -11.9821296465  W2        11637           0.0000000000
     34912     11638  TIP3      OH2            -0.8432266405        7.8007577139       -6.1571596465  W2        11638           0.0000000000
     34913     11638  TIP3      H1              0.0895733595        8.0127477139       -6.1915596465  W2        11638           0.0000000000
     34914     11638  TIP3      H2             -1.0784766405        7.9019677139       -5.2348596465  W2        11638           0.0000000000
     34915     11639  TIP3      OH2            -0.8140366405        8.5372877139       -3.3812196465  W2        11639           0.0000000000
     34916     11639  TIP3      H1             -1.6569066405        8.8053277139       -3.0152396465  W2        11639           0.0000000000
     34917     11639  TIP3      H2             -0.3716066405        9.3594777139       -3.5921096465  W2        11639           0.0000000000
     34918     11640  TIP3      OH2           -16.5328166405        6.9851577139        0.0957003535  W2        11640           0.0000000000
     34919     11640  TIP3      H1            -15.6133266405        6.8629877139        0.3320103535  W2        11640           0.0000000000
     34920     11640  TIP3      H2            -16.9823666405        6.2351277139        0.4850503535  W2        11640           0.0000000000
     34921     11641  TIP3      OH2             1.4691233595        2.5173077139        1.9722803535  W2        11641           0.0000000000
     34922     11641  TIP3      H1              1.8188233595        1.8636577139        1.3667503535  W2        11641           0.0000000000
     34923     11641  TIP3      H2              1.6160733595        3.3547177139        1.5325403535  W2        11641           0.0000000000
     34924     11642  TIP3      OH2            -0.8415766405        4.4819477139      -11.5448496465  W2        11642           0.0000000000
     34925     11642  TIP3      H1             -0.6590766405        4.0330977139      -10.7193496465  W2        11642           0.0000000000
     34926     11642  TIP3      H2             -1.4412866405        3.8973877139      -12.0083896465  W2        11642           0.0000000000
     34927     11643  TIP3      OH2           -15.3115666405        5.2973177139       -7.0130096465  W2        11643           0.0000000000
     34928     11643  TIP3      H1            -14.8664066405        4.5055677139       -6.7110396465  W2        11643           0.0000000000
     34929     11643  TIP3      H2            -14.8452666405        6.0138377139       -6.5824496465  W2        11643           0.0000000000
     34930     11644  TIP3      OH2           -17.0075366405        8.2966177139       -5.9439896465  W2        11644           0.0000000000
     34931     11644  TIP3      H1            -16.5155566405        8.0756677139       -6.7347896465  W2        11644           0.0000000000
     34932     11644  TIP3      H2            -16.6454466405        9.1369577139       -5.6630396465  W2        11644           0.0000000000
     34933     11645  TIP3      OH2             0.9888433595        4.6267677139        0.3214103535  W2        11645           0.0000000000
     34934     11645  TIP3      H1              0.0714133595        4.8974777139        0.2857603535  W2        11645           0.0000000000
     34935     11645  TIP3      H2              1.1117833595        4.0916077139       -0.4626196465  W2        11645           0.0000000000
     34936     11646  TIP3      OH2             1.0250433595        4.5497577139      -15.0168196465  W2        11646           0.0000000000
     34937     11646  TIP3      H1              1.4373033595        3.8283277139      -15.4920196465  W2        11646           0.0000000000
     34938     11646  TIP3      H2              1.7066933595        5.2192177139      -14.9583896465  W2        11646           0.0000000000
     34939     11647  TIP3      OH2           -16.6938866405        4.5545277139      -11.8897496465  W2        11647           0.0000000000
     34940     11647  TIP3      H1            -17.6190466405        4.7631877139      -12.0191996465  W2        11647           0.0000000000
     34941     11647  TIP3      H2            -16.2398966405        5.0386077139      -12.5795196465  W2        11647           0.0000000000
     34942     11648  TIP3      OH2            -1.9231666405       19.5386977139       -9.9440096465  W2        11648           0.0000000000
     34943     11648  TIP3      H1             -1.2708766405       19.1909077139      -10.5520996465  W2        11648           0.0000000000
     34944     11648  TIP3      H2             -1.4127866405       20.0270177139       -9.2980396465  W2        11648           0.0000000000
     34945     11649  TIP3      OH2           -16.7303466405        3.2924277139       -3.5454996465  W2        11649           0.0000000000
     34946     11649  TIP3      H1            -17.3952966405        3.0464577139       -2.9024096465  W2        11649           0.0000000000
     34947     11649  TIP3      H2            -17.1732166405        3.9144677139       -4.1226996465  W2        11649           0.0000000000
     34948     11650  TIP3      OH2           -14.5384166405       16.4678377139        0.5990803535  W2        11650           0.0000000000
     34949     11650  TIP3      H1            -15.3591666405       16.6424877139        0.1385503535  W2        11650           0.0000000000
     34950     11650  TIP3      H2            -14.7906366405       16.3943077139        1.5195203535  W2        11650           0.0000000000
     34951     11651  TIP3      OH2           -11.5841266405       17.4419577139       -3.1425196465  W2        11651           0.0000000000
     34952     11651  TIP3      H1            -12.0090166405       18.2518077139       -3.4250596465  W2        11651           0.0000000000
     34953     11651  TIP3      H2            -10.6798466405       17.5273677139       -3.4445396465  W2        11651           0.0000000000
     34954     11652  TIP3      OH2            -7.2729866405       18.8409577139       -0.1831496465  W2        11652           0.0000000000
     34955     11652  TIP3      H1             -7.0882366405       18.5075677139        0.6948803535  W2        11652           0.0000000000
     34956     11652  TIP3      H2             -6.4265366405       19.1508177139       -0.5052296465  W2        11652           0.0000000000
     34957     11653  TIP3      OH2            -4.9279466405       20.1268477139       -0.9390096465  W2        11653           0.0000000000
     34958     11653  TIP3      H1             -4.2510566405       19.4940777139       -1.1790896465  W2        11653           0.0000000000
     34959     11653  TIP3      H2             -4.6060666405       20.5278977139       -0.1316796465  W2        11653           0.0000000000
     34960     11654  TIP3      OH2            -0.0105666405        2.7163977139       -1.8595096465  W2        11654           0.0000000000
     34961     11654  TIP3      H1             -0.8232166405        3.0414277139       -2.2470396465  W2        11654           0.0000000000
     34962     11654  TIP3      H2              0.2222833595        1.9562477139       -2.3925996465  W2        11654           0.0000000000
     34963     11655  TIP3      OH2           -14.1824566405       20.6983477139       -3.0949896465  W2        11655           0.0000000000
     34964     11655  TIP3      H1            -14.9028166405       21.1384477139       -3.5462196465  W2        11655           0.0000000000
     34965     11655  TIP3      H2            -14.5480566405       20.4478177139       -2.2465896465  W2        11655           0.0000000000
     34966     11656  TIP3      OH2           -11.7151966405       20.2987377139       -4.0652696465  W2        11656           0.0000000000
     34967     11656  TIP3      H1            -12.5799766405       20.3705877139       -3.6612596465  W2        11656           0.0000000000
     34968     11656  TIP3      H2            -11.7702966405       20.8454677139       -4.8490196465  W2        11656           0.0000000000
     34969     11657  TIP3      OH2            -7.0046366405       20.1866277139       -4.8896696465  W2        11657           0.0000000000
     34970     11657  TIP3      H1             -7.4612366405       20.7155977139       -5.5438296465  W2        11657           0.0000000000
     34971     11657  TIP3      H2             -6.8418366405       20.7897677139       -4.1644396465  W2        11657           0.0000000000
     34972     11658  TIP3      OH2            -4.6770066405       19.0645877139       -3.9446396465  W2        11658           0.0000000000
     34973     11658  TIP3      H1             -5.5816366405       19.2296077139       -4.2104296465  W2        11658           0.0000000000
     34974     11658  TIP3      H2             -4.2481466405       19.9178077139       -4.0102996465  W2        11658           0.0000000000
     34975     11659  TIP3      OH2            -2.0728166405       20.6344977139       -3.6498596465  W2        11659           0.0000000000
     34976     11659  TIP3      H1             -2.2546166405       21.5503877139       -3.8603696465  W2        11659           0.0000000000
     34977     11659  TIP3      H2             -1.8960366405       20.2242077139       -4.4963996465  W2        11659           0.0000000000
     34978     11660  TIP3      OH2           -14.7676466405       19.3215977139       -6.1848096465  W2        11660           0.0000000000
     34979     11660  TIP3      H1            -14.7860466405       18.8961077139       -5.3275796465  W2        11660           0.0000000000
     34980     11660  TIP3      H2            -13.9628566405       19.0030977139       -6.5935896465  W2        11660           0.0000000000
     34981     11661  TIP3      OH2           -12.6263366405       18.0314677139       -7.5298196465  W2        11661           0.0000000000
     34982     11661  TIP3      H1            -12.8452666405       17.1152077139       -7.3602196465  W2        11661           0.0000000000
     34983     11661  TIP3      H2            -11.8021166405       18.1715077139       -7.0636796465  W2        11661           0.0000000000
     34984     11662  TIP3      OH2           -10.0890866405       18.5013977139       -6.6810196465  W2        11662           0.0000000000
     34985     11662  TIP3      H1             -9.8765166405       17.6132977139       -6.9679296465  W2        11662           0.0000000000
     34986     11662  TIP3      H2            -10.0245766405       18.4671677139       -5.7266196465  W2        11662           0.0000000000
     34987     11663  TIP3      OH2            -6.5807166405        4.1654577139       -7.5366896465  W2        11663           0.0000000000
     34988     11663  TIP3      H1             -7.2550366405        3.5360177139       -7.2811096465  W2        11663           0.0000000000
     34989     11663  TIP3      H2             -6.0167966405        3.6813477139       -8.1398996465  W2        11663           0.0000000000
     34990     11664  TIP3      OH2            -1.4379966405        2.2728577139       -7.4239796465  W2        11664           0.0000000000
     34991     11664  TIP3      H1             -0.8342366405        2.8203977139       -7.9258796465  W2        11664           0.0000000000
     34992     11664  TIP3      H2             -2.3077966405        2.5918977139       -7.6645696465  W2        11664           0.0000000000
     34993     11665  TIP3      OH2             0.2890433595        3.4117277139       -9.0908896465  W2        11665           0.0000000000
     34994     11665  TIP3      H1              0.9007933595        2.8972977139       -9.6175296465  W2        11665           0.0000000000
     34995     11665  TIP3      H2              0.6713833595        4.2889377139       -9.0674496465  W2        11665           0.0000000000
     34996     11666  TIP3      OH2           -14.2539666405        2.7994877139       -9.7146996465  W2        11666           0.0000000000
     34997     11666  TIP3      H1            -15.0309866405        2.5649777139      -10.2221096465  W2        11666           0.0000000000
     34998     11666  TIP3      H2            -13.7236066405        2.0026977139       -9.7058996465  W2        11666           0.0000000000
     34999     11667  TIP3      OH2           -15.4176266405        2.5972977139      -13.9110896465  W2        11667           0.0000000000
     35000     11667  TIP3      H1            -14.9785566405        3.2083477139      -14.5027396465  W2        11667           0.0000000000
     35001     11667  TIP3      H2            -16.0513866405        3.1357077139      -13.4370896465  W2        11667           0.0000000000
     35002     11668  TIP3      OH2            -9.6747066405        2.7261977139       -9.9013896465  W2        11668           0.0000000000
     35003     11668  TIP3      H1             -8.8003666405        3.1146277139       -9.9309596465  W2        11668           0.0000000000
     35004     11668  TIP3      H2             -9.8106266405        2.5109777139       -8.9786696465  W2        11668           0.0000000000
     35005     11669  TIP3      OH2            -4.1178666405        2.7561777139       -8.2522196465  W2        11669           0.0000000000
     35006     11669  TIP3      H1             -4.0417066405        2.8513377139       -9.2016196465  W2        11669           0.0000000000
     35007     11669  TIP3      H2             -4.3929466405        1.8484677139       -8.1233096465  W2        11669           0.0000000000
     35008     11670  TIP3      OH2            -2.7646066405        2.7819577139      -12.5597196465  W2        11670           0.0000000000
     35009     11670  TIP3      H1             -3.4674966405        3.3968777139      -12.7695796465  W2        11670           0.0000000000
     35010     11670  TIP3      H2             -3.2094666405        1.9446277139      -12.4286296465  W2        11670           0.0000000000
     35011     11671  TIP3      OH2           -15.5166766405       18.5455177139      -13.0135796465  W2        11671           0.0000000000
     35012     11671  TIP3      H1            -16.2016866405       18.5074077139      -13.6810696465  W2        11671           0.0000000000
     35013     11671  TIP3      H2            -15.5129566405       19.4582777139      -12.7253696465  W2        11671           0.0000000000
     35014     11672  TIP3      OH2           -13.5567166405        4.5134477139      -15.4686796465  W2        11672           0.0000000000
     35015     11672  TIP3      H1            -13.0653766405        3.8836877139      -15.9961296465  W2        11672           0.0000000000
     35016     11672  TIP3      H2            -12.9330866405        4.8093877139      -14.8055596465  W2        11672           0.0000000000
     35017     11673  TIP3      OH2            -8.5307066405        4.8065977139      -13.0116296465  W2        11673           0.0000000000
     35018     11673  TIP3      H1             -8.3525766405        4.1599177139      -12.3287696465  W2        11673           0.0000000000
     35019     11673  TIP3      H2             -8.5840866405        5.6403677139      -12.5445196465  W2        11673           0.0000000000
     35020     11674  TIP3      OH2            -6.6523266405       19.7550077139      -14.6159596465  W2        11674           0.0000000000
     35021     11674  TIP3      H1             -5.7863066405       20.1217477139      -14.7941396465  W2        11674           0.0000000000
     35022     11674  TIP3      H2             -6.8990466405       19.3158077139      -15.4298796465  W2        11674           0.0000000000
     35023     11675  TIP3      OH2             0.0566333595       19.3180377139      -11.9368496465  W2        11675           0.0000000000
     35024     11675  TIP3      H1             -0.1376566405       18.5702477139      -12.5018896465  W2        11675           0.0000000000
     35025     11675  TIP3      H2              0.0176433595       20.0760477139      -12.5200596465  W2        11675           0.0000000000
     35026     11676  TIP3      OH2           -14.2961666405        3.3136777139       -0.1970796465  W2        11676           0.0000000000
     35027     11676  TIP3      H1            -14.6623466405        2.5479377139        0.2453903535  W2        11676           0.0000000000
     35028     11676  TIP3      H2            -13.3833166405        3.3426977139        0.0894303535  W2        11676           0.0000000000
     35029     11677  TIP3      OH2           -12.3230866405        2.6641177139        1.3386303535  W2        11677           0.0000000000
     35030     11677  TIP3      H1            -11.4247266405        2.3901377139        1.1539703535  W2        11677           0.0000000000
     35031     11677  TIP3      H2            -12.7097766405        1.9217177139        1.8028903535  W2        11677           0.0000000000
     35032     11678  TIP3      OH2           -13.6985566405       19.4655977139      -15.9883696465  W2        11678           0.0000000000
     35033     11678  TIP3      H1            -13.9660966405       19.7518877139      -15.1150596465  W2        11678           0.0000000000
     35034     11678  TIP3      H2            -12.9272966405       18.9195177139      -15.8361196465  W2        11678           0.0000000000
     35035     11679  TIP3      OH2            -3.9018566405        1.9966477139        1.5209103535  W2        11679           0.0000000000
     35036     11679  TIP3      H1             -3.8251366405        1.5707177139        2.3746803535  W2        11679           0.0000000000
     35037     11679  TIP3      H2             -3.0081966405        2.0101177139        1.1782603535  W2        11679           0.0000000000
     35038     11680  TIP3      OH2            -0.7257466405       18.0692777139        0.2133303535  W2        11680           0.0000000000
     35039     11680  TIP3      H1             -1.5075566405       17.8830777139       -0.3066096465  W2        11680           0.0000000000
     35040     11680  TIP3      H2             -0.7977566405       18.9987077139        0.4305803535  W2        11680           0.0000000000
     35041     11681  TIP3      OH2            13.6802933595       11.9557177139       -9.7559496465  W2        11681           0.0000000000
     35042     11681  TIP3      H1             13.7694033595       12.8995377139       -9.8882396465  W2        11681           0.0000000000
     35043     11681  TIP3      H2             13.0420533595       11.6803577139      -10.4140096465  W2        11681           0.0000000000
     35044     11682  TIP3      OH2            12.6134233595       11.2107877139       -6.3371296465  W2        11682           0.0000000000
     35045     11682  TIP3      H1             12.5751733595       10.5644177139       -5.6321696465  W2        11682           0.0000000000
     35046     11682  TIP3      H2             12.2910733595       10.7442277139       -7.1082596465  W2        11682           0.0000000000
     35047     11683  TIP3      OH2             4.9819233595       10.8249977139       -4.7441396465  W2        11683           0.0000000000
     35048     11683  TIP3      H1              5.0231333595       10.1993277139       -4.0208996465  W2        11683           0.0000000000
     35049     11683  TIP3      H2              5.6846933595       11.4488577139       -4.5620996465  W2        11683           0.0000000000
     35050     11684  TIP3      OH2            16.3194433595       14.1498277139       -8.0356196465  W2        11684           0.0000000000
     35051     11684  TIP3      H1             15.8787133595       13.4294277139       -7.5850596465  W2        11684           0.0000000000
     35052     11684  TIP3      H2             16.3064133595       14.8705477139       -7.4058496465  W2        11684           0.0000000000
     35053     11685  TIP3      OH2             5.9052333595       15.2748877139       -6.2092296465  W2        11685           0.0000000000
     35054     11685  TIP3      H1              5.5357533595       14.4729377139       -6.5787996465  W2        11685           0.0000000000
     35055     11685  TIP3      H2              6.8463433595       15.1063777139       -6.1628896465  W2        11685           0.0000000000
     35056     11686  TIP3      OH2             2.5152833595        8.9351477139      -10.8163496465  W2        11686           0.0000000000
     35057     11686  TIP3      H1              2.0676233595        9.7810177139      -10.8346996465  W2        11686           0.0000000000
     35058     11686  TIP3      H2              1.9544033595        8.3555677139      -11.3318396465  W2        11686           0.0000000000
     35059     11687  TIP3      OH2             3.2258933595       11.0971077139       -8.6905496465  W2        11687           0.0000000000
     35060     11687  TIP3      H1              3.4392433595       10.3272677139       -8.1632496465  W2        11687           0.0000000000
     35061     11687  TIP3      H2              3.9636533595       11.1867777139       -9.2937896465  W2        11687           0.0000000000
     35062     11688  TIP3      OH2            13.4309933595       19.2539977139       -7.8235796465  W2        11688           0.0000000000
     35063     11688  TIP3      H1             14.0506333595       18.5774677139       -8.0966596465  W2        11688           0.0000000000
     35064     11688  TIP3      H2             13.2227333595       19.0360777139       -6.9150896465  W2        11688           0.0000000000
     35065     11689  TIP3      OH2            11.0028633595       13.6429277139       -5.9310296465  W2        11689           0.0000000000
     35066     11689  TIP3      H1             11.3066533595       12.9570677139       -6.5256196465  W2        11689           0.0000000000
     35067     11689  TIP3      H2             11.7242633595       13.7617977139       -5.3132296465  W2        11689           0.0000000000
     35068     11690  TIP3      OH2            19.6658433595        5.2444577139       -5.0704096465  W2        11690           0.0000000000
     35069     11690  TIP3      H1             19.7150633595        5.8545777139       -4.3344996465  W2        11690           0.0000000000
     35070     11690  TIP3      H2             20.0913533595        5.7055477139       -5.7932996465  W2        11690           0.0000000000
     35071     11691  TIP3      OH2            14.1435633595        8.0371677139       -5.6035496465  W2        11691           0.0000000000
     35072     11691  TIP3      H1             14.2861533595        7.0908677139       -5.5833896465  W2        11691           0.0000000000
     35073     11691  TIP3      H2             14.0374633595        8.2441477139       -6.5320596465  W2        11691           0.0000000000
     35074     11692  TIP3      OH2             7.2983933595        6.1388077139       -8.3310696465  W2        11692           0.0000000000
     35075     11692  TIP3      H1              7.3415033595        6.9986577139       -8.7494396465  W2        11692           0.0000000000
     35076     11692  TIP3      H2              6.8408033595        5.5862777139       -8.9647496465  W2        11692           0.0000000000
     35077     11693  TIP3      OH2            15.0206633595        6.2693677139       -9.9302396465  W2        11693           0.0000000000
     35078     11693  TIP3      H1             15.6670933595        5.9406877139       -9.3054796465  W2        11693           0.0000000000
     35079     11693  TIP3      H2             15.5306033595        6.7872677139      -10.5530996465  W2        11693           0.0000000000
     35080     11694  TIP3      OH2             3.9185433595        8.5353877139       -7.5689296465  W2        11694           0.0000000000
     35081     11694  TIP3      H1              4.5722033595        7.9855577139       -7.1369196465  W2        11694           0.0000000000
     35082     11694  TIP3      H2              3.9424733595        8.2612877139       -8.4857296465  W2        11694           0.0000000000
     35083     11695  TIP3      OH2             9.0749933595       10.0855177139       -8.3537796465  W2        11695           0.0000000000
     35084     11695  TIP3      H1              9.6910933595        9.5590577139       -7.8443796465  W2        11695           0.0000000000
     35085     11695  TIP3      H2              8.4888733595        9.4453877139       -8.7574196465  W2        11695           0.0000000000
     35086     11696  TIP3      OH2            20.0573033595        6.7223777139       -2.8344296465  W2        11696           0.0000000000
     35087     11696  TIP3      H1             19.3687633595        7.3804477139       -2.9297696465  W2        11696           0.0000000000
     35088     11696  TIP3      H2             20.0727633595        6.5251677139       -1.8978896465  W2        11696           0.0000000000
     35089     11697  TIP3      OH2             6.1085833595        5.0566477139       -4.2569896465  W2        11697           0.0000000000
     35090     11697  TIP3      H1              5.8897533595        5.5867077139       -5.0233896465  W2        11697           0.0000000000
     35091     11697  TIP3      H2              5.4406733595        5.2831977139       -3.6098496465  W2        11697           0.0000000000
     35092     11698  TIP3      OH2            13.4775633595       14.5567577139      -10.7130796465  W2        11698           0.0000000000
     35093     11698  TIP3      H1             13.1820733595       14.2339877139      -11.5643896465  W2        11698           0.0000000000
     35094     11698  TIP3      H2             13.1533433595       15.4564277139      -10.6718196465  W2        11698           0.0000000000
     35095     11699  TIP3      OH2             8.6777233595       12.7322177139       -3.9696196465  W2        11699           0.0000000000
     35096     11699  TIP3      H1              7.9376333595       13.3303677139       -3.8660996465  W2        11699           0.0000000000
     35097     11699  TIP3      H2              9.3916733595       13.2861777139       -4.2852596465  W2        11699           0.0000000000
     35098     11700  TIP3      OH2            16.7845033595        5.5602977139       -7.9496496465  W2        11700           0.0000000000
     35099     11700  TIP3      H1             16.5693033595        4.7946377139       -7.4170496465  W2        11700           0.0000000000
     35100     11700  TIP3      H2             17.4402433595        6.0327577139       -7.4367996465  W2        11700           0.0000000000
     35101     11701  TIP3      OH2             5.7023133595        6.9488277139       -6.3047696465  W2        11701           0.0000000000
     35102     11701  TIP3      H1              6.3159433595        7.5815877139       -5.9315296465  W2        11701           0.0000000000
     35103     11701  TIP3      H2              6.2143833595        6.4763277139       -6.9610796465  W2        11701           0.0000000000
     35104     11702  TIP3      OH2             7.0851533595       14.6965177139       -3.1824696465  W2        11702           0.0000000000
     35105     11702  TIP3      H1              7.0799133595       15.5758677139       -3.5605396465  W2        11702           0.0000000000
     35106     11702  TIP3      H2              6.2315633595       14.6129277139       -2.7574796465  W2        11702           0.0000000000
     35107     11703  TIP3      OH2             3.2062433595       14.3673077139      -12.4005396465  W2        11703           0.0000000000
     35108     11703  TIP3      H1              2.9343333595       14.5964077139      -13.2892496465  W2        11703           0.0000000000
     35109     11703  TIP3      H2              3.2518133595       15.2051877139      -11.9400096465  W2        11703           0.0000000000
     35110     11704  TIP3      OH2            16.8312133595       15.9888977139       -5.6876896465  W2        11704           0.0000000000
     35111     11704  TIP3      H1             15.8895833595       16.0472877139       -5.5259996465  W2        11704           0.0000000000
     35112     11704  TIP3      H2             17.1078233595       16.8949477139       -5.8247196465  W2        11704           0.0000000000
     35113     11705  TIP3      OH2            17.1319133595        4.2754277139       -4.2702996465  W2        11705           0.0000000000
     35114     11705  TIP3      H1             16.3958333595        4.8861377139       -4.3081696465  W2        11705           0.0000000000
     35115     11705  TIP3      H2             17.8153133595        4.6903277139       -4.7966596465  W2        11705           0.0000000000
     35116     11706  TIP3      OH2            10.1350533595        2.3621577139       -6.8044996465  W2        11706           0.0000000000
     35117     11706  TIP3      H1             10.0174733595        1.4137577139       -6.8586696465  W2        11706           0.0000000000
     35118     11706  TIP3      H2              9.2800633595        2.6947677139       -6.5313896465  W2        11706           0.0000000000
     35119     11707  TIP3      OH2            15.0833333595       17.7702477139       -9.0625296465  W2        11707           0.0000000000
     35120     11707  TIP3      H1             15.5085633595       17.0630377139       -9.5475696465  W2        11707           0.0000000000
     35121     11707  TIP3      H2             15.4003333595       18.5715177139       -9.4793096465  W2        11707           0.0000000000
     35122     11708  TIP3      OH2            16.2429833595       15.6710977139      -10.5538696465  W2        11708           0.0000000000
     35123     11708  TIP3      H1             15.9854633595       14.9811077139      -11.1652796465  W2        11708           0.0000000000
     35124     11708  TIP3      H2             16.3140633595       15.2282177139       -9.7082796465  W2        11708           0.0000000000
     35125     11709  TIP3      OH2            17.9290033595       14.2377677139       -2.0765196465  W2        11709           0.0000000000
     35126     11709  TIP3      H1             18.0686333595       13.6460177139       -2.8158196465  W2        11709           0.0000000000
     35127     11709  TIP3      H2             18.0962833595       15.1103577139       -2.4326396465  W2        11709           0.0000000000
     35128     11710  TIP3      OH2            12.4015433595       11.1997177139      -12.3039196465  W2        11710           0.0000000000
     35129     11710  TIP3      H1             11.6900933595       11.7346877139      -12.6558696465  W2        11710           0.0000000000
     35130     11710  TIP3      H2             13.0925033595       11.2549277139      -12.9640296465  W2        11710           0.0000000000
     35131     11711  TIP3      OH2            12.4554633595        9.6571477139      -15.2654196465  W2        11711           0.0000000000
     35132     11711  TIP3      H1             13.1564533595        9.6798377139      -14.6140196465  W2        11711           0.0000000000
     35133     11711  TIP3      H2             12.7577533595        9.0291177139      -15.9214896465  W2        11711           0.0000000000
     35134     11712  TIP3      OH2            19.7709333595       10.5775677139       -4.0104796465  W2        11712           0.0000000000
     35135     11712  TIP3      H1             19.1183433595       11.2721277139       -3.9213896465  W2        11712           0.0000000000
     35136     11712  TIP3      H2             20.2359633595       10.7876577139       -4.8203196465  W2        11712           0.0000000000
     35137     11713  TIP3      OH2            15.8073133595       11.4090477139      -11.3523296465  W2        11713           0.0000000000
     35138     11713  TIP3      H1             15.0754133595       11.6374177139      -10.7792696465  W2        11713           0.0000000000
     35139     11713  TIP3      H2             16.2545333595       10.6953177139      -10.8975796465  W2        11713           0.0000000000
     35140     11714  TIP3      OH2            15.7046633595        9.5833077139       -2.2846296465  W2        11714           0.0000000000
     35141     11714  TIP3      H1             15.7845733595       10.3467477139       -1.7127796465  W2        11714           0.0000000000
     35142     11714  TIP3      H2             15.1034333595        9.8625477139       -2.9751196465  W2        11714           0.0000000000
     35143     11715  TIP3      OH2             7.4526833595       12.0396677139       -9.4698296465  W2        11715           0.0000000000
     35144     11715  TIP3      H1              7.1222033595       11.6690077139      -10.2881296465  W2        11715           0.0000000000
     35145     11715  TIP3      H2              8.0410933595       11.3690677139       -9.1229996465  W2        11715           0.0000000000
     35146     11716  TIP3      OH2             8.8194333595       15.4677277139       -6.7886096465  W2        11716           0.0000000000
     35147     11716  TIP3      H1              8.7245633595       14.8890377139       -7.5451496465  W2        11716           0.0000000000
     35148     11716  TIP3      H2              9.5487933595       15.0962977139       -6.2923296465  W2        11716           0.0000000000
     35149     11717  TIP3      OH2             7.8192333595       10.8082277139       -5.8363296465  W2        11717           0.0000000000
     35150     11717  TIP3      H1              8.3844833595       10.9296477139       -6.5992096465  W2        11717           0.0000000000
     35151     11717  TIP3      H2              8.1381233595       11.4457277139       -5.1974796465  W2        11717           0.0000000000
     35152     11718  TIP3      OH2            14.1284533595       16.3114177139       -5.1022796465  W2        11718           0.0000000000
     35153     11718  TIP3      H1             13.8881133595       16.9737277139       -4.4543596465  W2        11718           0.0000000000
     35154     11718  TIP3      H2             13.9302733595       15.4769377139       -4.6773196465  W2        11718           0.0000000000
     35155     11719  TIP3      OH2             8.6993033595       15.2074977139       -1.1191396465  W2        11719           0.0000000000
     35156     11719  TIP3      H1              8.3880533595       15.9898177139       -0.6638196465  W2        11719           0.0000000000
     35157     11719  TIP3      H2              8.0493233595       15.0544077139       -1.8049396465  W2        11719           0.0000000000
     35158     11720  TIP3      OH2            14.6782633595       10.5713377139      -13.6672096465  W2        11720           0.0000000000
     35159     11720  TIP3      H1             15.2578133595       10.7213677139      -12.9203196465  W2        11720           0.0000000000
     35160     11720  TIP3      H2             15.0922633595       11.0420777139      -14.3905696465  W2        11720           0.0000000000
     35161     11721  TIP3      OH2             5.6192933595       11.4056077139       -1.8905696465  W2        11721           0.0000000000
     35162     11721  TIP3      H1              5.6896133595       12.0562877139       -1.1920696465  W2        11721           0.0000000000
     35163     11721  TIP3      H2              4.7285133595       11.5083577139       -2.2254796465  W2        11721           0.0000000000
     35164     11722  TIP3      OH2            12.4047533595       17.3081877139      -10.2318996465  W2        11722           0.0000000000
     35165     11722  TIP3      H1             12.8785133595       17.6038177139       -9.4544796465  W2        11722           0.0000000000
     35166     11722  TIP3      H2             11.8416833595       18.0463477139      -10.4649396465  W2        11722           0.0000000000
     35167     11723  TIP3      OH2             6.9388933595       17.2789977139       -0.3557596465  W2        11723           0.0000000000
     35168     11723  TIP3      H1              6.9464233595       17.1429677139       -1.3032096465  W2        11723           0.0000000000
     35169     11723  TIP3      H2              6.0229333595       17.1618077139       -0.1037596465  W2        11723           0.0000000000
     35170     11724  TIP3      OH2            18.3771033595        2.3213777139      -13.8542396465  W2        11724           0.0000000000
     35171     11724  TIP3      H1             17.4771733595        2.4602777139      -13.5591796465  W2        11724           0.0000000000
     35172     11724  TIP3      H2             18.6289433595        3.1528377139      -14.2560696465  W2        11724           0.0000000000
     35173     11725  TIP3      OH2             6.4429533595       11.1090977139      -11.8805496465  W2        11725           0.0000000000
     35174     11725  TIP3      H1              6.1510833595       11.8772677139      -12.3714196465  W2        11725           0.0000000000
     35175     11725  TIP3      H2              5.7684733595       10.4497177139      -12.0434096465  W2        11725           0.0000000000
     35176     11726  TIP3      OH2            19.5662433595       16.6876177139      -15.4778496465  W2        11726           0.0000000000
     35177     11726  TIP3      H1             19.6395933595       17.6266377139      -15.3073196465  W2        11726           0.0000000000
     35178     11726  TIP3      H2             20.4717533595       16.3824777139      -15.5341196465  W2        11726           0.0000000000
     35179     11727  TIP3      OH2             2.5359633595       13.4720177139       -3.0655696465  W2        11727           0.0000000000
     35180     11727  TIP3      H1              2.0348033595       13.4439577139       -3.8805996465  W2        11727           0.0000000000
     35181     11727  TIP3      H2              2.5413333595       12.5663377139       -2.7558396465  W2        11727           0.0000000000
     35182     11728  TIP3      OH2             2.2862333595       16.2523977139       -6.1815496465  W2        11728           0.0000000000
     35183     11728  TIP3      H1              3.2322933595       16.1080977139       -6.2005996465  W2        11728           0.0000000000
     35184     11728  TIP3      H2              2.1738633595       17.0366777139       -5.6444296465  W2        11728           0.0000000000
     35185     11729  TIP3      OH2            20.4840833595       16.9183677139       -0.4991796465  W2        11729           0.0000000000
     35186     11729  TIP3      H1             20.4347633595       15.9631777139       -0.5364196465  W2        11729           0.0000000000
     35187     11729  TIP3      H2             19.6573133595       17.1858977139       -0.0977996465  W2        11729           0.0000000000
     35188     11730  TIP3      OH2            11.4624833595       16.4922877139       -1.6230396465  W2        11730           0.0000000000
     35189     11730  TIP3      H1             11.5499433595       17.3187477139       -1.1481296465  W2        11730           0.0000000000
     35190     11730  TIP3      H2             10.5989933595       16.1626677139       -1.3741096465  W2        11730           0.0000000000
     35191     11731  TIP3      OH2            11.8770633595       20.2646577139      -11.8169796465  W2        11731           0.0000000000
     35192     11731  TIP3      H1             11.8016633595       20.1433777139      -12.7634596465  W2        11731           0.0000000000
     35193     11731  TIP3      H2             11.9099333595       21.2139277139      -11.6985196465  W2        11731           0.0000000000
     35194     11732  TIP3      OH2             5.5304433595       19.0533577139      -10.0360796465  W2        11732           0.0000000000
     35195     11732  TIP3      H1              5.6824833595       18.7053977139       -9.1574296465  W2        11732           0.0000000000
     35196     11732  TIP3      H2              4.6794833595       18.6970877139      -10.2913596465  W2        11732           0.0000000000
     35197     11733  TIP3      OH2            14.9786633595       19.4186777139      -14.8147396465  W2        11733           0.0000000000
     35198     11733  TIP3      H1             15.3535033595       18.6742877139      -15.2854796465  W2        11733           0.0000000000
     35199     11733  TIP3      H2             14.9830333595       19.1487377139      -13.8964096465  W2        11733           0.0000000000
     35200     11734  TIP3      OH2            14.6474733595       19.3443877139      -12.0655196465  W2        11734           0.0000000000
     35201     11734  TIP3      H1             13.7124533595       19.4445777139      -11.8868196465  W2        11734           0.0000000000
     35202     11734  TIP3      H2             14.9276633595       18.6349877139      -11.4871996465  W2        11734           0.0000000000
     35203     11735  TIP3      OH2            17.6360633595        8.4116177139       -0.0189596465  W2        11735           0.0000000000
     35204     11735  TIP3      H1             17.2287433595        8.8921777139       -0.7396296465  W2        11735           0.0000000000
     35205     11735  TIP3      H2             17.6766333595        7.5062177139       -0.3268796465  W2        11735           0.0000000000
     35206     11736  TIP3      OH2             4.7850133595       14.7955577139       -2.0222896465  W2        11736           0.0000000000
     35207     11736  TIP3      H1              5.0011433595       14.4341177139       -1.1627096465  W2        11736           0.0000000000
     35208     11736  TIP3      H2              3.9294833595       14.4209377139       -2.2319396465  W2        11736           0.0000000000
     35209     11737  TIP3      OH2             7.4038133595        3.2656077139       -6.0268696465  W2        11737           0.0000000000
     35210     11737  TIP3      H1              6.5421833595        3.1784277139       -6.4345796465  W2        11737           0.0000000000
     35211     11737  TIP3      H2              7.3813833595        4.1216177139       -5.5991096465  W2        11737           0.0000000000
     35212     11738  TIP3      OH2            12.0665933595        2.9876477139       -2.6521696465  W2        11738           0.0000000000
     35213     11738  TIP3      H1             12.4869033595        2.5723577139       -1.8991096465  W2        11738           0.0000000000
     35214     11738  TIP3      H2             11.1335533595        2.8089777139       -2.5349696465  W2        11738           0.0000000000
     35215     11739  TIP3      OH2            15.3930833595        6.7431677139       -1.7987196465  W2        11739           0.0000000000
     35216     11739  TIP3      H1             14.8790333595        6.6173877139       -1.0011196465  W2        11739           0.0000000000
     35217     11739  TIP3      H2             15.2375533595        7.6554777139       -2.0430996465  W2        11739           0.0000000000
     35218     11740  TIP3      OH2            16.1555733595       11.6041677139      -16.0374196465  W2        11740           0.0000000000
     35219     11740  TIP3      H1             16.1976533595       11.3815577139      -16.9674196465  W2        11740           0.0000000000
     35220     11740  TIP3      H2             17.0047833595       12.0028777139      -15.8474296465  W2        11740           0.0000000000
     35221     11741  TIP3      OH2            11.7283233595        5.4799877139      -15.3670896465  W2        11741           0.0000000000
     35222     11741  TIP3      H1             11.4748033595        5.4991477139      -14.4442796465  W2        11741           0.0000000000
     35223     11741  TIP3      H2             11.4715333595        4.6085277139      -15.6684696465  W2        11741           0.0000000000
     35224     11742  TIP3      OH2             7.4948233595        8.2310577139       -4.9318496465  W2        11742           0.0000000000
     35225     11742  TIP3      H1              6.8530333595        8.1907877139       -4.2228396465  W2        11742           0.0000000000
     35226     11742  TIP3      H2              7.5320233595        9.1575277139       -5.1695496465  W2        11742           0.0000000000
     35227     11743  TIP3      OH2             7.4917333595        8.4520677139      -10.0198496465  W2        11743           0.0000000000
     35228     11743  TIP3      H1              6.5990233595        8.1116777139      -10.0784696465  W2        11743           0.0000000000
     35229     11743  TIP3      H2              7.9423933595        8.0751577139      -10.7755296465  W2        11743           0.0000000000
     35230     11744  TIP3      OH2            13.0272833595        8.8680977139      -11.2027696465  W2        11744           0.0000000000
     35231     11744  TIP3      H1             12.6183133595        9.6829577139      -11.4942896465  W2        11744           0.0000000000
     35232     11744  TIP3      H2             13.7479033595        8.7281077139      -11.8170596465  W2        11744           0.0000000000
     35233     11745  TIP3      OH2            12.1294433595        9.0437377139        0.2853003535  W2        11745           0.0000000000
     35234     11745  TIP3      H1             11.5668233595        8.3388977139        0.6060803535  W2        11745           0.0000000000
     35235     11745  TIP3      H2             12.9557833595        8.9229277139        0.7530603535  W2        11745           0.0000000000
     35236     11746  TIP3      OH2            14.0320533595        8.3141377139       -8.3887996465  W2        11746           0.0000000000
     35237     11746  TIP3      H1             13.8365033595        8.9198177139       -9.1037396465  W2        11746           0.0000000000
     35238     11746  TIP3      H2             14.2133133595        7.4806577139       -8.8231696465  W2        11746           0.0000000000
     35239     11747  TIP3      OH2             5.2448733595        8.5514077139       -3.0646496465  W2        11747           0.0000000000
     35240     11747  TIP3      H1              5.2068133595        8.9515677139       -2.1959396465  W2        11747           0.0000000000
     35241     11747  TIP3      H2              4.7539833595        7.7346477139       -2.9743596465  W2        11747           0.0000000000
     35242     11748  TIP3      OH2             8.6106133595        5.9256377139      -16.2660496465  W2        11748           0.0000000000
     35243     11748  TIP3      H1              8.1796833595        5.4806477139      -15.5363096465  W2        11748           0.0000000000
     35244     11748  TIP3      H2              7.8924833595        6.2972677139      -16.7782996465  W2        11748           0.0000000000
     35245     11749  TIP3      OH2             1.8529533595        5.6675877139       -9.2141796465  W2        11749           0.0000000000
     35246     11749  TIP3      H1              2.4837233595        5.6387977139       -8.4947896465  W2        11749           0.0000000000
     35247     11749  TIP3      H2              2.3023833595        5.2424577139       -9.9445896465  W2        11749           0.0000000000
     35248     11750  TIP3      OH2             3.1271633595        6.4137877139      -13.7901396465  W2        11750           0.0000000000
     35249     11750  TIP3      H1              3.6013333595        7.0047777139      -14.3750496465  W2        11750           0.0000000000
     35250     11750  TIP3      H2              2.4098033595        6.9440777139      -13.4431296465  W2        11750           0.0000000000
     35251     11751  TIP3      OH2            13.2959733595        9.9522677139       -3.7175596465  W2        11751           0.0000000000
     35252     11751  TIP3      H1             13.6194533595        9.3212377139       -4.3605096465  W2        11751           0.0000000000
     35253     11751  TIP3      H2             12.8559033595        9.4174877139       -3.0568196465  W2        11751           0.0000000000
     35254     11752  TIP3      OH2            10.0732633595        5.8798177139       -8.9334396465  W2        11752           0.0000000000
     35255     11752  TIP3      H1              9.1623733595        5.9364977139       -8.6448396465  W2        11752           0.0000000000
     35256     11752  TIP3      H2             10.5785533595        5.8193677139       -8.1227196465  W2        11752           0.0000000000
     35257     11753  TIP3      OH2             4.9016033595        7.5084477139      -10.1066796465  W2        11753           0.0000000000
     35258     11753  TIP3      H1              4.0124033595        7.6079977139      -10.4467196465  W2        11753           0.0000000000
     35259     11753  TIP3      H2              5.1980933595        6.6667477139      -10.4528896465  W2        11753           0.0000000000
     35260     11754  TIP3      OH2             8.5547833595        7.5087077139      -12.4502196465  W2        11754           0.0000000000
     35261     11754  TIP3      H1              9.4863333595        7.6377077139      -12.2719096465  W2        11754           0.0000000000
     35262     11754  TIP3      H2              8.3398133595        8.1781377139      -13.0997496465  W2        11754           0.0000000000
     35263     11755  TIP3      OH2            14.4784533595        5.1144477139       -5.6692596465  W2        11755           0.0000000000
     35264     11755  TIP3      H1             13.8016133595        5.2457577139       -5.0052896465  W2        11755           0.0000000000
     35265     11755  TIP3      H2             13.9929433595        4.9593977139       -6.4794896465  W2        11755           0.0000000000
     35266     11756  TIP3      OH2             7.2288033595        8.7029277139      -14.8836096465  W2        11756           0.0000000000
     35267     11756  TIP3      H1              6.6863133595        8.3233077139      -15.5748496465  W2        11756           0.0000000000
     35268     11756  TIP3      H2              8.0622933595        8.8973977139      -15.3121996465  W2        11756           0.0000000000
     35269     11757  TIP3      OH2            17.7659633595       20.7859877139        0.6075003535  W2        11757           0.0000000000
     35270     11757  TIP3      H1             17.9658333595       21.2101777139       -0.2269696465  W2        11757           0.0000000000
     35271     11757  TIP3      H2             18.4213333595       21.1298077139        1.2145403535  W2        11757           0.0000000000
     35272     11758  TIP3      OH2             5.3639433595       13.2601177139        0.2155503535  W2        11758           0.0000000000
     35273     11758  TIP3      H1              6.0961833595       13.5147077139        0.7770003535  W2        11758           0.0000000000
     35274     11758  TIP3      H2              4.5838133595       13.4646577139        0.7310903535  W2        11758           0.0000000000
     35275     11759  TIP3      OH2            11.3932333595        8.6671177139       -7.0464796465  W2        11759           0.0000000000
     35276     11759  TIP3      H1             11.9575733595        8.1207777139       -7.5935196465  W2        11759           0.0000000000
     35277     11759  TIP3      H2             11.2455733595        8.1453077139       -6.2577196465  W2        11759           0.0000000000
     35278     11760  TIP3      OH2             6.3952033595        4.8037277139      -10.6279996465  W2        11760           0.0000000000
     35279     11760  TIP3      H1              6.0781533595        3.9012577139      -10.6634596465  W2        11760           0.0000000000
     35280     11760  TIP3      H2              7.1766133595        4.8054677139      -11.1808396465  W2        11760           0.0000000000
     35281     11761  TIP3      OH2            10.0198233595        7.0557277139       -4.6324396465  W2        11761           0.0000000000
     35282     11761  TIP3      H1              9.1843533595        7.5096777139       -4.5221996465  W2        11761           0.0000000000
     35283     11761  TIP3      H2             10.5438833595        7.3315777139       -3.8804496465  W2        11761           0.0000000000
     35284     11762  TIP3      OH2            10.5640833595       13.2684977139      -12.9477996465  W2        11762           0.0000000000
     35285     11762  TIP3      H1              9.8191833595       12.7610277139      -13.2700096465  W2        11762           0.0000000000
     35286     11762  TIP3      H2             10.4298033595       13.3172977139      -12.0013196465  W2        11762           0.0000000000
     35287     11763  TIP3      OH2            17.7139733595       12.4013177139       -4.1610396465  W2        11763           0.0000000000
     35288     11763  TIP3      H1             18.3558533595       12.8579477139       -4.7048196465  W2        11763           0.0000000000
     35289     11763  TIP3      H2             16.8836633595       12.5145577139       -4.6236296465  W2        11763           0.0000000000
     35290     11764  TIP3      OH2            14.4617633595        6.0824877139      -14.7485396465  W2        11764           0.0000000000
     35291     11764  TIP3      H1             13.5231833595        6.1940477139      -14.8996596465  W2        11764           0.0000000000
     35292     11764  TIP3      H2             14.7589733595        6.9391777139      -14.4419696465  W2        11764           0.0000000000
     35293     11765  TIP3      OH2            12.0832933595       13.4528277139       -1.7108896465  W2        11765           0.0000000000
     35294     11765  TIP3      H1             11.7379033595       13.0710677139       -0.9039296465  W2        11765           0.0000000000
     35295     11765  TIP3      H2             11.8833033595       14.3861877139       -1.6395996465  W2        11765           0.0000000000
     35296     11766  TIP3      OH2            15.1801133595        7.9497577139      -13.0877996465  W2        11766           0.0000000000
     35297     11766  TIP3      H1             16.0720133595        7.8122577139      -12.7686796465  W2        11766           0.0000000000
     35298     11766  TIP3      H2             15.2364733595        8.7403677139      -13.6244496465  W2        11766           0.0000000000
     35299     11767  TIP3      OH2             5.6889133595       12.5634977139       -7.1780096465  W2        11767           0.0000000000
     35300     11767  TIP3      H1              6.4336333595       12.5610677139       -7.7793596465  W2        11767           0.0000000000
     35301     11767  TIP3      H2              5.7665733595       11.7398777139       -6.6964996465  W2        11767           0.0000000000
     35302     11768  TIP3      OH2            12.6894933595       14.7269277139      -13.9223396465  W2        11768           0.0000000000
     35303     11768  TIP3      H1             12.3943333595       15.5537177139      -13.5408596465  W2        11768           0.0000000000
     35304     11768  TIP3      H2             11.9864933595       14.1076177139      -13.7261996465  W2        11768           0.0000000000
     35305     11769  TIP3      OH2             2.6968833595       11.0241877139       -1.8631596465  W2        11769           0.0000000000
     35306     11769  TIP3      H1              2.9197433595       10.6061477139       -1.0314096465  W2        11769           0.0000000000
     35307     11769  TIP3      H2              2.0948933595       10.4116877139       -2.2858796465  W2        11769           0.0000000000
     35308     11770  TIP3      OH2             9.7133733595       10.5411777139        0.3498103535  W2        11770           0.0000000000
     35309     11770  TIP3      H1              9.4174533595       10.3754777139       -0.5452796465  W2        11770           0.0000000000
     35310     11770  TIP3      H2             10.6448933595       10.3212077139        0.3392003535  W2        11770           0.0000000000
     35311     11771  TIP3      OH2            14.3336533595       15.9143777139       -1.7603896465  W2        11771           0.0000000000
     35312     11771  TIP3      H1             13.4330833595       16.0976377139       -2.0279996465  W2        11771           0.0000000000
     35313     11771  TIP3      H2             14.3677633595       16.1733077139       -0.8395096465  W2        11771           0.0000000000
     35314     11772  TIP3      OH2            20.0649833595        8.1591677139      -13.3931296465  W2        11772           0.0000000000
     35315     11772  TIP3      H1             19.5106133595        7.7629677139      -14.0653796465  W2        11772           0.0000000000
     35316     11772  TIP3      H2             20.1653433595        9.0696877139      -13.6707996465  W2        11772           0.0000000000
     35317     11773  TIP3      OH2            20.0281833595       13.9593377139       -0.5559796465  W2        11773           0.0000000000
     35318     11773  TIP3      H1             19.1770333595       14.1977177139       -0.9233396465  W2        11773           0.0000000000
     35319     11773  TIP3      H2             20.6185233595       13.9426577139       -1.3092696465  W2        11773           0.0000000000
     35320     11774  TIP3      OH2            18.3601533595       16.9452077139      -12.9279196465  W2        11774           0.0000000000
     35321     11774  TIP3      H1             17.9872633595       16.1195877139      -12.6188596465  W2        11774           0.0000000000
     35322     11774  TIP3      H2             18.6375033595       16.7621477139      -13.8255796465  W2        11774           0.0000000000
     35323     11775  TIP3      OH2            15.5205433595       11.7531577139       -5.9067296465  W2        11775           0.0000000000
     35324     11775  TIP3      H1             14.5922333595       11.5213477139       -5.9337996465  W2        11775           0.0000000000
     35325     11775  TIP3      H2             15.9716533595       10.9761377139       -6.2368496465  W2        11775           0.0000000000
     35326     11776  TIP3      OH2             8.0638533595       16.0813177139       -9.7738596465  W2        11776           0.0000000000
     35327     11776  TIP3      H1              8.5910733595       16.8547577139       -9.9739796465  W2        11776           0.0000000000
     35328     11776  TIP3      H2              7.1837033595       16.3062377139      -10.0754596465  W2        11776           0.0000000000
     35329     11777  TIP3      OH2             3.8186233595       10.9437277139      -15.1866196465  W2        11777           0.0000000000
     35330     11777  TIP3      H1              4.4346133595       11.5704477139      -14.8071396465  W2        11777           0.0000000000
     35331     11777  TIP3      H2              2.9568833595       11.2597077139      -14.9149696465  W2        11777           0.0000000000
     35332     11778  TIP3      OH2             9.4910833595       13.7443077139      -10.1974296465  W2        11778           0.0000000000
     35333     11778  TIP3      H1              9.2500833595       14.6697477139      -10.1558996465  W2        11778           0.0000000000
     35334     11778  TIP3      H2              8.7504433595       13.2854377139       -9.8010396465  W2        11778           0.0000000000
     35335     11779  TIP3      OH2            10.0057433595       17.8936677139       -3.8823196465  W2        11779           0.0000000000
     35336     11779  TIP3      H1             10.3682133595       18.7482277139       -4.1158796465  W2        11779           0.0000000000
     35337     11779  TIP3      H2             10.5372633595       17.6018277139       -3.1416896465  W2        11779           0.0000000000
     35338     11780  TIP3      OH2             8.1741633595       18.7660677139      -10.6522096465  W2        11780           0.0000000000
     35339     11780  TIP3      H1              7.2242133595       18.8718077139      -10.6008796465  W2        11780           0.0000000000
     35340     11780  TIP3      H2              8.5259733595       19.5868077139      -10.3074596465  W2        11780           0.0000000000
     35341     11781  TIP3      OH2            13.5498233595       13.9927377139       -4.1817596465  W2        11781           0.0000000000
     35342     11781  TIP3      H1             13.1239533595       13.7649077139       -3.3553596465  W2        11781           0.0000000000
     35343     11781  TIP3      H2             14.1304033595       13.2539177139       -4.3642296465  W2        11781           0.0000000000
     35344     11782  TIP3      OH2            15.7527133595       14.9217877139      -15.1078596465  W2        11782           0.0000000000
     35345     11782  TIP3      H1             16.1060233595       14.5417677139      -14.3035096465  W2        11782           0.0000000000
     35346     11782  TIP3      H2             14.8040633595       14.8282677139      -15.0209296465  W2        11782           0.0000000000
     35347     11783  TIP3      OH2            16.2082433595       18.5446877139       -1.7122796465  W2        11783           0.0000000000
     35348     11783  TIP3      H1             15.6065633595       17.9889777139       -2.2076496465  W2        11783           0.0000000000
     35349     11783  TIP3      H2             16.4896133595       19.2116677139       -2.3385396465  W2        11783           0.0000000000
     35350     11784  TIP3      OH2            20.2561533595       19.4010377139      -14.9068396465  W2        11784           0.0000000000
     35351     11784  TIP3      H1             20.9999433595       19.9870877139      -15.0466796465  W2        11784           0.0000000000
     35352     11784  TIP3      H2             19.5619633595       19.9696177139      -14.5735996465  W2        11784           0.0000000000
     35353     11785  TIP3      OH2             4.3308333595        5.7774577139       -2.3050196465  W2        11785           0.0000000000
     35354     11785  TIP3      H1              3.4380633595        6.1159977139       -2.3726196465  W2        11785           0.0000000000
     35355     11785  TIP3      H2              4.2321133595        4.9220677139       -1.8869396465  W2        11785           0.0000000000
     35356     11786  TIP3      OH2            16.6186433595       13.5939877139      -12.8810696465  W2        11786           0.0000000000
     35357     11786  TIP3      H1             16.3414033595       12.8659177139      -12.3249596465  W2        11786           0.0000000000
     35358     11786  TIP3      H2             17.5459433595       13.7131877139      -12.6758096465  W2        11786           0.0000000000
     35359     11787  TIP3      OH2             3.9820333595       17.5818977139       -3.8700796465  W2        11787           0.0000000000
     35360     11787  TIP3      H1              4.1990633595       16.6501377139       -3.9011096465  W2        11787           0.0000000000
     35361     11787  TIP3      H2              4.2283833595       17.8563977139       -2.9867996465  W2        11787           0.0000000000
     35362     11788  TIP3      OH2             9.8434933595       16.0333977139      -16.6608596465  W2        11788           0.0000000000
     35363     11788  TIP3      H1             10.0824733595       15.2852077139      -17.2079696465  W2        11788           0.0000000000
     35364     11788  TIP3      H2              9.5746233595       15.6455677139      -15.8280796465  W2        11788           0.0000000000
     35365     11789  TIP3      OH2             8.7805533595       15.6037777139      -14.2045996465  W2        11789           0.0000000000
     35366     11789  TIP3      H1              8.9273533595       15.0837577139      -13.4145096465  W2        11789           0.0000000000
     35367     11789  TIP3      H2              8.7777233595       16.5105377139      -13.8980096465  W2        11789           0.0000000000
     35368     11790  TIP3      OH2             5.2336633595       12.8561077139      -13.6940596465  W2        11790           0.0000000000
     35369     11790  TIP3      H1              4.5475933595       13.2083577139      -13.1270896465  W2        11790           0.0000000000
     35370     11790  TIP3      H2              5.7564533595       13.6190677139      -13.9406296465  W2        11790           0.0000000000
     35371     11791  TIP3      OH2            13.0651733595        5.5184877139       -3.4151596465  W2        11791           0.0000000000
     35372     11791  TIP3      H1             13.7639633595        5.5923577139       -2.7651896465  W2        11791           0.0000000000
     35373     11791  TIP3      H2             12.6843133595        4.6539877139       -3.2608696465  W2        11791           0.0000000000
     35374     11792  TIP3      OH2            13.8496633595        5.1706577139      -12.3179296465  W2        11792           0.0000000000
     35375     11792  TIP3      H1             14.0694933595        5.6421977139      -13.1213896465  W2        11792           0.0000000000
     35376     11792  TIP3      H2             14.4080633595        5.5649177139      -11.6478696465  W2        11792           0.0000000000
     35377     11793  TIP3      OH2            11.5182733595       17.3011377139      -13.4551796465  W2        11793           0.0000000000
     35378     11793  TIP3      H1             10.7018833595       17.7981077139      -13.4027496465  W2        11793           0.0000000000
     35379     11793  TIP3      H2             12.0479033595       17.7764877139      -14.0952996465  W2        11793           0.0000000000
     35380     11794  TIP3      OH2            11.0496533595        6.8985377139      -11.4830896465  W2        11794           0.0000000000
     35381     11794  TIP3      H1             11.8619133595        7.4028577139      -11.4369196465  W2        11794           0.0000000000
     35382     11794  TIP3      H2             10.8049533595        6.7535077139      -10.5691296465  W2        11794           0.0000000000
     35383     11795  TIP3      OH2            11.5852933595        7.8848077139       -2.2984296465  W2        11795           0.0000000000
     35384     11795  TIP3      H1             11.7043233595        8.4583477139       -1.5413896465  W2        11795           0.0000000000
     35385     11795  TIP3      H2             12.2407533595        7.1967477139       -2.1836496465  W2        11795           0.0000000000
     35386     11796  TIP3      OH2            11.9333233595        3.9798377139      -10.5449796465  W2        11796           0.0000000000
     35387     11796  TIP3      H1             11.5866733595        4.5968977139       -9.9005496465  W2        11796           0.0000000000
     35388     11796  TIP3      H2             12.5920133595        4.4804077139      -11.0264296465  W2        11796           0.0000000000
     35389     11797  TIP3      OH2             8.8565833595       18.3448577139      -13.4734896465  W2        11797           0.0000000000
     35390     11797  TIP3      H1              9.0174533595       19.1446077139      -13.9742296465  W2        11797           0.0000000000
     35391     11797  TIP3      H2              8.6593633595       18.6514577139      -12.5884296465  W2        11797           0.0000000000
     35392     11798  TIP3      OH2             7.5910233595        5.0427777139      -13.8577296465  W2        11798           0.0000000000
     35393     11798  TIP3      H1              7.5075033595        5.9310877139      -13.5110896465  W2        11798           0.0000000000
     35394     11798  TIP3      H2              8.4810533595        4.7774477139      -13.6260496465  W2        11798           0.0000000000
     35395     11799  TIP3      OH2            17.7898733595        5.7918377139       -1.4634596465  W2        11799           0.0000000000
     35396     11799  TIP3      H1             16.8734533595        6.0540077139       -1.5510896465  W2        11799           0.0000000000
     35397     11799  TIP3      H2             18.1253733595        5.7887377139       -2.3599296465  W2        11799           0.0000000000
     35398     11800  TIP3      OH2            16.3919733595        9.5419377139       -7.3677296465  W2        11800           0.0000000000
     35399     11800  TIP3      H1             15.5944133595        9.1269577139       -7.6962296465  W2        11800           0.0000000000
     35400     11800  TIP3      H2             16.8370833595        8.8513077139       -6.8766796465  W2        11800           0.0000000000
     35401     11801  TIP3      OH2             5.8495533595       15.4699977139      -14.7972796465  W2        11801           0.0000000000
     35402     11801  TIP3      H1              6.4417033595       16.1694777139      -14.5210396465  W2        11801           0.0000000000
     35403     11801  TIP3      H2              6.3088533595       15.0369477139      -15.5168196465  W2        11801           0.0000000000
     35404     11802  TIP3      OH2             4.1654733595        8.1342977139      -15.6813396465  W2        11802           0.0000000000
     35405     11802  TIP3      H1              4.1207333595        9.0736077139      -15.5026396465  W2        11802           0.0000000000
     35406     11802  TIP3      H2              3.2777933595        7.8987877139      -15.9511296465  W2        11802           0.0000000000
     35407     11803  TIP3      OH2            17.4784333595       18.7981877139       -5.7453796465  W2        11803           0.0000000000
     35408     11803  TIP3      H1             17.3228633595       19.4766277139       -6.4024496465  W2        11803           0.0000000000
     35409     11803  TIP3      H2             18.4110733595       18.8701177139       -5.5423196465  W2        11803           0.0000000000
     35410     11804  TIP3      OH2             4.9736733595        2.9159577139       -7.0082396465  W2        11804           0.0000000000
     35411     11804  TIP3      H1              4.7446533595        2.9752077139       -7.9357396465  W2        11804           0.0000000000
     35412     11804  TIP3      H2              4.5310133595        2.1245077139       -6.7018296465  W2        11804           0.0000000000
     35413     11805  TIP3      OH2             3.9040033595       16.8566677139      -10.8476596465  W2        11805           0.0000000000
     35414     11805  TIP3      H1              3.0718633595       17.3289377139      -10.8205196465  W2        11805           0.0000000000
     35415     11805  TIP3      H2              4.4498333595       17.3664277139      -11.4463496465  W2        11805           0.0000000000
     35416     11806  TIP3      OH2             3.1923733595       19.4690377139        0.4821403535  W2        11806           0.0000000000
     35417     11806  TIP3      H1              3.7325933595       19.2524377139        1.2420603535  W2        11806           0.0000000000
     35418     11806  TIP3      H2              2.7111733595       18.6636377139        0.2923903535  W2        11806           0.0000000000
     35419     11807  TIP3      OH2             7.7897133595       18.3884777139        2.1025603535  W2        11807           0.0000000000
     35420     11807  TIP3      H1              8.5574333595       17.9295577139        2.4434803535  W2        11807           0.0000000000
     35421     11807  TIP3      H2              7.7683333595       18.1624577139        1.1726803535  W2        11807           0.0000000000
     35422     11808  TIP3      OH2            11.8816733595       17.8965377139      -16.5222596465  W2        11808           0.0000000000
     35423     11808  TIP3      H1             11.2377733595       17.2653977139      -16.2008896465  W2        11808           0.0000000000
     35424     11808  TIP3      H2             12.6435033595       17.3653377139      -16.7539096465  W2        11808           0.0000000000
     35425     11809  TIP3      OH2            14.3665833595       16.7685877139        0.8317103535  W2        11809           0.0000000000
     35426     11809  TIP3      H1             14.0155333595       15.9118877139        1.0747503535  W2        11809           0.0000000000
     35427     11809  TIP3      H2             15.0929033595       16.9112577139        1.4386103535  W2        11809           0.0000000000
     35428     11810  TIP3      OH2            16.4859633595       17.7135277139      -16.2884596465  W2        11810           0.0000000000
     35429     11810  TIP3      H1             16.7690033595       16.9190477139      -15.8357696465  W2        11810           0.0000000000
     35430     11810  TIP3      H2             17.2257533595       17.9466277139      -16.8493496465  W2        11810           0.0000000000
     35431     11811  TIP3      OH2             3.0993233595       13.2794477139        1.4365703535  W2        11811           0.0000000000
     35432     11811  TIP3      H1              3.2433733595       12.3775177139        1.1502403535  W2        11811           0.0000000000
     35433     11811  TIP3      H2              2.3270633595       13.5656577139        0.9488003535  W2        11811           0.0000000000
     35434     11812  TIP3      OH2             7.4406933595       13.6230177139      -16.4309696465  W2        11812           0.0000000000
     35435     11812  TIP3      H1              7.5051033595       12.8289777139      -15.9003296465  W2        11812           0.0000000000
     35436     11812  TIP3      H2              8.0936133595       13.5042977139      -17.1207696465  W2        11812           0.0000000000
     35437     11813  TIP3      OH2             9.7549333595       13.2492577139        0.8692103535  W2        11813           0.0000000000
     35438     11813  TIP3      H1              9.4263133595       13.5200677139        0.0119503535  W2        11813           0.0000000000
     35439     11813  TIP3      H2              9.9067533595       12.3082377139        0.7817103535  W2        11813           0.0000000000
     35440     11814  TIP3      OH2            12.7930333595       14.6701877139      -16.6951696465  W2        11814           0.0000000000
     35441     11814  TIP3      H1             12.5244433595       14.8503977139      -15.7942796465  W2        11814           0.0000000000
     35442     11814  TIP3      H2             12.5865933595       13.7448077139      -16.8265896465  W2        11814           0.0000000000
     35443     11815  TIP3      OH2            15.4894533595       13.1649877139       -1.7475596465  W2        11815           0.0000000000
     35444     11815  TIP3      H1             16.2349333595       13.7533577139       -1.8671596465  W2        11815           0.0000000000
     35445     11815  TIP3      H2             14.7321333595       13.7469577139       -1.6842496465  W2        11815           0.0000000000
     35446     11816  TIP3      OH2             3.9319733595       10.4797777139        0.8565003535  W2        11816           0.0000000000
     35447     11816  TIP3      H1              4.3400933595        9.6224377139        0.7355603535  W2        11816           0.0000000000
     35448     11816  TIP3      H2              3.6717333595       10.4939077139        1.7775303535  W2        11816           0.0000000000
     35449     11817  TIP3      OH2             8.5900733595       11.5956377139      -14.1251696465  W2        11817           0.0000000000
     35450     11817  TIP3      H1              8.1302733595       11.1114677139      -13.4393196465  W2        11817           0.0000000000
     35451     11817  TIP3      H2              8.8449433595       10.9271777139      -14.7611196465  W2        11817           0.0000000000
     35452     11818  TIP3      OH2             7.8790033595        9.4883477139       -1.7692096465  W2        11818           0.0000000000
     35453     11818  TIP3      H1              7.2606133595       10.1630077139       -1.4887396465  W2        11818           0.0000000000
     35454     11818  TIP3      H2              8.2231233595        9.8097377139       -2.6025896465  W2        11818           0.0000000000
     35455     11819  TIP3      OH2             9.6611133595        9.8388177139      -15.8628496465  W2        11819           0.0000000000
     35456     11819  TIP3      H1              9.4806133595        9.6839377139      -16.7900196465  W2        11819           0.0000000000
     35457     11819  TIP3      H2             10.6111633595        9.9466877139      -15.8180596465  W2        11819           0.0000000000
     35458     11820  TIP3      OH2            12.8988233595       11.9598777139        1.5082703535  W2        11820           0.0000000000
     35459     11820  TIP3      H1             13.8519433595       12.0437877139        1.4808703535  W2        11820           0.0000000000
     35460     11820  TIP3      H2             12.7382833595       11.2480577139        2.1277603535  W2        11820           0.0000000000
     35461     11821  TIP3      OH2            19.0509433595       12.1932377139      -16.4170396465  W2        11821           0.0000000000
     35462     11821  TIP3      H1             18.7774233595       11.7687877139      -17.2302096465  W2        11821           0.0000000000
     35463     11821  TIP3      H2             19.0903533595       13.1246877139      -16.6339996465  W2        11821           0.0000000000
     35464     11822  TIP3      OH2             8.2183733595        6.8434277139       -0.6868996465  W2        11822           0.0000000000
     35465     11822  TIP3      H1              8.3684633595        6.1145577139       -1.2889296465  W2        11822           0.0000000000
     35466     11822  TIP3      H2              8.2206133595        7.6205977139       -1.2456796465  W2        11822           0.0000000000
     35467     11823  TIP3      OH2             8.6309433595        5.2130077139       -3.1941596465  W2        11823           0.0000000000
     35468     11823  TIP3      H1              9.1666933595        5.6646777139       -3.8462296465  W2        11823           0.0000000000
     35469     11823  TIP3      H2              7.7789033595        5.1049877139       -3.6167496465  W2        11823           0.0000000000
     35470     11824  TIP3      OH2            10.2127833595       10.6526277139       -2.9546396465  W2        11824           0.0000000000
     35471     11824  TIP3      H1             10.9632633595       10.4963777139       -3.5278596465  W2        11824           0.0000000000
     35472     11824  TIP3      H2              9.8736133595       11.5042877139       -3.2300896465  W2        11824           0.0000000000
     35473     11825  TIP3      OH2            14.6284033595        8.4678077139        2.0738903535  W2        11825           0.0000000000
     35474     11825  TIP3      H1             14.8205333595        7.5367477139        1.9623403535  W2        11825           0.0000000000
     35475     11825  TIP3      H2             15.4860333595        8.8927577139        2.0634303535  W2        11825           0.0000000000
     35476     11826  TIP3      OH2            15.9451233595       11.2563277139        0.1511603535  W2        11826           0.0000000000
     35477     11826  TIP3      H1             15.6636233595       11.9657877139       -0.4264596465  W2        11826           0.0000000000
     35478     11826  TIP3      H2             16.8875533595       11.1836277139        0.0002803535  W2        11826           0.0000000000
     35479     11827  TIP3      OH2             6.6970033595        8.0417777139        1.2246603535  W2        11827           0.0000000000
     35480     11827  TIP3      H1              5.9299033595        7.5092577139        1.0144203535  W2        11827           0.0000000000
     35481     11827  TIP3      H2              7.3759033595        7.7318177139        0.6252903535  W2        11827           0.0000000000
     35482     11828  TIP3      OH2             9.4364933595        2.6695777139       -2.7627996465  W2        11828           0.0000000000
     35483     11828  TIP3      H1              9.3384533595        3.6158977139       -2.8681796465  W2        11828           0.0000000000
     35484     11828  TIP3      H2              8.6941133595        2.2969577139       -3.2384496465  W2        11828           0.0000000000
     35485     11829  TIP3      OH2            10.7005433595        6.9911177139        0.8010403535  W2        11829           0.0000000000
     35486     11829  TIP3      H1             10.4650833595        6.7717877139        1.7025303535  W2        11829           0.0000000000
     35487     11829  TIP3      H2              9.9172333595        6.7842377139        0.2912903535  W2        11829           0.0000000000
     35488     11830  TIP3      OH2            13.4162033595        6.1184677139       -0.1236096465  W2        11830           0.0000000000
     35489     11830  TIP3      H1             12.4687433595        6.1504377139        0.0087203535  W2        11830           0.0000000000
     35490     11830  TIP3      H2             13.7288733595        5.4931777139        0.5302103535  W2        11830           0.0000000000
     35491     11831  TIP3      OH2            15.0503533595        4.7525777139        1.8815803535  W2        11831           0.0000000000
     35492     11831  TIP3      H1             14.9535333595        3.8003077139        1.8757703535  W2        11831           0.0000000000
     35493     11831  TIP3      H2             14.7286633595        5.0212577139        2.7421303535  W2        11831           0.0000000000
     35494     11832  TIP3      OH2             4.8772833595        5.9621577139        0.9291303535  W2        11832           0.0000000000
     35495     11832  TIP3      H1              5.0890233595        5.2557677139        0.3188803535  W2        11832           0.0000000000
     35496     11832  TIP3      H2              4.7660333595        5.5247577139        1.7732503535  W2        11832           0.0000000000
     35497     11833  TIP3      OH2             9.6583033595        1.9633177139       -0.0915196465  W2        11833           0.0000000000
     35498     11833  TIP3      H1             10.3701433595        1.3235377139       -0.1056096465  W2        11833           0.0000000000
     35499     11833  TIP3      H2              9.5573433595        2.2301477139       -1.0052096465  W2        11833           0.0000000000
     35500     11834  TIP3      OH2            10.0120533595        3.6461577139        1.9621103535  W2        11834           0.0000000000
     35501     11834  TIP3      H1              9.8802733595        3.1705377139        1.1419603535  W2        11834           0.0000000000
     35502     11834  TIP3      H2              9.4127933595        4.3905177139        1.9068203535  W2        11834           0.0000000000
     35503     11835  TIP3      OH2             9.5582833595       20.5291877139      -14.8614896465  W2        11835           0.0000000000
     35504     11835  TIP3      H1             10.4913533595       20.6870577139      -14.7176496465  W2        11835           0.0000000000
     35505     11835  TIP3      H2              9.2941633595       21.2044877139      -15.4863396465  W2        11835           0.0000000000
     35506     11836  TIP3      OH2             3.1267733595       15.1655677139      -15.3786796465  W2        11836           0.0000000000
     35507     11836  TIP3      H1              4.0406933595       15.2444577139      -15.1052896465  W2        11836           0.0000000000
     35508     11836  TIP3      H2              3.1340833595       14.4785277139      -16.0451196465  W2        11836           0.0000000000
     35509     11837  TIP3      OH2             1.7758333595       20.5584177139      -10.3012896465  W2        11837           0.0000000000
     35510     11837  TIP3      H1              1.1285433595       20.0965877139      -10.8341696465  W2        11837           0.0000000000
     35511     11837  TIP3      H2              2.1302933595       19.8867477139       -9.7186696465  W2        11837           0.0000000000
     35512     11838  TIP3      OH2             2.6457533595       18.6391177139       -8.4966696465  W2        11838           0.0000000000
     35513     11838  TIP3      H1              2.3114333595       17.7588477139       -8.3246496465  W2        11838           0.0000000000
     35514     11838  TIP3      H2              2.8679933595       18.9846177139       -7.6321096465  W2        11838           0.0000000000
     35515     11839  TIP3      OH2            20.1942333595       19.4487577139       -5.5161896465  W2        11839           0.0000000000
     35516     11839  TIP3      H1             20.1729033595       19.6335977139       -4.5772496465  W2        11839           0.0000000000
     35517     11839  TIP3      H2             20.8848533595       20.0171577139       -5.8570496465  W2        11839           0.0000000000
     35518     11840  TIP3      OH2            19.7575233595       19.0158677139       -2.5942796465  W2        11840           0.0000000000
     35519     11840  TIP3      H1             19.2703933595       18.2802777139       -2.9655396465  W2        11840           0.0000000000
     35520     11840  TIP3      H2             20.3067933595       18.6222577139       -1.9163396465  W2        11840           0.0000000000
     35521     11841  TIP3      OH2            18.2082533595       14.8056777139        2.0437503535  W2        11841           0.0000000000
     35522     11841  TIP3      H1             17.3423633595       14.7006477139        2.4379803535  W2        11841           0.0000000000
     35523     11841  TIP3      H2             18.5848433595       15.5640077139        2.4902203535  W2        11841           0.0000000000
     35524     11842  TIP3      OH2            19.5092233595       13.0620477139      -12.4419996465  W2        11842           0.0000000000
     35525     11842  TIP3      H1             20.3593633595       13.4831377139      -12.3148396465  W2        11842           0.0000000000
     35526     11842  TIP3      H2             19.5147333595       12.3220577139      -11.8348596465  W2        11842           0.0000000000
     35527     11843  TIP3      OH2            19.9037833595       11.1157877139      -10.6184296465  W2        11843           0.0000000000
     35528     11843  TIP3      H1             19.1772433595       10.6360477139      -10.2206696465  W2        11843           0.0000000000
     35529     11843  TIP3      H2             20.4851133595       11.3212577139       -9.8862696465  W2        11843           0.0000000000
     35530     11844  TIP3      OH2            19.6629033595       13.9005377139       -5.6706696465  W2        11844           0.0000000000
     35531     11844  TIP3      H1             20.4963233595       13.5225377139       -5.9513096465  W2        11844           0.0000000000
     35532     11844  TIP3      H2             19.7749333595       14.8436577139       -5.7897596465  W2        11844           0.0000000000
     35533     11845  TIP3      OH2            18.1491333595       16.7782877139       -3.3638296465  W2        11845           0.0000000000
     35534     11845  TIP3      H1             17.5016633595       17.1034377139       -2.7383096465  W2        11845           0.0000000000
     35535     11845  TIP3      H2             17.6315333595       16.3380577139       -4.0379996465  W2        11845           0.0000000000
     35536     11846  TIP3      OH2            20.1720933595       11.0166377139      -14.2272996465  W2        11846           0.0000000000
     35537     11846  TIP3      H1             19.6502033595       11.3730477139      -14.9462096465  W2        11846           0.0000000000
     35538     11846  TIP3      H2             20.1390133595       11.6914177139      -13.5492096465  W2        11846           0.0000000000
     35539     11847  TIP3      OH2            18.5209933595        8.2561977139      -15.6765896465  W2        11847           0.0000000000
     35540     11847  TIP3      H1             18.6174333595        8.9228977139      -16.3566196465  W2        11847           0.0000000000
     35541     11847  TIP3      H2             18.3809533595        7.4408277139      -16.1580396465  W2        11847           0.0000000000
     35542     11848  TIP3      OH2            17.6904633595        9.6364377139      -10.0555596465  W2        11848           0.0000000000
     35543     11848  TIP3      H1             17.5403433595        8.6912977139      -10.0757796465  W2        11848           0.0000000000
     35544     11848  TIP3      H2             17.3369133595        9.9175777139       -9.2116496465  W2        11848           0.0000000000
     35545     11849  TIP3      OH2             2.7257033595       11.7146577139       -6.0451796465  W2        11849           0.0000000000
     35546     11849  TIP3      H1              2.9099933595       11.6328277139       -6.9808896465  W2        11849           0.0000000000
     35547     11849  TIP3      H2              3.5749933595       11.5903577139       -5.6215396465  W2        11849           0.0000000000
     35548     11850  TIP3      OH2            18.5467533595       11.6067677139       -0.4167296465  W2        11850           0.0000000000
     35549     11850  TIP3      H1             19.1294833595       10.8719977139       -0.2250096465  W2        11850           0.0000000000
     35550     11850  TIP3      H2             19.1106833595       12.3787977139       -0.3701496465  W2        11850           0.0000000000
     35551     11851  TIP3      OH2            20.0434633595        9.5093477139        0.2678103535  W2        11851           0.0000000000
     35552     11851  TIP3      H1             19.1801333595        9.1305577139        0.1022803535  W2        11851           0.0000000000
     35553     11851  TIP3      H2             20.6478333595        8.7708277139        0.1933903535  W2        11851           0.0000000000
     35554     11852  TIP3      OH2            17.7683733595        5.6641777139      -16.5590396465  W2        11852           0.0000000000
     35555     11852  TIP3      H1             18.3789533595        5.2928577139      -15.9222196465  W2        11852           0.0000000000
     35556     11852  TIP3      H2             16.9315233595        5.2428677139      -16.3630396465  W2        11852           0.0000000000
     35557     11853  TIP3      OH2            17.4009433595        7.2190177139      -11.5930496465  W2        11853           0.0000000000
     35558     11853  TIP3      H1             17.6806533595        6.3120577139      -11.4688796465  W2        11853           0.0000000000
     35559     11853  TIP3      H2             18.1601133595        7.6531677139      -11.9821296465  W2        11853           0.0000000000
     35560     11854  TIP3      OH2            18.0127733595        7.8007577139       -6.1571596465  W2        11854           0.0000000000
     35561     11854  TIP3      H1             18.9455733595        8.0127477139       -6.1915596465  W2        11854           0.0000000000
     35562     11854  TIP3      H2             17.7775233595        7.9019677139       -5.2348596465  W2        11854           0.0000000000
     35563     11855  TIP3      OH2            18.0419633595        8.5372877139       -3.3812196465  W2        11855           0.0000000000
     35564     11855  TIP3      H1             17.1990933595        8.8053277139       -3.0152396465  W2        11855           0.0000000000
     35565     11855  TIP3      H2             18.4843933595        9.3594777139       -3.5921096465  W2        11855           0.0000000000
     35566     11856  TIP3      OH2             2.3231833595        6.9851577139        0.0957003535  W2        11856           0.0000000000
     35567     11856  TIP3      H1              3.2426733595        6.8629877139        0.3320103535  W2        11856           0.0000000000
     35568     11856  TIP3      H2              1.8736333595        6.2351277139        0.4850503535  W2        11856           0.0000000000
     35569     11857  TIP3      OH2            20.3251233595        2.5173077139        1.9722803535  W2        11857           0.0000000000
     35570     11857  TIP3      H1             20.6748233595        1.8636577139        1.3667503535  W2        11857           0.0000000000
     35571     11857  TIP3      H2             20.4720733595        3.3547177139        1.5325403535  W2        11857           0.0000000000
     35572     11858  TIP3      OH2            18.0144233595        4.4819477139      -11.5448496465  W2        11858           0.0000000000
     35573     11858  TIP3      H1             18.1969233595        4.0330977139      -10.7193496465  W2        11858           0.0000000000
     35574     11858  TIP3      H2             17.4147133595        3.8973877139      -12.0083896465  W2        11858           0.0000000000
     35575     11859  TIP3      OH2             3.5444333595        5.2973177139       -7.0130096465  W2        11859           0.0000000000
     35576     11859  TIP3      H1              3.9895933595        4.5055677139       -6.7110396465  W2        11859           0.0000000000
     35577     11859  TIP3      H2              4.0107333595        6.0138377139       -6.5824496465  W2        11859           0.0000000000
     35578     11860  TIP3      OH2             1.8484633595        8.2966177139       -5.9439896465  W2        11860           0.0000000000
     35579     11860  TIP3      H1              2.3404433595        8.0756677139       -6.7347896465  W2        11860           0.0000000000
     35580     11860  TIP3      H2              2.2105533595        9.1369577139       -5.6630396465  W2        11860           0.0000000000
     35581     11861  TIP3      OH2            19.8448433595        4.6267677139        0.3214103535  W2        11861           0.0000000000
     35582     11861  TIP3      H1             18.9274133595        4.8974777139        0.2857603535  W2        11861           0.0000000000
     35583     11861  TIP3      H2             19.9677833595        4.0916077139       -0.4626196465  W2        11861           0.0000000000
     35584     11862  TIP3      OH2            19.8810433595        4.5497577139      -15.0168196465  W2        11862           0.0000000000
     35585     11862  TIP3      H1             20.2933033595        3.8283277139      -15.4920196465  W2        11862           0.0000000000
     35586     11862  TIP3      H2             20.5626933595        5.2192177139      -14.9583896465  W2        11862           0.0000000000
     35587     11863  TIP3      OH2             2.1621133595        4.5545277139      -11.8897496465  W2        11863           0.0000000000
     35588     11863  TIP3      H1              1.2369533595        4.7631877139      -12.0191996465  W2        11863           0.0000000000
     35589     11863  TIP3      H2              2.6161033595        5.0386077139      -12.5795196465  W2        11863           0.0000000000
     35590     11864  TIP3      OH2            16.9328333595       19.5386977139       -9.9440096465  W2        11864           0.0000000000
     35591     11864  TIP3      H1             17.5851233595       19.1909077139      -10.5520996465  W2        11864           0.0000000000
     35592     11864  TIP3      H2             17.4432133595       20.0270177139       -9.2980396465  W2        11864           0.0000000000
     35593     11865  TIP3      OH2             2.1256533595        3.2924277139       -3.5454996465  W2        11865           0.0000000000
     35594     11865  TIP3      H1              1.4607033595        3.0464577139       -2.9024096465  W2        11865           0.0000000000
     35595     11865  TIP3      H2              1.6827833595        3.9144677139       -4.1226996465  W2        11865           0.0000000000
     35596     11866  TIP3      OH2             4.3175833595       16.4678377139        0.5990803535  W2        11866           0.0000000000
     35597     11866  TIP3      H1              3.4968333595       16.6424877139        0.1385503535  W2        11866           0.0000000000
     35598     11866  TIP3      H2              4.0653633595       16.3943077139        1.5195203535  W2        11866           0.0000000000
     35599     11867  TIP3      OH2             7.2718733595       17.4419577139       -3.1425196465  W2        11867           0.0000000000
     35600     11867  TIP3      H1              6.8469833595       18.2518077139       -3.4250596465  W2        11867           0.0000000000
     35601     11867  TIP3      H2              8.1761533595       17.5273677139       -3.4445396465  W2        11867           0.0000000000
     35602     11868  TIP3      OH2            11.5830133595       18.8409577139       -0.1831496465  W2        11868           0.0000000000
     35603     11868  TIP3      H1             11.7677633595       18.5075677139        0.6948803535  W2        11868           0.0000000000
     35604     11868  TIP3      H2             12.4294633595       19.1508177139       -0.5052296465  W2        11868           0.0000000000
     35605     11869  TIP3      OH2            13.9280533595       20.1268477139       -0.9390096465  W2        11869           0.0000000000
     35606     11869  TIP3      H1             14.6049433595       19.4940777139       -1.1790896465  W2        11869           0.0000000000
     35607     11869  TIP3      H2             14.2499333595       20.5278977139       -0.1316796465  W2        11869           0.0000000000
     35608     11870  TIP3      OH2            18.8454333595        2.7163977139       -1.8595096465  W2        11870           0.0000000000
     35609     11870  TIP3      H1             18.0327833595        3.0414277139       -2.2470396465  W2        11870           0.0000000000
     35610     11870  TIP3      H2             19.0782833595        1.9562477139       -2.3925996465  W2        11870           0.0000000000
     35611     11871  TIP3      OH2             4.6735433595       20.6983477139       -3.0949896465  W2        11871           0.0000000000
     35612     11871  TIP3      H1              3.9531833595       21.1384477139       -3.5462196465  W2        11871           0.0000000000
     35613     11871  TIP3      H2              4.3079433595       20.4478177139       -2.2465896465  W2        11871           0.0000000000
     35614     11872  TIP3      OH2             7.1408033595       20.2987377139       -4.0652696465  W2        11872           0.0000000000
     35615     11872  TIP3      H1              6.2760233595       20.3705877139       -3.6612596465  W2        11872           0.0000000000
     35616     11872  TIP3      H2              7.0857033595       20.8454677139       -4.8490196465  W2        11872           0.0000000000
     35617     11873  TIP3      OH2            11.8513633595       20.1866277139       -4.8896696465  W2        11873           0.0000000000
     35618     11873  TIP3      H1             11.3947633595       20.7155977139       -5.5438296465  W2        11873           0.0000000000
     35619     11873  TIP3      H2             12.0141633595       20.7897677139       -4.1644396465  W2        11873           0.0000000000
     35620     11874  TIP3      OH2            14.1789933595       19.0645877139       -3.9446396465  W2        11874           0.0000000000
     35621     11874  TIP3      H1             13.2743633595       19.2296077139       -4.2104296465  W2        11874           0.0000000000
     35622     11874  TIP3      H2             14.6078533595       19.9178077139       -4.0102996465  W2        11874           0.0000000000
     35623     11875  TIP3      OH2            16.7831833595       20.6344977139       -3.6498596465  W2        11875           0.0000000000
     35624     11875  TIP3      H1             16.6013833595       21.5503877139       -3.8603696465  W2        11875           0.0000000000
     35625     11875  TIP3      H2             16.9599633595       20.2242077139       -4.4963996465  W2        11875           0.0000000000
     35626     11876  TIP3      OH2             4.0883533595       19.3215977139       -6.1848096465  W2        11876           0.0000000000
     35627     11876  TIP3      H1              4.0699533595       18.8961077139       -5.3275796465  W2        11876           0.0000000000
     35628     11876  TIP3      H2              4.8931433595       19.0030977139       -6.5935896465  W2        11876           0.0000000000
     35629     11877  TIP3      OH2             6.2296633595       18.0314677139       -7.5298196465  W2        11877           0.0000000000
     35630     11877  TIP3      H1              6.0107333595       17.1152077139       -7.3602196465  W2        11877           0.0000000000
     35631     11877  TIP3      H2              7.0538833595       18.1715077139       -7.0636796465  W2        11877           0.0000000000
     35632     11878  TIP3      OH2             8.7669133595       18.5013977139       -6.6810196465  W2        11878           0.0000000000
     35633     11878  TIP3      H1              8.9794833595       17.6132977139       -6.9679296465  W2        11878           0.0000000000
     35634     11878  TIP3      H2              8.8314233595       18.4671677139       -5.7266196465  W2        11878           0.0000000000
     35635     11879  TIP3      OH2            12.2752833595        4.1654577139       -7.5366896465  W2        11879           0.0000000000
     35636     11879  TIP3      H1             11.6009633595        3.5360177139       -7.2811096465  W2        11879           0.0000000000
     35637     11879  TIP3      H2             12.8392033595        3.6813477139       -8.1398996465  W2        11879           0.0000000000
     35638     11880  TIP3      OH2            17.4180033595        2.2728577139       -7.4239796465  W2        11880           0.0000000000
     35639     11880  TIP3      H1             18.0217633595        2.8203977139       -7.9258796465  W2        11880           0.0000000000
     35640     11880  TIP3      H2             16.5482033595        2.5918977139       -7.6645696465  W2        11880           0.0000000000
     35641     11881  TIP3      OH2            19.1450433595        3.4117277139       -9.0908896465  W2        11881           0.0000000000
     35642     11881  TIP3      H1             19.7567933595        2.8972977139       -9.6175296465  W2        11881           0.0000000000
     35643     11881  TIP3      H2             19.5273833595        4.2889377139       -9.0674496465  W2        11881           0.0000000000
     35644     11882  TIP3      OH2             4.6020333595        2.7994877139       -9.7146996465  W2        11882           0.0000000000
     35645     11882  TIP3      H1              3.8250133595        2.5649777139      -10.2221096465  W2        11882           0.0000000000
     35646     11882  TIP3      H2              5.1323933595        2.0026977139       -9.7058996465  W2        11882           0.0000000000
     35647     11883  TIP3      OH2             3.4383733595        2.5972977139      -13.9110896465  W2        11883           0.0000000000
     35648     11883  TIP3      H1              3.8774433595        3.2083477139      -14.5027396465  W2        11883           0.0000000000
     35649     11883  TIP3      H2              2.8046133595        3.1357077139      -13.4370896465  W2        11883           0.0000000000
     35650     11884  TIP3      OH2             9.1812933595        2.7261977139       -9.9013896465  W2        11884           0.0000000000
     35651     11884  TIP3      H1             10.0556333595        3.1146277139       -9.9309596465  W2        11884           0.0000000000
     35652     11884  TIP3      H2              9.0453733595        2.5109777139       -8.9786696465  W2        11884           0.0000000000
     35653     11885  TIP3      OH2            14.7381333595        2.7561777139       -8.2522196465  W2        11885           0.0000000000
     35654     11885  TIP3      H1             14.8142933595        2.8513377139       -9.2016196465  W2        11885           0.0000000000
     35655     11885  TIP3      H2             14.4630533595        1.8484677139       -8.1233096465  W2        11885           0.0000000000
     35656     11886  TIP3      OH2            16.0913933595        2.7819577139      -12.5597196465  W2        11886           0.0000000000
     35657     11886  TIP3      H1             15.3885033595        3.3968777139      -12.7695796465  W2        11886           0.0000000000
     35658     11886  TIP3      H2             15.6465333595        1.9446277139      -12.4286296465  W2        11886           0.0000000000
     35659     11887  TIP3      OH2             3.3393233595       18.5455177139      -13.0135796465  W2        11887           0.0000000000
     35660     11887  TIP3      H1              2.6543133595       18.5074077139      -13.6810696465  W2        11887           0.0000000000
     35661     11887  TIP3      H2              3.3430433595       19.4582777139      -12.7253696465  W2        11887           0.0000000000
     35662     11888  TIP3      OH2             5.2992833595        4.5134477139      -15.4686796465  W2        11888           0.0000000000
     35663     11888  TIP3      H1              5.7906233595        3.8836877139      -15.9961296465  W2        11888           0.0000000000
     35664     11888  TIP3      H2              5.9229133595        4.8093877139      -14.8055596465  W2        11888           0.0000000000
     35665     11889  TIP3      OH2            10.3252933595        4.8065977139      -13.0116296465  W2        11889           0.0000000000
     35666     11889  TIP3      H1             10.5034233595        4.1599177139      -12.3287696465  W2        11889           0.0000000000
     35667     11889  TIP3      H2             10.2719133595        5.6403677139      -12.5445196465  W2        11889           0.0000000000
     35668     11890  TIP3      OH2            12.2036733595       19.7550077139      -14.6159596465  W2        11890           0.0000000000
     35669     11890  TIP3      H1             13.0696933595       20.1217477139      -14.7941396465  W2        11890           0.0000000000
     35670     11890  TIP3      H2             11.9569533595       19.3158077139      -15.4298796465  W2        11890           0.0000000000
     35671     11891  TIP3      OH2            18.9126333595       19.3180377139      -11.9368496465  W2        11891           0.0000000000
     35672     11891  TIP3      H1             18.7183433595       18.5702477139      -12.5018896465  W2        11891           0.0000000000
     35673     11891  TIP3      H2             18.8736433595       20.0760477139      -12.5200596465  W2        11891           0.0000000000
     35674     11892  TIP3      OH2             4.5598333595        3.3136777139       -0.1970796465  W2        11892           0.0000000000
     35675     11892  TIP3      H1              4.1936533595        2.5479377139        0.2453903535  W2        11892           0.0000000000
     35676     11892  TIP3      H2              5.4726833595        3.3426977139        0.0894303535  W2        11892           0.0000000000
     35677     11893  TIP3      OH2             6.5329133595        2.6641177139        1.3386303535  W2        11893           0.0000000000
     35678     11893  TIP3      H1              7.4312733595        2.3901377139        1.1539703535  W2        11893           0.0000000000
     35679     11893  TIP3      H2              6.1462233595        1.9217177139        1.8028903535  W2        11893           0.0000000000
     35680     11894  TIP3      OH2             5.1574433595       19.4655977139      -15.9883696465  W2        11894           0.0000000000
     35681     11894  TIP3      H1              4.8899033595       19.7518877139      -15.1150596465  W2        11894           0.0000000000
     35682     11894  TIP3      H2              5.9287033595       18.9195177139      -15.8361196465  W2        11894           0.0000000000
     35683     11895  TIP3      OH2            14.9541433595        1.9966477139        1.5209103535  W2        11895           0.0000000000
     35684     11895  TIP3      H1             15.0308633595        1.5707177139        2.3746803535  W2        11895           0.0000000000
     35685     11895  TIP3      H2             15.8478033595        2.0101177139        1.1782603535  W2        11895           0.0000000000
     35686     11896  TIP3      OH2            18.1302533595       18.0692777139        0.2133303535  W2        11896           0.0000000000
     35687     11896  TIP3      H1             17.3484433595       17.8830777139       -0.3066096465  W2        11896           0.0000000000
     35688     11896  TIP3      H2             18.0582433595       18.9987077139        0.4305803535  W2        11896           0.0000000000
     35689     11897  TIP3      OH2            32.5362933595       11.9557177139       -9.7559496465  W2        11897           0.0000000000
     35690     11897  TIP3      H1             32.6254033595       12.8995377139       -9.8882396465  W2        11897           0.0000000000
     35691     11897  TIP3      H2             31.8980533595       11.6803577139      -10.4140096465  W2        11897           0.0000000000
     35692     11898  TIP3      OH2            31.4694233595       11.2107877139       -6.3371296465  W2        11898           0.0000000000
     35693     11898  TIP3      H1             31.4311733595       10.5644177139       -5.6321696465  W2        11898           0.0000000000
     35694     11898  TIP3      H2             31.1470733595       10.7442277139       -7.1082596465  W2        11898           0.0000000000
     35695     11899  TIP3      OH2            23.8379233595       10.8249977139       -4.7441396465  W2        11899           0.0000000000
     35696     11899  TIP3      H1             23.8791333595       10.1993277139       -4.0208996465  W2        11899           0.0000000000
     35697     11899  TIP3      H2             24.5406933595       11.4488577139       -4.5620996465  W2        11899           0.0000000000
     35698     11900  TIP3      OH2            35.1754433595       14.1498277139       -8.0356196465  W2        11900           0.0000000000
     35699     11900  TIP3      H1             34.7347133595       13.4294277139       -7.5850596465  W2        11900           0.0000000000
     35700     11900  TIP3      H2             35.1624133595       14.8705477139       -7.4058496465  W2        11900           0.0000000000
     35701     11901  TIP3      OH2            24.7612333595       15.2748877139       -6.2092296465  W2        11901           0.0000000000
     35702     11901  TIP3      H1             24.3917533595       14.4729377139       -6.5787996465  W2        11901           0.0000000000
     35703     11901  TIP3      H2             25.7023433595       15.1063777139       -6.1628896465  W2        11901           0.0000000000
     35704     11902  TIP3      OH2            21.3712833595        8.9351477139      -10.8163496465  W2        11902           0.0000000000
     35705     11902  TIP3      H1             20.9236233595        9.7810177139      -10.8346996465  W2        11902           0.0000000000
     35706     11902  TIP3      H2             20.8104033595        8.3555677139      -11.3318396465  W2        11902           0.0000000000
     35707     11903  TIP3      OH2            22.0818933595       11.0971077139       -8.6905496465  W2        11903           0.0000000000
     35708     11903  TIP3      H1             22.2952433595       10.3272677139       -8.1632496465  W2        11903           0.0000000000
     35709     11903  TIP3      H2             22.8196533595       11.1867777139       -9.2937896465  W2        11903           0.0000000000
     35710     11904  TIP3      OH2            32.2869933595       19.2539977139       -7.8235796465  W2        11904           0.0000000000
     35711     11904  TIP3      H1             32.9066333595       18.5774677139       -8.0966596465  W2        11904           0.0000000000
     35712     11904  TIP3      H2             32.0787333595       19.0360777139       -6.9150896465  W2        11904           0.0000000000
     35713     11905  TIP3      OH2            29.8588633595       13.6429277139       -5.9310296465  W2        11905           0.0000000000
     35714     11905  TIP3      H1             30.1626533595       12.9570677139       -6.5256196465  W2        11905           0.0000000000
     35715     11905  TIP3      H2             30.5802633595       13.7617977139       -5.3132296465  W2        11905           0.0000000000
     35716     11906  TIP3      OH2            38.5218433595        5.2444577139       -5.0704096465  W2        11906           0.0000000000
     35717     11906  TIP3      H1             38.5710633595        5.8545777139       -4.3344996465  W2        11906           0.0000000000
     35718     11906  TIP3      H2             38.9473533595        5.7055477139       -5.7932996465  W2        11906           0.0000000000
     35719     11907  TIP3      OH2            32.9995633595        8.0371677139       -5.6035496465  W2        11907           0.0000000000
     35720     11907  TIP3      H1             33.1421533595        7.0908677139       -5.5833896465  W2        11907           0.0000000000
     35721     11907  TIP3      H2             32.8934633595        8.2441477139       -6.5320596465  W2        11907           0.0000000000
     35722     11908  TIP3      OH2            26.1543933595        6.1388077139       -8.3310696465  W2        11908           0.0000000000
     35723     11908  TIP3      H1             26.1975033595        6.9986577139       -8.7494396465  W2        11908           0.0000000000
     35724     11908  TIP3      H2             25.6968033595        5.5862777139       -8.9647496465  W2        11908           0.0000000000
     35725     11909  TIP3      OH2            33.8766633595        6.2693677139       -9.9302396465  W2        11909           0.0000000000
     35726     11909  TIP3      H1             34.5230933595        5.9406877139       -9.3054796465  W2        11909           0.0000000000
     35727     11909  TIP3      H2             34.3866033595        6.7872677139      -10.5530996465  W2        11909           0.0000000000
     35728     11910  TIP3      OH2            22.7745433595        8.5353877139       -7.5689296465  W2        11910           0.0000000000
     35729     11910  TIP3      H1             23.4282033595        7.9855577139       -7.1369196465  W2        11910           0.0000000000
     35730     11910  TIP3      H2             22.7984733595        8.2612877139       -8.4857296465  W2        11910           0.0000000000
     35731     11911  TIP3      OH2            27.9309933595       10.0855177139       -8.3537796465  W2        11911           0.0000000000
     35732     11911  TIP3      H1             28.5470933595        9.5590577139       -7.8443796465  W2        11911           0.0000000000
     35733     11911  TIP3      H2             27.3448733595        9.4453877139       -8.7574196465  W2        11911           0.0000000000
     35734     11912  TIP3      OH2            38.9133033595        6.7223777139       -2.8344296465  W2        11912           0.0000000000
     35735     11912  TIP3      H1             38.2247633595        7.3804477139       -2.9297696465  W2        11912           0.0000000000
     35736     11912  TIP3      H2             38.9287633595        6.5251677139       -1.8978896465  W2        11912           0.0000000000
     35737     11913  TIP3      OH2            24.9645833595        5.0566477139       -4.2569896465  W2        11913           0.0000000000
     35738     11913  TIP3      H1             24.7457533595        5.5867077139       -5.0233896465  W2        11913           0.0000000000
     35739     11913  TIP3      H2             24.2966733595        5.2831977139       -3.6098496465  W2        11913           0.0000000000
     35740     11914  TIP3      OH2            32.3335633595       14.5567577139      -10.7130796465  W2        11914           0.0000000000
     35741     11914  TIP3      H1             32.0380733595       14.2339877139      -11.5643896465  W2        11914           0.0000000000
     35742     11914  TIP3      H2             32.0093433595       15.4564277139      -10.6718196465  W2        11914           0.0000000000
     35743     11915  TIP3      OH2            27.5337233595       12.7322177139       -3.9696196465  W2        11915           0.0000000000
     35744     11915  TIP3      H1             26.7936333595       13.3303677139       -3.8660996465  W2        11915           0.0000000000
     35745     11915  TIP3      H2             28.2476733595       13.2861777139       -4.2852596465  W2        11915           0.0000000000
     35746     11916  TIP3      OH2            35.6405033595        5.5602977139       -7.9496496465  W2        11916           0.0000000000
     35747     11916  TIP3      H1             35.4253033595        4.7946377139       -7.4170496465  W2        11916           0.0000000000
     35748     11916  TIP3      H2             36.2962433595        6.0327577139       -7.4367996465  W2        11916           0.0000000000
     35749     11917  TIP3      OH2            24.5583133595        6.9488277139       -6.3047696465  W2        11917           0.0000000000
     35750     11917  TIP3      H1             25.1719433595        7.5815877139       -5.9315296465  W2        11917           0.0000000000
     35751     11917  TIP3      H2             25.0703833595        6.4763277139       -6.9610796465  W2        11917           0.0000000000
     35752     11918  TIP3      OH2            25.9411533595       14.6965177139       -3.1824696465  W2        11918           0.0000000000
     35753     11918  TIP3      H1             25.9359133595       15.5758677139       -3.5605396465  W2        11918           0.0000000000
     35754     11918  TIP3      H2             25.0875633595       14.6129277139       -2.7574796465  W2        11918           0.0000000000
     35755     11919  TIP3      OH2            22.0622433595       14.3673077139      -12.4005396465  W2        11919           0.0000000000
     35756     11919  TIP3      H1             21.7903333595       14.5964077139      -13.2892496465  W2        11919           0.0000000000
     35757     11919  TIP3      H2             22.1078133595       15.2051877139      -11.9400096465  W2        11919           0.0000000000
     35758     11920  TIP3      OH2            35.6872133595       15.9888977139       -5.6876896465  W2        11920           0.0000000000
     35759     11920  TIP3      H1             34.7455833595       16.0472877139       -5.5259996465  W2        11920           0.0000000000
     35760     11920  TIP3      H2             35.9638233595       16.8949477139       -5.8247196465  W2        11920           0.0000000000
     35761     11921  TIP3      OH2            35.9879133595        4.2754277139       -4.2702996465  W2        11921           0.0000000000
     35762     11921  TIP3      H1             35.2518333595        4.8861377139       -4.3081696465  W2        11921           0.0000000000
     35763     11921  TIP3      H2             36.6713133595        4.6903277139       -4.7966596465  W2        11921           0.0000000000
     35764     11922  TIP3      OH2            28.9910533595        2.3621577139       -6.8044996465  W2        11922           0.0000000000
     35765     11922  TIP3      H1             28.8734733595        1.4137577139       -6.8586696465  W2        11922           0.0000000000
     35766     11922  TIP3      H2             28.1360633595        2.6947677139       -6.5313896465  W2        11922           0.0000000000
     35767     11923  TIP3      OH2            33.9393333595       17.7702477139       -9.0625296465  W2        11923           0.0000000000
     35768     11923  TIP3      H1             34.3645633595       17.0630377139       -9.5475696465  W2        11923           0.0000000000
     35769     11923  TIP3      H2             34.2563333595       18.5715177139       -9.4793096465  W2        11923           0.0000000000
     35770     11924  TIP3      OH2            35.0989833595       15.6710977139      -10.5538696465  W2        11924           0.0000000000
     35771     11924  TIP3      H1             34.8414633595       14.9811077139      -11.1652796465  W2        11924           0.0000000000
     35772     11924  TIP3      H2             35.1700633595       15.2282177139       -9.7082796465  W2        11924           0.0000000000
     35773     11925  TIP3      OH2            36.7850033595       14.2377677139       -2.0765196465  W2        11925           0.0000000000
     35774     11925  TIP3      H1             36.9246333595       13.6460177139       -2.8158196465  W2        11925           0.0000000000
     35775     11925  TIP3      H2             36.9522833595       15.1103577139       -2.4326396465  W2        11925           0.0000000000
     35776     11926  TIP3      OH2            31.2575433595       11.1997177139      -12.3039196465  W2        11926           0.0000000000
     35777     11926  TIP3      H1             30.5460933595       11.7346877139      -12.6558696465  W2        11926           0.0000000000
     35778     11926  TIP3      H2             31.9485033595       11.2549277139      -12.9640296465  W2        11926           0.0000000000
     35779     11927  TIP3      OH2            31.3114633595        9.6571477139      -15.2654196465  W2        11927           0.0000000000
     35780     11927  TIP3      H1             32.0124533595        9.6798377139      -14.6140196465  W2        11927           0.0000000000
     35781     11927  TIP3      H2             31.6137533595        9.0291177139      -15.9214896465  W2        11927           0.0000000000
     35782     11928  TIP3      OH2            38.6269333595       10.5775677139       -4.0104796465  W2        11928           0.0000000000
     35783     11928  TIP3      H1             37.9743433595       11.2721277139       -3.9213896465  W2        11928           0.0000000000
     35784     11928  TIP3      H2             39.0919633595       10.7876577139       -4.8203196465  W2        11928           0.0000000000
     35785     11929  TIP3      OH2            34.6633133595       11.4090477139      -11.3523296465  W2        11929           0.0000000000
     35786     11929  TIP3      H1             33.9314133595       11.6374177139      -10.7792696465  W2        11929           0.0000000000
     35787     11929  TIP3      H2             35.1105333595       10.6953177139      -10.8975796465  W2        11929           0.0000000000
     35788     11930  TIP3      OH2            34.5606633595        9.5833077139       -2.2846296465  W2        11930           0.0000000000
     35789     11930  TIP3      H1             34.6405733595       10.3467477139       -1.7127796465  W2        11930           0.0000000000
     35790     11930  TIP3      H2             33.9594333595        9.8625477139       -2.9751196465  W2        11930           0.0000000000
     35791     11931  TIP3      OH2            26.3086833595       12.0396677139       -9.4698296465  W2        11931           0.0000000000
     35792     11931  TIP3      H1             25.9782033595       11.6690077139      -10.2881296465  W2        11931           0.0000000000
     35793     11931  TIP3      H2             26.8970933595       11.3690677139       -9.1229996465  W2        11931           0.0000000000
     35794     11932  TIP3      OH2            27.6754333595       15.4677277139       -6.7886096465  W2        11932           0.0000000000
     35795     11932  TIP3      H1             27.5805633595       14.8890377139       -7.5451496465  W2        11932           0.0000000000
     35796     11932  TIP3      H2             28.4047933595       15.0962977139       -6.2923296465  W2        11932           0.0000000000
     35797     11933  TIP3      OH2            26.6752333595       10.8082277139       -5.8363296465  W2        11933           0.0000000000
     35798     11933  TIP3      H1             27.2404833595       10.9296477139       -6.5992096465  W2        11933           0.0000000000
     35799     11933  TIP3      H2             26.9941233595       11.4457277139       -5.1974796465  W2        11933           0.0000000000
     35800     11934  TIP3      OH2            32.9844533595       16.3114177139       -5.1022796465  W2        11934           0.0000000000
     35801     11934  TIP3      H1             32.7441133595       16.9737277139       -4.4543596465  W2        11934           0.0000000000
     35802     11934  TIP3      H2             32.7862733595       15.4769377139       -4.6773196465  W2        11934           0.0000000000
     35803     11935  TIP3      OH2            27.5553033595       15.2074977139       -1.1191396465  W2        11935           0.0000000000
     35804     11935  TIP3      H1             27.2440533595       15.9898177139       -0.6638196465  W2        11935           0.0000000000
     35805     11935  TIP3      H2             26.9053233595       15.0544077139       -1.8049396465  W2        11935           0.0000000000
     35806     11936  TIP3      OH2            33.5342633595       10.5713377139      -13.6672096465  W2        11936           0.0000000000
     35807     11936  TIP3      H1             34.1138133595       10.7213677139      -12.9203196465  W2        11936           0.0000000000
     35808     11936  TIP3      H2             33.9482633595       11.0420777139      -14.3905696465  W2        11936           0.0000000000
     35809     11937  TIP3      OH2            24.4752933595       11.4056077139       -1.8905696465  W2        11937           0.0000000000
     35810     11937  TIP3      H1             24.5456133595       12.0562877139       -1.1920696465  W2        11937           0.0000000000
     35811     11937  TIP3      H2             23.5845133595       11.5083577139       -2.2254796465  W2        11937           0.0000000000
     35812     11938  TIP3      OH2            31.2607533595       17.3081877139      -10.2318996465  W2        11938           0.0000000000
     35813     11938  TIP3      H1             31.7345133595       17.6038177139       -9.4544796465  W2        11938           0.0000000000
     35814     11938  TIP3      H2             30.6976833595       18.0463477139      -10.4649396465  W2        11938           0.0000000000
     35815     11939  TIP3      OH2            25.7948933595       17.2789977139       -0.3557596465  W2        11939           0.0000000000
     35816     11939  TIP3      H1             25.8024233595       17.1429677139       -1.3032096465  W2        11939           0.0000000000
     35817     11939  TIP3      H2             24.8789333595       17.1618077139       -0.1037596465  W2        11939           0.0000000000
     35818     11940  TIP3      OH2            37.2331033595        2.3213777139      -13.8542396465  W2        11940           0.0000000000
     35819     11940  TIP3      H1             36.3331733595        2.4602777139      -13.5591796465  W2        11940           0.0000000000
     35820     11940  TIP3      H2             37.4849433595        3.1528377139      -14.2560696465  W2        11940           0.0000000000
     35821     11941  TIP3      OH2            25.2989533595       11.1090977139      -11.8805496465  W2        11941           0.0000000000
     35822     11941  TIP3      H1             25.0070833595       11.8772677139      -12.3714196465  W2        11941           0.0000000000
     35823     11941  TIP3      H2             24.6244733595       10.4497177139      -12.0434096465  W2        11941           0.0000000000
     35824     11942  TIP3      OH2            38.4222433595       16.6876177139      -15.4778496465  W2        11942           0.0000000000
     35825     11942  TIP3      H1             38.4955933595       17.6266377139      -15.3073196465  W2        11942           0.0000000000
     35826     11942  TIP3      H2             39.3277533595       16.3824777139      -15.5341196465  W2        11942           0.0000000000
     35827     11943  TIP3      OH2            21.3919633595       13.4720177139       -3.0655696465  W2        11943           0.0000000000
     35828     11943  TIP3      H1             20.8908033595       13.4439577139       -3.8805996465  W2        11943           0.0000000000
     35829     11943  TIP3      H2             21.3973333595       12.5663377139       -2.7558396465  W2        11943           0.0000000000
     35830     11944  TIP3      OH2            21.1422333595       16.2523977139       -6.1815496465  W2        11944           0.0000000000
     35831     11944  TIP3      H1             22.0882933595       16.1080977139       -6.2005996465  W2        11944           0.0000000000
     35832     11944  TIP3      H2             21.0298633595       17.0366777139       -5.6444296465  W2        11944           0.0000000000
     35833     11945  TIP3      OH2            39.3400833595       16.9183677139       -0.4991796465  W2        11945           0.0000000000
     35834     11945  TIP3      H1             39.2907633595       15.9631777139       -0.5364196465  W2        11945           0.0000000000
     35835     11945  TIP3      H2             38.5133133595       17.1858977139       -0.0977996465  W2        11945           0.0000000000
     35836     11946  TIP3      OH2            30.3184833595       16.4922877139       -1.6230396465  W2        11946           0.0000000000
     35837     11946  TIP3      H1             30.4059433595       17.3187477139       -1.1481296465  W2        11946           0.0000000000
     35838     11946  TIP3      H2             29.4549933595       16.1626677139       -1.3741096465  W2        11946           0.0000000000
     35839     11947  TIP3      OH2            30.7330633595       20.2646577139      -11.8169796465  W2        11947           0.0000000000
     35840     11947  TIP3      H1             30.6576633595       20.1433777139      -12.7634596465  W2        11947           0.0000000000
     35841     11947  TIP3      H2             30.7659333595       21.2139277139      -11.6985196465  W2        11947           0.0000000000
     35842     11948  TIP3      OH2            24.3864433595       19.0533577139      -10.0360796465  W2        11948           0.0000000000
     35843     11948  TIP3      H1             24.5384833595       18.7053977139       -9.1574296465  W2        11948           0.0000000000
     35844     11948  TIP3      H2             23.5354833595       18.6970877139      -10.2913596465  W2        11948           0.0000000000
     35845     11949  TIP3      OH2            33.8346633595       19.4186777139      -14.8147396465  W2        11949           0.0000000000
     35846     11949  TIP3      H1             34.2095033595       18.6742877139      -15.2854796465  W2        11949           0.0000000000
     35847     11949  TIP3      H2             33.8390333595       19.1487377139      -13.8964096465  W2        11949           0.0000000000
     35848     11950  TIP3      OH2            33.5034733595       19.3443877139      -12.0655196465  W2        11950           0.0000000000
     35849     11950  TIP3      H1             32.5684533595       19.4445777139      -11.8868196465  W2        11950           0.0000000000
     35850     11950  TIP3      H2             33.7836633595       18.6349877139      -11.4871996465  W2        11950           0.0000000000
     35851     11951  TIP3      OH2            36.4920633595        8.4116177139       -0.0189596465  W2        11951           0.0000000000
     35852     11951  TIP3      H1             36.0847433595        8.8921777139       -0.7396296465  W2        11951           0.0000000000
     35853     11951  TIP3      H2             36.5326333595        7.5062177139       -0.3268796465  W2        11951           0.0000000000
     35854     11952  TIP3      OH2            23.6410133595       14.7955577139       -2.0222896465  W2        11952           0.0000000000
     35855     11952  TIP3      H1             23.8571433595       14.4341177139       -1.1627096465  W2        11952           0.0000000000
     35856     11952  TIP3      H2             22.7854833595       14.4209377139       -2.2319396465  W2        11952           0.0000000000
     35857     11953  TIP3      OH2            26.2598133595        3.2656077139       -6.0268696465  W2        11953           0.0000000000
     35858     11953  TIP3      H1             25.3981833595        3.1784277139       -6.4345796465  W2        11953           0.0000000000
     35859     11953  TIP3      H2             26.2373833595        4.1216177139       -5.5991096465  W2        11953           0.0000000000
     35860     11954  TIP3      OH2            30.9225933595        2.9876477139       -2.6521696465  W2        11954           0.0000000000
     35861     11954  TIP3      H1             31.3429033595        2.5723577139       -1.8991096465  W2        11954           0.0000000000
     35862     11954  TIP3      H2             29.9895533595        2.8089777139       -2.5349696465  W2        11954           0.0000000000
     35863     11955  TIP3      OH2            34.2490833595        6.7431677139       -1.7987196465  W2        11955           0.0000000000
     35864     11955  TIP3      H1             33.7350333595        6.6173877139       -1.0011196465  W2        11955           0.0000000000
     35865     11955  TIP3      H2             34.0935533595        7.6554777139       -2.0430996465  W2        11955           0.0000000000
     35866     11956  TIP3      OH2            35.0115733595       11.6041677139      -16.0374196465  W2        11956           0.0000000000
     35867     11956  TIP3      H1             35.0536533595       11.3815577139      -16.9674196465  W2        11956           0.0000000000
     35868     11956  TIP3      H2             35.8607833595       12.0028777139      -15.8474296465  W2        11956           0.0000000000
     35869     11957  TIP3      OH2            30.5843233595        5.4799877139      -15.3670896465  W2        11957           0.0000000000
     35870     11957  TIP3      H1             30.3308033595        5.4991477139      -14.4442796465  W2        11957           0.0000000000
     35871     11957  TIP3      H2             30.3275333595        4.6085277139      -15.6684696465  W2        11957           0.0000000000
     35872     11958  TIP3      OH2            26.3508233595        8.2310577139       -4.9318496465  W2        11958           0.0000000000
     35873     11958  TIP3      H1             25.7090333595        8.1907877139       -4.2228396465  W2        11958           0.0000000000
     35874     11958  TIP3      H2             26.3880233595        9.1575277139       -5.1695496465  W2        11958           0.0000000000
     35875     11959  TIP3      OH2            26.3477333595        8.4520677139      -10.0198496465  W2        11959           0.0000000000
     35876     11959  TIP3      H1             25.4550233595        8.1116777139      -10.0784696465  W2        11959           0.0000000000
     35877     11959  TIP3      H2             26.7983933595        8.0751577139      -10.7755296465  W2        11959           0.0000000000
     35878     11960  TIP3      OH2            31.8832833595        8.8680977139      -11.2027696465  W2        11960           0.0000000000
     35879     11960  TIP3      H1             31.4743133595        9.6829577139      -11.4942896465  W2        11960           0.0000000000
     35880     11960  TIP3      H2             32.6039033595        8.7281077139      -11.8170596465  W2        11960           0.0000000000
     35881     11961  TIP3      OH2            30.9854433595        9.0437377139        0.2853003535  W2        11961           0.0000000000
     35882     11961  TIP3      H1             30.4228233595        8.3388977139        0.6060803535  W2        11961           0.0000000000
     35883     11961  TIP3      H2             31.8117833595        8.9229277139        0.7530603535  W2        11961           0.0000000000
     35884     11962  TIP3      OH2            32.8880533595        8.3141377139       -8.3887996465  W2        11962           0.0000000000
     35885     11962  TIP3      H1             32.6925033595        8.9198177139       -9.1037396465  W2        11962           0.0000000000
     35886     11962  TIP3      H2             33.0693133595        7.4806577139       -8.8231696465  W2        11962           0.0000000000
     35887     11963  TIP3      OH2            24.1008733595        8.5514077139       -3.0646496465  W2        11963           0.0000000000
     35888     11963  TIP3      H1             24.0628133595        8.9515677139       -2.1959396465  W2        11963           0.0000000000
     35889     11963  TIP3      H2             23.6099833595        7.7346477139       -2.9743596465  W2        11963           0.0000000000
     35890     11964  TIP3      OH2            27.4666133595        5.9256377139      -16.2660496465  W2        11964           0.0000000000
     35891     11964  TIP3      H1             27.0356833595        5.4806477139      -15.5363096465  W2        11964           0.0000000000
     35892     11964  TIP3      H2             26.7484833595        6.2972677139      -16.7782996465  W2        11964           0.0000000000
     35893     11965  TIP3      OH2            20.7089533595        5.6675877139       -9.2141796465  W2        11965           0.0000000000
     35894     11965  TIP3      H1             21.3397233595        5.6387977139       -8.4947896465  W2        11965           0.0000000000
     35895     11965  TIP3      H2             21.1583833595        5.2424577139       -9.9445896465  W2        11965           0.0000000000
     35896     11966  TIP3      OH2            21.9831633595        6.4137877139      -13.7901396465  W2        11966           0.0000000000
     35897     11966  TIP3      H1             22.4573333595        7.0047777139      -14.3750496465  W2        11966           0.0000000000
     35898     11966  TIP3      H2             21.2658033595        6.9440777139      -13.4431296465  W2        11966           0.0000000000
     35899     11967  TIP3      OH2            32.1519733595        9.9522677139       -3.7175596465  W2        11967           0.0000000000
     35900     11967  TIP3      H1             32.4754533595        9.3212377139       -4.3605096465  W2        11967           0.0000000000
     35901     11967  TIP3      H2             31.7119033595        9.4174877139       -3.0568196465  W2        11967           0.0000000000
     35902     11968  TIP3      OH2            28.9292633595        5.8798177139       -8.9334396465  W2        11968           0.0000000000
     35903     11968  TIP3      H1             28.0183733595        5.9364977139       -8.6448396465  W2        11968           0.0000000000
     35904     11968  TIP3      H2             29.4345533595        5.8193677139       -8.1227196465  W2        11968           0.0000000000
     35905     11969  TIP3      OH2            23.7576033595        7.5084477139      -10.1066796465  W2        11969           0.0000000000
     35906     11969  TIP3      H1             22.8684033595        7.6079977139      -10.4467196465  W2        11969           0.0000000000
     35907     11969  TIP3      H2             24.0540933595        6.6667477139      -10.4528896465  W2        11969           0.0000000000
     35908     11970  TIP3      OH2            27.4107833595        7.5087077139      -12.4502196465  W2        11970           0.0000000000
     35909     11970  TIP3      H1             28.3423333595        7.6377077139      -12.2719096465  W2        11970           0.0000000000
     35910     11970  TIP3      H2             27.1958133595        8.1781377139      -13.0997496465  W2        11970           0.0000000000
     35911     11971  TIP3      OH2            33.3344533595        5.1144477139       -5.6692596465  W2        11971           0.0000000000
     35912     11971  TIP3      H1             32.6576133595        5.2457577139       -5.0052896465  W2        11971           0.0000000000
     35913     11971  TIP3      H2             32.8489433595        4.9593977139       -6.4794896465  W2        11971           0.0000000000
     35914     11972  TIP3      OH2            26.0848033595        8.7029277139      -14.8836096465  W2        11972           0.0000000000
     35915     11972  TIP3      H1             25.5423133595        8.3233077139      -15.5748496465  W2        11972           0.0000000000
     35916     11972  TIP3      H2             26.9182933595        8.8973977139      -15.3121996465  W2        11972           0.0000000000
     35917     11973  TIP3      OH2            36.6219633595       20.7859877139        0.6075003535  W2        11973           0.0000000000
     35918     11973  TIP3      H1             36.8218333595       21.2101777139       -0.2269696465  W2        11973           0.0000000000
     35919     11973  TIP3      H2             37.2773333595       21.1298077139        1.2145403535  W2        11973           0.0000000000
     35920     11974  TIP3      OH2            24.2199433595       13.2601177139        0.2155503535  W2        11974           0.0000000000
     35921     11974  TIP3      H1             24.9521833595       13.5147077139        0.7770003535  W2        11974           0.0000000000
     35922     11974  TIP3      H2             23.4398133595       13.4646577139        0.7310903535  W2        11974           0.0000000000
     35923     11975  TIP3      OH2            30.2492333595        8.6671177139       -7.0464796465  W2        11975           0.0000000000
     35924     11975  TIP3      H1             30.8135733595        8.1207777139       -7.5935196465  W2        11975           0.0000000000
     35925     11975  TIP3      H2             30.1015733595        8.1453077139       -6.2577196465  W2        11975           0.0000000000
     35926     11976  TIP3      OH2            25.2512033595        4.8037277139      -10.6279996465  W2        11976           0.0000000000
     35927     11976  TIP3      H1             24.9341533595        3.9012577139      -10.6634596465  W2        11976           0.0000000000
     35928     11976  TIP3      H2             26.0326133595        4.8054677139      -11.1808396465  W2        11976           0.0000000000
     35929     11977  TIP3      OH2            28.8758233595        7.0557277139       -4.6324396465  W2        11977           0.0000000000
     35930     11977  TIP3      H1             28.0403533595        7.5096777139       -4.5221996465  W2        11977           0.0000000000
     35931     11977  TIP3      H2             29.3998833595        7.3315777139       -3.8804496465  W2        11977           0.0000000000
     35932     11978  TIP3      OH2            29.4200833595       13.2684977139      -12.9477996465  W2        11978           0.0000000000
     35933     11978  TIP3      H1             28.6751833595       12.7610277139      -13.2700096465  W2        11978           0.0000000000
     35934     11978  TIP3      H2             29.2858033595       13.3172977139      -12.0013196465  W2        11978           0.0000000000
     35935     11979  TIP3      OH2            36.5699733595       12.4013177139       -4.1610396465  W2        11979           0.0000000000
     35936     11979  TIP3      H1             37.2118533595       12.8579477139       -4.7048196465  W2        11979           0.0000000000
     35937     11979  TIP3      H2             35.7396633595       12.5145577139       -4.6236296465  W2        11979           0.0000000000
     35938     11980  TIP3      OH2            33.3177633595        6.0824877139      -14.7485396465  W2        11980           0.0000000000
     35939     11980  TIP3      H1             32.3791833595        6.1940477139      -14.8996596465  W2        11980           0.0000000000
     35940     11980  TIP3      H2             33.6149733595        6.9391777139      -14.4419696465  W2        11980           0.0000000000
     35941     11981  TIP3      OH2            30.9392933595       13.4528277139       -1.7108896465  W2        11981           0.0000000000
     35942     11981  TIP3      H1             30.5939033595       13.0710677139       -0.9039296465  W2        11981           0.0000000000
     35943     11981  TIP3      H2             30.7393033595       14.3861877139       -1.6395996465  W2        11981           0.0000000000
     35944     11982  TIP3      OH2            34.0361133595        7.9497577139      -13.0877996465  W2        11982           0.0000000000
     35945     11982  TIP3      H1             34.9280133595        7.8122577139      -12.7686796465  W2        11982           0.0000000000
     35946     11982  TIP3      H2             34.0924733595        8.7403677139      -13.6244496465  W2        11982           0.0000000000
     35947     11983  TIP3      OH2            24.5449133595       12.5634977139       -7.1780096465  W2        11983           0.0000000000
     35948     11983  TIP3      H1             25.2896333595       12.5610677139       -7.7793596465  W2        11983           0.0000000000
     35949     11983  TIP3      H2             24.6225733595       11.7398777139       -6.6964996465  W2        11983           0.0000000000
     35950     11984  TIP3      OH2            31.5454933595       14.7269277139      -13.9223396465  W2        11984           0.0000000000
     35951     11984  TIP3      H1             31.2503333595       15.5537177139      -13.5408596465  W2        11984           0.0000000000
     35952     11984  TIP3      H2             30.8424933595       14.1076177139      -13.7261996465  W2        11984           0.0000000000
     35953     11985  TIP3      OH2            21.5528833595       11.0241877139       -1.8631596465  W2        11985           0.0000000000
     35954     11985  TIP3      H1             21.7757433595       10.6061477139       -1.0314096465  W2        11985           0.0000000000
     35955     11985  TIP3      H2             20.9508933595       10.4116877139       -2.2858796465  W2        11985           0.0000000000
     35956     11986  TIP3      OH2            28.5693733595       10.5411777139        0.3498103535  W2        11986           0.0000000000
     35957     11986  TIP3      H1             28.2734533595       10.3754777139       -0.5452796465  W2        11986           0.0000000000
     35958     11986  TIP3      H2             29.5008933595       10.3212077139        0.3392003535  W2        11986           0.0000000000
     35959     11987  TIP3      OH2            33.1896533595       15.9143777139       -1.7603896465  W2        11987           0.0000000000
     35960     11987  TIP3      H1             32.2890833595       16.0976377139       -2.0279996465  W2        11987           0.0000000000
     35961     11987  TIP3      H2             33.2237633595       16.1733077139       -0.8395096465  W2        11987           0.0000000000
     35962     11988  TIP3      OH2            38.9209833595        8.1591677139      -13.3931296465  W2        11988           0.0000000000
     35963     11988  TIP3      H1             38.3666133595        7.7629677139      -14.0653796465  W2        11988           0.0000000000
     35964     11988  TIP3      H2             39.0213433595        9.0696877139      -13.6707996465  W2        11988           0.0000000000
     35965     11989  TIP3      OH2            38.8841833595       13.9593377139       -0.5559796465  W2        11989           0.0000000000
     35966     11989  TIP3      H1             38.0330333595       14.1977177139       -0.9233396465  W2        11989           0.0000000000
     35967     11989  TIP3      H2             39.4745233595       13.9426577139       -1.3092696465  W2        11989           0.0000000000
     35968     11990  TIP3      OH2            37.2161533595       16.9452077139      -12.9279196465  W2        11990           0.0000000000
     35969     11990  TIP3      H1             36.8432633595       16.1195877139      -12.6188596465  W2        11990           0.0000000000
     35970     11990  TIP3      H2             37.4935033595       16.7621477139      -13.8255796465  W2        11990           0.0000000000
     35971     11991  TIP3      OH2            34.3765433595       11.7531577139       -5.9067296465  W2        11991           0.0000000000
     35972     11991  TIP3      H1             33.4482333595       11.5213477139       -5.9337996465  W2        11991           0.0000000000
     35973     11991  TIP3      H2             34.8276533595       10.9761377139       -6.2368496465  W2        11991           0.0000000000
     35974     11992  TIP3      OH2            26.9198533595       16.0813177139       -9.7738596465  W2        11992           0.0000000000
     35975     11992  TIP3      H1             27.4470733595       16.8547577139       -9.9739796465  W2        11992           0.0000000000
     35976     11992  TIP3      H2             26.0397033595       16.3062377139      -10.0754596465  W2        11992           0.0000000000
     35977     11993  TIP3      OH2            22.6746233595       10.9437277139      -15.1866196465  W2        11993           0.0000000000
     35978     11993  TIP3      H1             23.2906133595       11.5704477139      -14.8071396465  W2        11993           0.0000000000
     35979     11993  TIP3      H2             21.8128833595       11.2597077139      -14.9149696465  W2        11993           0.0000000000
     35980     11994  TIP3      OH2            28.3470833595       13.7443077139      -10.1974296465  W2        11994           0.0000000000
     35981     11994  TIP3      H1             28.1060833595       14.6697477139      -10.1558996465  W2        11994           0.0000000000
     35982     11994  TIP3      H2             27.6064433595       13.2854377139       -9.8010396465  W2        11994           0.0000000000
     35983     11995  TIP3      OH2            28.8617433595       17.8936677139       -3.8823196465  W2        11995           0.0000000000
     35984     11995  TIP3      H1             29.2242133595       18.7482277139       -4.1158796465  W2        11995           0.0000000000
     35985     11995  TIP3      H2             29.3932633595       17.6018277139       -3.1416896465  W2        11995           0.0000000000
     35986     11996  TIP3      OH2            27.0301633595       18.7660677139      -10.6522096465  W2        11996           0.0000000000
     35987     11996  TIP3      H1             26.0802133595       18.8718077139      -10.6008796465  W2        11996           0.0000000000
     35988     11996  TIP3      H2             27.3819733595       19.5868077139      -10.3074596465  W2        11996           0.0000000000
     35989     11997  TIP3      OH2            32.4058233595       13.9927377139       -4.1817596465  W2        11997           0.0000000000
     35990     11997  TIP3      H1             31.9799533595       13.7649077139       -3.3553596465  W2        11997           0.0000000000
     35991     11997  TIP3      H2             32.9864033595       13.2539177139       -4.3642296465  W2        11997           0.0000000000
     35992     11998  TIP3      OH2            34.6087133595       14.9217877139      -15.1078596465  W2        11998           0.0000000000
     35993     11998  TIP3      H1             34.9620233595       14.5417677139      -14.3035096465  W2        11998           0.0000000000
     35994     11998  TIP3      H2             33.6600633595       14.8282677139      -15.0209296465  W2        11998           0.0000000000
     35995     11999  TIP3      OH2            35.0642433595       18.5446877139       -1.7122796465  W2        11999           0.0000000000
     35996     11999  TIP3      H1             34.4625633595       17.9889777139       -2.2076496465  W2        11999           0.0000000000
     35997     11999  TIP3      H2             35.3456133595       19.2116677139       -2.3385396465  W2        11999           0.0000000000
     35998     12000  TIP3      OH2            39.1121533595       19.4010377139      -14.9068396465  W2        12000           0.0000000000
     35999     12000  TIP3      H1             39.8559433595       19.9870877139      -15.0466796465  W2        12000           0.0000000000
     36000     12000  TIP3      H2             38.4179633595       19.9696177139      -14.5735996465  W2        12000           0.0000000000
     36001     12001  TIP3      OH2            23.1868333595        5.7774577139       -2.3050196465  W2        12001           0.0000000000
     36002     12001  TIP3      H1             22.2940633595        6.1159977139       -2.3726196465  W2        12001           0.0000000000
     36003     12001  TIP3      H2             23.0881133595        4.9220677139       -1.8869396465  W2        12001           0.0000000000
     36004     12002  TIP3      OH2            35.4746433595       13.5939877139      -12.8810696465  W2        12002           0.0000000000
     36005     12002  TIP3      H1             35.1974033595       12.8659177139      -12.3249596465  W2        12002           0.0000000000
     36006     12002  TIP3      H2             36.4019433595       13.7131877139      -12.6758096465  W2        12002           0.0000000000
     36007     12003  TIP3      OH2            22.8380333595       17.5818977139       -3.8700796465  W2        12003           0.0000000000
     36008     12003  TIP3      H1             23.0550633595       16.6501377139       -3.9011096465  W2        12003           0.0000000000
     36009     12003  TIP3      H2             23.0843833595       17.8563977139       -2.9867996465  W2        12003           0.0000000000
     36010     12004  TIP3      OH2            28.6994933595       16.0333977139      -16.6608596465  W2        12004           0.0000000000
     36011     12004  TIP3      H1             28.9384733595       15.2852077139      -17.2079696465  W2        12004           0.0000000000
     36012     12004  TIP3      H2             28.4306233595       15.6455677139      -15.8280796465  W2        12004           0.0000000000
     36013     12005  TIP3      OH2            27.6365533595       15.6037777139      -14.2045996465  W2        12005           0.0000000000
     36014     12005  TIP3      H1             27.7833533595       15.0837577139      -13.4145096465  W2        12005           0.0000000000
     36015     12005  TIP3      H2             27.6337233595       16.5105377139      -13.8980096465  W2        12005           0.0000000000
     36016     12006  TIP3      OH2            24.0896633595       12.8561077139      -13.6940596465  W2        12006           0.0000000000
     36017     12006  TIP3      H1             23.4035933595       13.2083577139      -13.1270896465  W2        12006           0.0000000000
     36018     12006  TIP3      H2             24.6124533595       13.6190677139      -13.9406296465  W2        12006           0.0000000000
     36019     12007  TIP3      OH2            31.9211733595        5.5184877139       -3.4151596465  W2        12007           0.0000000000
     36020     12007  TIP3      H1             32.6199633595        5.5923577139       -2.7651896465  W2        12007           0.0000000000
     36021     12007  TIP3      H2             31.5403133595        4.6539877139       -3.2608696465  W2        12007           0.0000000000
     36022     12008  TIP3      OH2            32.7056633595        5.1706577139      -12.3179296465  W2        12008           0.0000000000
     36023     12008  TIP3      H1             32.9254933595        5.6421977139      -13.1213896465  W2        12008           0.0000000000
     36024     12008  TIP3      H2             33.2640633595        5.5649177139      -11.6478696465  W2        12008           0.0000000000
     36025     12009  TIP3      OH2            30.3742733595       17.3011377139      -13.4551796465  W2        12009           0.0000000000
     36026     12009  TIP3      H1             29.5578833595       17.7981077139      -13.4027496465  W2        12009           0.0000000000
     36027     12009  TIP3      H2             30.9039033595       17.7764877139      -14.0952996465  W2        12009           0.0000000000
     36028     12010  TIP3      OH2            29.9056533595        6.8985377139      -11.4830896465  W2        12010           0.0000000000
     36029     12010  TIP3      H1             30.7179133595        7.4028577139      -11.4369196465  W2        12010           0.0000000000
     36030     12010  TIP3      H2             29.6609533595        6.7535077139      -10.5691296465  W2        12010           0.0000000000
     36031     12011  TIP3      OH2            30.4412933595        7.8848077139       -2.2984296465  W2        12011           0.0000000000
     36032     12011  TIP3      H1             30.5603233595        8.4583477139       -1.5413896465  W2        12011           0.0000000000
     36033     12011  TIP3      H2             31.0967533595        7.1967477139       -2.1836496465  W2        12011           0.0000000000
     36034     12012  TIP3      OH2            30.7893233595        3.9798377139      -10.5449796465  W2        12012           0.0000000000
     36035     12012  TIP3      H1             30.4426733595        4.5968977139       -9.9005496465  W2        12012           0.0000000000
     36036     12012  TIP3      H2             31.4480133595        4.4804077139      -11.0264296465  W2        12012           0.0000000000
     36037     12013  TIP3      OH2            27.7125833595       18.3448577139      -13.4734896465  W2        12013           0.0000000000
     36038     12013  TIP3      H1             27.8734533595       19.1446077139      -13.9742296465  W2        12013           0.0000000000
     36039     12013  TIP3      H2             27.5153633595       18.6514577139      -12.5884296465  W2        12013           0.0000000000
     36040     12014  TIP3      OH2            26.4470233595        5.0427777139      -13.8577296465  W2        12014           0.0000000000
     36041     12014  TIP3      H1             26.3635033595        5.9310877139      -13.5110896465  W2        12014           0.0000000000
     36042     12014  TIP3      H2             27.3370533595        4.7774477139      -13.6260496465  W2        12014           0.0000000000
     36043     12015  TIP3      OH2            36.6458733595        5.7918377139       -1.4634596465  W2        12015           0.0000000000
     36044     12015  TIP3      H1             35.7294533595        6.0540077139       -1.5510896465  W2        12015           0.0000000000
     36045     12015  TIP3      H2             36.9813733595        5.7887377139       -2.3599296465  W2        12015           0.0000000000
     36046     12016  TIP3      OH2            35.2479733595        9.5419377139       -7.3677296465  W2        12016           0.0000000000
     36047     12016  TIP3      H1             34.4504133595        9.1269577139       -7.6962296465  W2        12016           0.0000000000
     36048     12016  TIP3      H2             35.6930833595        8.8513077139       -6.8766796465  W2        12016           0.0000000000
     36049     12017  TIP3      OH2            24.7055533595       15.4699977139      -14.7972796465  W2        12017           0.0000000000
     36050     12017  TIP3      H1             25.2977033595       16.1694777139      -14.5210396465  W2        12017           0.0000000000
     36051     12017  TIP3      H2             25.1648533595       15.0369477139      -15.5168196465  W2        12017           0.0000000000
     36052     12018  TIP3      OH2            23.0214733595        8.1342977139      -15.6813396465  W2        12018           0.0000000000
     36053     12018  TIP3      H1             22.9767333595        9.0736077139      -15.5026396465  W2        12018           0.0000000000
     36054     12018  TIP3      H2             22.1337933595        7.8987877139      -15.9511296465  W2        12018           0.0000000000
     36055     12019  TIP3      OH2            36.3344333595       18.7981877139       -5.7453796465  W2        12019           0.0000000000
     36056     12019  TIP3      H1             36.1788633595       19.4766277139       -6.4024496465  W2        12019           0.0000000000
     36057     12019  TIP3      H2             37.2670733595       18.8701177139       -5.5423196465  W2        12019           0.0000000000
     36058     12020  TIP3      OH2            23.8296733595        2.9159577139       -7.0082396465  W2        12020           0.0000000000
     36059     12020  TIP3      H1             23.6006533595        2.9752077139       -7.9357396465  W2        12020           0.0000000000
     36060     12020  TIP3      H2             23.3870133595        2.1245077139       -6.7018296465  W2        12020           0.0000000000
     36061     12021  TIP3      OH2            22.7600033595       16.8566677139      -10.8476596465  W2        12021           0.0000000000
     36062     12021  TIP3      H1             21.9278633595       17.3289377139      -10.8205196465  W2        12021           0.0000000000
     36063     12021  TIP3      H2             23.3058333595       17.3664277139      -11.4463496465  W2        12021           0.0000000000
     36064     12022  TIP3      OH2            22.0483733595       19.4690377139        0.4821403535  W2        12022           0.0000000000
     36065     12022  TIP3      H1             22.5885933595       19.2524377139        1.2420603535  W2        12022           0.0000000000
     36066     12022  TIP3      H2             21.5671733595       18.6636377139        0.2923903535  W2        12022           0.0000000000
     36067     12023  TIP3      OH2            26.6457133595       18.3884777139        2.1025603535  W2        12023           0.0000000000
     36068     12023  TIP3      H1             27.4134333595       17.9295577139        2.4434803535  W2        12023           0.0000000000
     36069     12023  TIP3      H2             26.6243333595       18.1624577139        1.1726803535  W2        12023           0.0000000000
     36070     12024  TIP3      OH2            30.7376733595       17.8965377139      -16.5222596465  W2        12024           0.0000000000
     36071     12024  TIP3      H1             30.0937733595       17.2653977139      -16.2008896465  W2        12024           0.0000000000
     36072     12024  TIP3      H2             31.4995033595       17.3653377139      -16.7539096465  W2        12024           0.0000000000
     36073     12025  TIP3      OH2            33.2225833595       16.7685877139        0.8317103535  W2        12025           0.0000000000
     36074     12025  TIP3      H1             32.8715333595       15.9118877139        1.0747503535  W2        12025           0.0000000000
     36075     12025  TIP3      H2             33.9489033595       16.9112577139        1.4386103535  W2        12025           0.0000000000
     36076     12026  TIP3      OH2            35.3419633595       17.7135277139      -16.2884596465  W2        12026           0.0000000000
     36077     12026  TIP3      H1             35.6250033595       16.9190477139      -15.8357696465  W2        12026           0.0000000000
     36078     12026  TIP3      H2             36.0817533595       17.9466277139      -16.8493496465  W2        12026           0.0000000000
     36079     12027  TIP3      OH2            21.9553233595       13.2794477139        1.4365703535  W2        12027           0.0000000000
     36080     12027  TIP3      H1             22.0993733595       12.3775177139        1.1502403535  W2        12027           0.0000000000
     36081     12027  TIP3      H2             21.1830633595       13.5656577139        0.9488003535  W2        12027           0.0000000000
     36082     12028  TIP3      OH2            26.2966933595       13.6230177139      -16.4309696465  W2        12028           0.0000000000
     36083     12028  TIP3      H1             26.3611033595       12.8289777139      -15.9003296465  W2        12028           0.0000000000
     36084     12028  TIP3      H2             26.9496133595       13.5042977139      -17.1207696465  W2        12028           0.0000000000
     36085     12029  TIP3      OH2            28.6109333595       13.2492577139        0.8692103535  W2        12029           0.0000000000
     36086     12029  TIP3      H1             28.2823133595       13.5200677139        0.0119503535  W2        12029           0.0000000000
     36087     12029  TIP3      H2             28.7627533595       12.3082377139        0.7817103535  W2        12029           0.0000000000
     36088     12030  TIP3      OH2            31.6490333595       14.6701877139      -16.6951696465  W2        12030           0.0000000000
     36089     12030  TIP3      H1             31.3804433595       14.8503977139      -15.7942796465  W2        12030           0.0000000000
     36090     12030  TIP3      H2             31.4425933595       13.7448077139      -16.8265896465  W2        12030           0.0000000000
     36091     12031  TIP3      OH2            34.3454533595       13.1649877139       -1.7475596465  W2        12031           0.0000000000
     36092     12031  TIP3      H1             35.0909333595       13.7533577139       -1.8671596465  W2        12031           0.0000000000
     36093     12031  TIP3      H2             33.5881333595       13.7469577139       -1.6842496465  W2        12031           0.0000000000
     36094     12032  TIP3      OH2            22.7879733595       10.4797777139        0.8565003535  W2        12032           0.0000000000
     36095     12032  TIP3      H1             23.1960933595        9.6224377139        0.7355603535  W2        12032           0.0000000000
     36096     12032  TIP3      H2             22.5277333595       10.4939077139        1.7775303535  W2        12032           0.0000000000
     36097     12033  TIP3      OH2            27.4460733595       11.5956377139      -14.1251696465  W2        12033           0.0000000000
     36098     12033  TIP3      H1             26.9862733595       11.1114677139      -13.4393196465  W2        12033           0.0000000000
     36099     12033  TIP3      H2             27.7009433595       10.9271777139      -14.7611196465  W2        12033           0.0000000000
     36100     12034  TIP3      OH2            26.7350033595        9.4883477139       -1.7692096465  W2        12034           0.0000000000
     36101     12034  TIP3      H1             26.1166133595       10.1630077139       -1.4887396465  W2        12034           0.0000000000
     36102     12034  TIP3      H2             27.0791233595        9.8097377139       -2.6025896465  W2        12034           0.0000000000
     36103     12035  TIP3      OH2            28.5171133595        9.8388177139      -15.8628496465  W2        12035           0.0000000000
     36104     12035  TIP3      H1             28.3366133595        9.6839377139      -16.7900196465  W2        12035           0.0000000000
     36105     12035  TIP3      H2             29.4671633595        9.9466877139      -15.8180596465  W2        12035           0.0000000000
     36106     12036  TIP3      OH2            31.7548233595       11.9598777139        1.5082703535  W2        12036           0.0000000000
     36107     12036  TIP3      H1             32.7079433595       12.0437877139        1.4808703535  W2        12036           0.0000000000
     36108     12036  TIP3      H2             31.5942833595       11.2480577139        2.1277603535  W2        12036           0.0000000000
     36109     12037  TIP3      OH2            37.9069433595       12.1932377139      -16.4170396465  W2        12037           0.0000000000
     36110     12037  TIP3      H1             37.6334233595       11.7687877139      -17.2302096465  W2        12037           0.0000000000
     36111     12037  TIP3      H2             37.9463533595       13.1246877139      -16.6339996465  W2        12037           0.0000000000
     36112     12038  TIP3      OH2            27.0743733595        6.8434277139       -0.6868996465  W2        12038           0.0000000000
     36113     12038  TIP3      H1             27.2244633595        6.1145577139       -1.2889296465  W2        12038           0.0000000000
     36114     12038  TIP3      H2             27.0766133595        7.6205977139       -1.2456796465  W2        12038           0.0000000000
     36115     12039  TIP3      OH2            27.4869433595        5.2130077139       -3.1941596465  W2        12039           0.0000000000
     36116     12039  TIP3      H1             28.0226933595        5.6646777139       -3.8462296465  W2        12039           0.0000000000
     36117     12039  TIP3      H2             26.6349033595        5.1049877139       -3.6167496465  W2        12039           0.0000000000
     36118     12040  TIP3      OH2            29.0687833595       10.6526277139       -2.9546396465  W2        12040           0.0000000000
     36119     12040  TIP3      H1             29.8192633595       10.4963777139       -3.5278596465  W2        12040           0.0000000000
     36120     12040  TIP3      H2             28.7296133595       11.5042877139       -3.2300896465  W2        12040           0.0000000000
     36121     12041  TIP3      OH2            33.4844033595        8.4678077139        2.0738903535  W2        12041           0.0000000000
     36122     12041  TIP3      H1             33.6765333595        7.5367477139        1.9623403535  W2        12041           0.0000000000
     36123     12041  TIP3      H2             34.3420333595        8.8927577139        2.0634303535  W2        12041           0.0000000000
     36124     12042  TIP3      OH2            34.8011233595       11.2563277139        0.1511603535  W2        12042           0.0000000000
     36125     12042  TIP3      H1             34.5196233595       11.9657877139       -0.4264596465  W2        12042           0.0000000000
     36126     12042  TIP3      H2             35.7435533595       11.1836277139        0.0002803535  W2        12042           0.0000000000
     36127     12043  TIP3      OH2            25.5530033595        8.0417777139        1.2246603535  W2        12043           0.0000000000
     36128     12043  TIP3      H1             24.7859033595        7.5092577139        1.0144203535  W2        12043           0.0000000000
     36129     12043  TIP3      H2             26.2319033595        7.7318177139        0.6252903535  W2        12043           0.0000000000
     36130     12044  TIP3      OH2            28.2924933595        2.6695777139       -2.7627996465  W2        12044           0.0000000000
     36131     12044  TIP3      H1             28.1944533595        3.6158977139       -2.8681796465  W2        12044           0.0000000000
     36132     12044  TIP3      H2             27.5501133595        2.2969577139       -3.2384496465  W2        12044           0.0000000000
     36133     12045  TIP3      OH2            29.5565433595        6.9911177139        0.8010403535  W2        12045           0.0000000000
     36134     12045  TIP3      H1             29.3210833595        6.7717877139        1.7025303535  W2        12045           0.0000000000
     36135     12045  TIP3      H2             28.7732333595        6.7842377139        0.2912903535  W2        12045           0.0000000000
     36136     12046  TIP3      OH2            32.2722033595        6.1184677139       -0.1236096465  W2        12046           0.0000000000
     36137     12046  TIP3      H1             31.3247433595        6.1504377139        0.0087203535  W2        12046           0.0000000000
     36138     12046  TIP3      H2             32.5848733595        5.4931777139        0.5302103535  W2        12046           0.0000000000
     36139     12047  TIP3      OH2            33.9063533595        4.7525777139        1.8815803535  W2        12047           0.0000000000
     36140     12047  TIP3      H1             33.8095333595        3.8003077139        1.8757703535  W2        12047           0.0000000000
     36141     12047  TIP3      H2             33.5846633595        5.0212577139        2.7421303535  W2        12047           0.0000000000
     36142     12048  TIP3      OH2            23.7332833595        5.9621577139        0.9291303535  W2        12048           0.0000000000
     36143     12048  TIP3      H1             23.9450233595        5.2557677139        0.3188803535  W2        12048           0.0000000000
     36144     12048  TIP3      H2             23.6220333595        5.5247577139        1.7732503535  W2        12048           0.0000000000
     36145     12049  TIP3      OH2            28.5143033595        1.9633177139       -0.0915196465  W2        12049           0.0000000000
     36146     12049  TIP3      H1             29.2261433595        1.3235377139       -0.1056096465  W2        12049           0.0000000000
     36147     12049  TIP3      H2             28.4133433595        2.2301477139       -1.0052096465  W2        12049           0.0000000000
     36148     12050  TIP3      OH2            28.8680533595        3.6461577139        1.9621103535  W2        12050           0.0000000000
     36149     12050  TIP3      H1             28.7362733595        3.1705377139        1.1419603535  W2        12050           0.0000000000
     36150     12050  TIP3      H2             28.2687933595        4.3905177139        1.9068203535  W2        12050           0.0000000000
     36151     12051  TIP3      OH2            28.4142833595       20.5291877139      -14.8614896465  W2        12051           0.0000000000
     36152     12051  TIP3      H1             29.3473533595       20.6870577139      -14.7176496465  W2        12051           0.0000000000
     36153     12051  TIP3      H2             28.1501633595       21.2044877139      -15.4863396465  W2        12051           0.0000000000
     36154     12052  TIP3      OH2            21.9827733595       15.1655677139      -15.3786796465  W2        12052           0.0000000000
     36155     12052  TIP3      H1             22.8966933595       15.2444577139      -15.1052896465  W2        12052           0.0000000000
     36156     12052  TIP3      H2             21.9900833595       14.4785277139      -16.0451196465  W2        12052           0.0000000000
     36157     12053  TIP3      OH2            20.6318333595       20.5584177139      -10.3012896465  W2        12053           0.0000000000
     36158     12053  TIP3      H1             19.9845433595       20.0965877139      -10.8341696465  W2        12053           0.0000000000
     36159     12053  TIP3      H2             20.9862933595       19.8867477139       -9.7186696465  W2        12053           0.0000000000
     36160     12054  TIP3      OH2            21.5017533595       18.6391177139       -8.4966696465  W2        12054           0.0000000000
     36161     12054  TIP3      H1             21.1674333595       17.7588477139       -8.3246496465  W2        12054           0.0000000000
     36162     12054  TIP3      H2             21.7239933595       18.9846177139       -7.6321096465  W2        12054           0.0000000000
     36163     12055  TIP3      OH2            39.0502333595       19.4487577139       -5.5161896465  W2        12055           0.0000000000
     36164     12055  TIP3      H1             39.0289033595       19.6335977139       -4.5772496465  W2        12055           0.0000000000
     36165     12055  TIP3      H2             39.7408533595       20.0171577139       -5.8570496465  W2        12055           0.0000000000
     36166     12056  TIP3      OH2            38.6135233595       19.0158677139       -2.5942796465  W2        12056           0.0000000000
     36167     12056  TIP3      H1             38.1263933595       18.2802777139       -2.9655396465  W2        12056           0.0000000000
     36168     12056  TIP3      H2             39.1627933595       18.6222577139       -1.9163396465  W2        12056           0.0000000000
     36169     12057  TIP3      OH2            37.0642533595       14.8056777139        2.0437503535  W2        12057           0.0000000000
     36170     12057  TIP3      H1             36.1983633595       14.7006477139        2.4379803535  W2        12057           0.0000000000
     36171     12057  TIP3      H2             37.4408433595       15.5640077139        2.4902203535  W2        12057           0.0000000000
     36172     12058  TIP3      OH2            38.3652233595       13.0620477139      -12.4419996465  W2        12058           0.0000000000
     36173     12058  TIP3      H1             39.2153633595       13.4831377139      -12.3148396465  W2        12058           0.0000000000
     36174     12058  TIP3      H2             38.3707333595       12.3220577139      -11.8348596465  W2        12058           0.0000000000
     36175     12059  TIP3      OH2            38.7597833595       11.1157877139      -10.6184296465  W2        12059           0.0000000000
     36176     12059  TIP3      H1             38.0332433595       10.6360477139      -10.2206696465  W2        12059           0.0000000000
     36177     12059  TIP3      H2             39.3411133595       11.3212577139       -9.8862696465  W2        12059           0.0000000000
     36178     12060  TIP3      OH2            38.5189033595       13.9005377139       -5.6706696465  W2        12060           0.0000000000
     36179     12060  TIP3      H1             39.3523233595       13.5225377139       -5.9513096465  W2        12060           0.0000000000
     36180     12060  TIP3      H2             38.6309333595       14.8436577139       -5.7897596465  W2        12060           0.0000000000
     36181     12061  TIP3      OH2            37.0051333595       16.7782877139       -3.3638296465  W2        12061           0.0000000000
     36182     12061  TIP3      H1             36.3576633595       17.1034377139       -2.7383096465  W2        12061           0.0000000000
     36183     12061  TIP3      H2             36.4875333595       16.3380577139       -4.0379996465  W2        12061           0.0000000000
     36184     12062  TIP3      OH2            39.0280933595       11.0166377139      -14.2272996465  W2        12062           0.0000000000
     36185     12062  TIP3      H1             38.5062033595       11.3730477139      -14.9462096465  W2        12062           0.0000000000
     36186     12062  TIP3      H2             38.9950133595       11.6914177139      -13.5492096465  W2        12062           0.0000000000
     36187     12063  TIP3      OH2            37.3769933595        8.2561977139      -15.6765896465  W2        12063           0.0000000000
     36188     12063  TIP3      H1             37.4734333595        8.9228977139      -16.3566196465  W2        12063           0.0000000000
     36189     12063  TIP3      H2             37.2369533595        7.4408277139      -16.1580396465  W2        12063           0.0000000000
     36190     12064  TIP3      OH2            36.5464633595        9.6364377139      -10.0555596465  W2        12064           0.0000000000
     36191     12064  TIP3      H1             36.3963433595        8.6912977139      -10.0757796465  W2        12064           0.0000000000
     36192     12064  TIP3      H2             36.1929133595        9.9175777139       -9.2116496465  W2        12064           0.0000000000
     36193     12065  TIP3      OH2            21.5817033595       11.7146577139       -6.0451796465  W2        12065           0.0000000000
     36194     12065  TIP3      H1             21.7659933595       11.6328277139       -6.9808896465  W2        12065           0.0000000000
     36195     12065  TIP3      H2             22.4309933595       11.5903577139       -5.6215396465  W2        12065           0.0000000000
     36196     12066  TIP3      OH2            37.4027533595       11.6067677139       -0.4167296465  W2        12066           0.0000000000
     36197     12066  TIP3      H1             37.9854833595       10.8719977139       -0.2250096465  W2        12066           0.0000000000
     36198     12066  TIP3      H2             37.9666833595       12.3787977139       -0.3701496465  W2        12066           0.0000000000
     36199     12067  TIP3      OH2            38.8994633595        9.5093477139        0.2678103535  W2        12067           0.0000000000
     36200     12067  TIP3      H1             38.0361333595        9.1305577139        0.1022803535  W2        12067           0.0000000000
     36201     12067  TIP3      H2             39.5038333595        8.7708277139        0.1933903535  W2        12067           0.0000000000
     36202     12068  TIP3      OH2            36.6243733595        5.6641777139      -16.5590396465  W2        12068           0.0000000000
     36203     12068  TIP3      H1             37.2349533595        5.2928577139      -15.9222196465  W2        12068           0.0000000000
     36204     12068  TIP3      H2             35.7875233595        5.2428677139      -16.3630396465  W2        12068           0.0000000000
     36205     12069  TIP3      OH2            36.2569433595        7.2190177139      -11.5930496465  W2        12069           0.0000000000
     36206     12069  TIP3      H1             36.5366533595        6.3120577139      -11.4688796465  W2        12069           0.0000000000
     36207     12069  TIP3      H2             37.0161133595        7.6531677139      -11.9821296465  W2        12069           0.0000000000
     36208     12070  TIP3      OH2            36.8687733595        7.8007577139       -6.1571596465  W2        12070           0.0000000000
     36209     12070  TIP3      H1             37.8015733595        8.0127477139       -6.1915596465  W2        12070           0.0000000000
     36210     12070  TIP3      H2             36.6335233595        7.9019677139       -5.2348596465  W2        12070           0.0000000000
     36211     12071  TIP3      OH2            36.8979633595        8.5372877139       -3.3812196465  W2        12071           0.0000000000
     36212     12071  TIP3      H1             36.0550933595        8.8053277139       -3.0152396465  W2        12071           0.0000000000
     36213     12071  TIP3      H2             37.3403933595        9.3594777139       -3.5921096465  W2        12071           0.0000000000
     36214     12072  TIP3      OH2            21.1791833595        6.9851577139        0.0957003535  W2        12072           0.0000000000
     36215     12072  TIP3      H1             22.0986733595        6.8629877139        0.3320103535  W2        12072           0.0000000000
     36216     12072  TIP3      H2             20.7296333595        6.2351277139        0.4850503535  W2        12072           0.0000000000
     36217     12073  TIP3      OH2            39.1811233595        2.5173077139        1.9722803535  W2        12073           0.0000000000
     36218     12073  TIP3      H1             39.5308233595        1.8636577139        1.3667503535  W2        12073           0.0000000000
     36219     12073  TIP3      H2             39.3280733595        3.3547177139        1.5325403535  W2        12073           0.0000000000
     36220     12074  TIP3      OH2            36.8704233595        4.4819477139      -11.5448496465  W2        12074           0.0000000000
     36221     12074  TIP3      H1             37.0529233595        4.0330977139      -10.7193496465  W2        12074           0.0000000000
     36222     12074  TIP3      H2             36.2707133595        3.8973877139      -12.0083896465  W2        12074           0.0000000000
     36223     12075  TIP3      OH2            22.4004333595        5.2973177139       -7.0130096465  W2        12075           0.0000000000
     36224     12075  TIP3      H1             22.8455933595        4.5055677139       -6.7110396465  W2        12075           0.0000000000
     36225     12075  TIP3      H2             22.8667333595        6.0138377139       -6.5824496465  W2        12075           0.0000000000
     36226     12076  TIP3      OH2            20.7044633595        8.2966177139       -5.9439896465  W2        12076           0.0000000000
     36227     12076  TIP3      H1             21.1964433595        8.0756677139       -6.7347896465  W2        12076           0.0000000000
     36228     12076  TIP3      H2             21.0665533595        9.1369577139       -5.6630396465  W2        12076           0.0000000000
     36229     12077  TIP3      OH2            38.7008433595        4.6267677139        0.3214103535  W2        12077           0.0000000000
     36230     12077  TIP3      H1             37.7834133595        4.8974777139        0.2857603535  W2        12077           0.0000000000
     36231     12077  TIP3      H2             38.8237833595        4.0916077139       -0.4626196465  W2        12077           0.0000000000
     36232     12078  TIP3      OH2            38.7370433595        4.5497577139      -15.0168196465  W2        12078           0.0000000000
     36233     12078  TIP3      H1             39.1493033595        3.8283277139      -15.4920196465  W2        12078           0.0000000000
     36234     12078  TIP3      H2             39.4186933595        5.2192177139      -14.9583896465  W2        12078           0.0000000000
     36235     12079  TIP3      OH2            21.0181133595        4.5545277139      -11.8897496465  W2        12079           0.0000000000
     36236     12079  TIP3      H1             20.0929533595        4.7631877139      -12.0191996465  W2        12079           0.0000000000
     36237     12079  TIP3      H2             21.4721033595        5.0386077139      -12.5795196465  W2        12079           0.0000000000
     36238     12080  TIP3      OH2            35.7888333595       19.5386977139       -9.9440096465  W2        12080           0.0000000000
     36239     12080  TIP3      H1             36.4411233595       19.1909077139      -10.5520996465  W2        12080           0.0000000000
     36240     12080  TIP3      H2             36.2992133595       20.0270177139       -9.2980396465  W2        12080           0.0000000000
     36241     12081  TIP3      OH2            20.9816533595        3.2924277139       -3.5454996465  W2        12081           0.0000000000
     36242     12081  TIP3      H1             20.3167033595        3.0464577139       -2.9024096465  W2        12081           0.0000000000
     36243     12081  TIP3      H2             20.5387833595        3.9144677139       -4.1226996465  W2        12081           0.0000000000
     36244     12082  TIP3      OH2            23.1735833595       16.4678377139        0.5990803535  W2        12082           0.0000000000
     36245     12082  TIP3      H1             22.3528333595       16.6424877139        0.1385503535  W2        12082           0.0000000000
     36246     12082  TIP3      H2             22.9213633595       16.3943077139        1.5195203535  W2        12082           0.0000000000
     36247     12083  TIP3      OH2            26.1278733595       17.4419577139       -3.1425196465  W2        12083           0.0000000000
     36248     12083  TIP3      H1             25.7029833595       18.2518077139       -3.4250596465  W2        12083           0.0000000000
     36249     12083  TIP3      H2             27.0321533595       17.5273677139       -3.4445396465  W2        12083           0.0000000000
     36250     12084  TIP3      OH2            30.4390133595       18.8409577139       -0.1831496465  W2        12084           0.0000000000
     36251     12084  TIP3      H1             30.6237633595       18.5075677139        0.6948803535  W2        12084           0.0000000000
     36252     12084  TIP3      H2             31.2854633595       19.1508177139       -0.5052296465  W2        12084           0.0000000000
     36253     12085  TIP3      OH2            32.7840533595       20.1268477139       -0.9390096465  W2        12085           0.0000000000
     36254     12085  TIP3      H1             33.4609433595       19.4940777139       -1.1790896465  W2        12085           0.0000000000
     36255     12085  TIP3      H2             33.1059333595       20.5278977139       -0.1316796465  W2        12085           0.0000000000
     36256     12086  TIP3      OH2            37.7014333595        2.7163977139       -1.8595096465  W2        12086           0.0000000000
     36257     12086  TIP3      H1             36.8887833595        3.0414277139       -2.2470396465  W2        12086           0.0000000000
     36258     12086  TIP3      H2             37.9342833595        1.9562477139       -2.3925996465  W2        12086           0.0000000000
     36259     12087  TIP3      OH2            23.5295433595       20.6983477139       -3.0949896465  W2        12087           0.0000000000
     36260     12087  TIP3      H1             22.8091833595       21.1384477139       -3.5462196465  W2        12087           0.0000000000
     36261     12087  TIP3      H2             23.1639433595       20.4478177139       -2.2465896465  W2        12087           0.0000000000
     36262     12088  TIP3      OH2            25.9968033595       20.2987377139       -4.0652696465  W2        12088           0.0000000000
     36263     12088  TIP3      H1             25.1320233595       20.3705877139       -3.6612596465  W2        12088           0.0000000000
     36264     12088  TIP3      H2             25.9417033595       20.8454677139       -4.8490196465  W2        12088           0.0000000000
     36265     12089  TIP3      OH2            30.7073633595       20.1866277139       -4.8896696465  W2        12089           0.0000000000
     36266     12089  TIP3      H1             30.2507633595       20.7155977139       -5.5438296465  W2        12089           0.0000000000
     36267     12089  TIP3      H2             30.8701633595       20.7897677139       -4.1644396465  W2        12089           0.0000000000
     36268     12090  TIP3      OH2            33.0349933595       19.0645877139       -3.9446396465  W2        12090           0.0000000000
     36269     12090  TIP3      H1             32.1303633595       19.2296077139       -4.2104296465  W2        12090           0.0000000000
     36270     12090  TIP3      H2             33.4638533595       19.9178077139       -4.0102996465  W2        12090           0.0000000000
     36271     12091  TIP3      OH2            35.6391833595       20.6344977139       -3.6498596465  W2        12091           0.0000000000
     36272     12091  TIP3      H1             35.4573833595       21.5503877139       -3.8603696465  W2        12091           0.0000000000
     36273     12091  TIP3      H2             35.8159633595       20.2242077139       -4.4963996465  W2        12091           0.0000000000
     36274     12092  TIP3      OH2            22.9443533595       19.3215977139       -6.1848096465  W2        12092           0.0000000000
     36275     12092  TIP3      H1             22.9259533595       18.8961077139       -5.3275796465  W2        12092           0.0000000000
     36276     12092  TIP3      H2             23.7491433595       19.0030977139       -6.5935896465  W2        12092           0.0000000000
     36277     12093  TIP3      OH2            25.0856633595       18.0314677139       -7.5298196465  W2        12093           0.0000000000
     36278     12093  TIP3      H1             24.8667333595       17.1152077139       -7.3602196465  W2        12093           0.0000000000
     36279     12093  TIP3      H2             25.9098833595       18.1715077139       -7.0636796465  W2        12093           0.0000000000
     36280     12094  TIP3      OH2            27.6229133595       18.5013977139       -6.6810196465  W2        12094           0.0000000000
     36281     12094  TIP3      H1             27.8354833595       17.6132977139       -6.9679296465  W2        12094           0.0000000000
     36282     12094  TIP3      H2             27.6874233595       18.4671677139       -5.7266196465  W2        12094           0.0000000000
     36283     12095  TIP3      OH2            31.1312833595        4.1654577139       -7.5366896465  W2        12095           0.0000000000
     36284     12095  TIP3      H1             30.4569633595        3.5360177139       -7.2811096465  W2        12095           0.0000000000
     36285     12095  TIP3      H2             31.6952033595        3.6813477139       -8.1398996465  W2        12095           0.0000000000
     36286     12096  TIP3      OH2            36.2740033595        2.2728577139       -7.4239796465  W2        12096           0.0000000000
     36287     12096  TIP3      H1             36.8777633595        2.8203977139       -7.9258796465  W2        12096           0.0000000000
     36288     12096  TIP3      H2             35.4042033595        2.5918977139       -7.6645696465  W2        12096           0.0000000000
     36289     12097  TIP3      OH2            38.0010433595        3.4117277139       -9.0908896465  W2        12097           0.0000000000
     36290     12097  TIP3      H1             38.6127933595        2.8972977139       -9.6175296465  W2        12097           0.0000000000
     36291     12097  TIP3      H2             38.3833833595        4.2889377139       -9.0674496465  W2        12097           0.0000000000
     36292     12098  TIP3      OH2            23.4580333595        2.7994877139       -9.7146996465  W2        12098           0.0000000000
     36293     12098  TIP3      H1             22.6810133595        2.5649777139      -10.2221096465  W2        12098           0.0000000000
     36294     12098  TIP3      H2             23.9883933595        2.0026977139       -9.7058996465  W2        12098           0.0000000000
     36295     12099  TIP3      OH2            22.2943733595        2.5972977139      -13.9110896465  W2        12099           0.0000000000
     36296     12099  TIP3      H1             22.7334433595        3.2083477139      -14.5027396465  W2        12099           0.0000000000
     36297     12099  TIP3      H2             21.6606133595        3.1357077139      -13.4370896465  W2        12099           0.0000000000
     36298     12100  TIP3      OH2            28.0372933595        2.7261977139       -9.9013896465  W2        12100           0.0000000000
     36299     12100  TIP3      H1             28.9116333595        3.1146277139       -9.9309596465  W2        12100           0.0000000000
     36300     12100  TIP3      H2             27.9013733595        2.5109777139       -8.9786696465  W2        12100           0.0000000000
     36301     12101  TIP3      OH2            33.5941333595        2.7561777139       -8.2522196465  W2        12101           0.0000000000
     36302     12101  TIP3      H1             33.6702933595        2.8513377139       -9.2016196465  W2        12101           0.0000000000
     36303     12101  TIP3      H2             33.3190533595        1.8484677139       -8.1233096465  W2        12101           0.0000000000
     36304     12102  TIP3      OH2            34.9473933595        2.7819577139      -12.5597196465  W2        12102           0.0000000000
     36305     12102  TIP3      H1             34.2445033595        3.3968777139      -12.7695796465  W2        12102           0.0000000000
     36306     12102  TIP3      H2             34.5025333595        1.9446277139      -12.4286296465  W2        12102           0.0000000000
     36307     12103  TIP3      OH2            22.1953233595       18.5455177139      -13.0135796465  W2        12103           0.0000000000
     36308     12103  TIP3      H1             21.5103133595       18.5074077139      -13.6810696465  W2        12103           0.0000000000
     36309     12103  TIP3      H2             22.1990433595       19.4582777139      -12.7253696465  W2        12103           0.0000000000
     36310     12104  TIP3      OH2            24.1552833595        4.5134477139      -15.4686796465  W2        12104           0.0000000000
     36311     12104  TIP3      H1             24.6466233595        3.8836877139      -15.9961296465  W2        12104           0.0000000000
     36312     12104  TIP3      H2             24.7789133595        4.8093877139      -14.8055596465  W2        12104           0.0000000000
     36313     12105  TIP3      OH2            29.1812933595        4.8065977139      -13.0116296465  W2        12105           0.0000000000
     36314     12105  TIP3      H1             29.3594233595        4.1599177139      -12.3287696465  W2        12105           0.0000000000
     36315     12105  TIP3      H2             29.1279133595        5.6403677139      -12.5445196465  W2        12105           0.0000000000
     36316     12106  TIP3      OH2            31.0596733595       19.7550077139      -14.6159596465  W2        12106           0.0000000000
     36317     12106  TIP3      H1             31.9256933595       20.1217477139      -14.7941396465  W2        12106           0.0000000000
     36318     12106  TIP3      H2             30.8129533595       19.3158077139      -15.4298796465  W2        12106           0.0000000000
     36319     12107  TIP3      OH2            37.7686333595       19.3180377139      -11.9368496465  W2        12107           0.0000000000
     36320     12107  TIP3      H1             37.5743433595       18.5702477139      -12.5018896465  W2        12107           0.0000000000
     36321     12107  TIP3      H2             37.7296433595       20.0760477139      -12.5200596465  W2        12107           0.0000000000
     36322     12108  TIP3      OH2            23.4158333595        3.3136777139       -0.1970796465  W2        12108           0.0000000000
     36323     12108  TIP3      H1             23.0496533595        2.5479377139        0.2453903535  W2        12108           0.0000000000
     36324     12108  TIP3      H2             24.3286833595        3.3426977139        0.0894303535  W2        12108           0.0000000000
     36325     12109  TIP3      OH2            25.3889133595        2.6641177139        1.3386303535  W2        12109           0.0000000000
     36326     12109  TIP3      H1             26.2872733595        2.3901377139        1.1539703535  W2        12109           0.0000000000
     36327     12109  TIP3      H2             25.0022233595        1.9217177139        1.8028903535  W2        12109           0.0000000000
     36328     12110  TIP3      OH2            24.0134433595       19.4655977139      -15.9883696465  W2        12110           0.0000000000
     36329     12110  TIP3      H1             23.7459033595       19.7518877139      -15.1150596465  W2        12110           0.0000000000
     36330     12110  TIP3      H2             24.7847033595       18.9195177139      -15.8361196465  W2        12110           0.0000000000
     36331     12111  TIP3      OH2            33.8101433595        1.9966477139        1.5209103535  W2        12111           0.0000000000
     36332     12111  TIP3      H1             33.8868633595        1.5707177139        2.3746803535  W2        12111           0.0000000000
     36333     12111  TIP3      H2             34.7038033595        2.0101177139        1.1782603535  W2        12111           0.0000000000
     36334     12112  TIP3      OH2            36.9862533595       18.0692777139        0.2133303535  W2        12112           0.0000000000
     36335     12112  TIP3      H1             36.2044433595       17.8830777139       -0.3066096465  W2        12112           0.0000000000
     36336     12112  TIP3      H2             36.9142433595       18.9987077139        0.4305803535  W2        12112           0.0000000000
     36337     12113  TIP3      OH2            51.3922933595       11.9557177139       -9.7559496465  W2        12113           0.0000000000
     36338     12113  TIP3      H1             51.4814033595       12.8995377139       -9.8882396465  W2        12113           0.0000000000
     36339     12113  TIP3      H2             50.7540533595       11.6803577139      -10.4140096465  W2        12113           0.0000000000
     36340     12114  TIP3      OH2            50.3254233595       11.2107877139       -6.3371296465  W2        12114           0.0000000000
     36341     12114  TIP3      H1             50.2871733595       10.5644177139       -5.6321696465  W2        12114           0.0000000000
     36342     12114  TIP3      H2             50.0030733595       10.7442277139       -7.1082596465  W2        12114           0.0000000000
     36343     12115  TIP3      OH2            42.6939233595       10.8249977139       -4.7441396465  W2        12115           0.0000000000
     36344     12115  TIP3      H1             42.7351333595       10.1993277139       -4.0208996465  W2        12115           0.0000000000
     36345     12115  TIP3      H2             43.3966933595       11.4488577139       -4.5620996465  W2        12115           0.0000000000
     36346     12116  TIP3      OH2            54.0314433595       14.1498277139       -8.0356196465  W2        12116           0.0000000000
     36347     12116  TIP3      H1             53.5907133595       13.4294277139       -7.5850596465  W2        12116           0.0000000000
     36348     12116  TIP3      H2             54.0184133595       14.8705477139       -7.4058496465  W2        12116           0.0000000000
     36349     12117  TIP3      OH2            43.6172333595       15.2748877139       -6.2092296465  W2        12117           0.0000000000
     36350     12117  TIP3      H1             43.2477533595       14.4729377139       -6.5787996465  W2        12117           0.0000000000
     36351     12117  TIP3      H2             44.5583433595       15.1063777139       -6.1628896465  W2        12117           0.0000000000
     36352     12118  TIP3      OH2            40.2272833595        8.9351477139      -10.8163496465  W2        12118           0.0000000000
     36353     12118  TIP3      H1             39.7796233595        9.7810177139      -10.8346996465  W2        12118           0.0000000000
     36354     12118  TIP3      H2             39.6664033595        8.3555677139      -11.3318396465  W2        12118           0.0000000000
     36355     12119  TIP3      OH2            40.9378933595       11.0971077139       -8.6905496465  W2        12119           0.0000000000
     36356     12119  TIP3      H1             41.1512433595       10.3272677139       -8.1632496465  W2        12119           0.0000000000
     36357     12119  TIP3      H2             41.6756533595       11.1867777139       -9.2937896465  W2        12119           0.0000000000
     36358     12120  TIP3      OH2            51.1429933595       19.2539977139       -7.8235796465  W2        12120           0.0000000000
     36359     12120  TIP3      H1             51.7626333595       18.5774677139       -8.0966596465  W2        12120           0.0000000000
     36360     12120  TIP3      H2             50.9347333595       19.0360777139       -6.9150896465  W2        12120           0.0000000000
     36361     12121  TIP3      OH2            48.7148633595       13.6429277139       -5.9310296465  W2        12121           0.0000000000
     36362     12121  TIP3      H1             49.0186533595       12.9570677139       -6.5256196465  W2        12121           0.0000000000
     36363     12121  TIP3      H2             49.4362633595       13.7617977139       -5.3132296465  W2        12121           0.0000000000
     36364     12122  TIP3      OH2            51.8555633595        8.0371677139       -5.6035496465  W2        12122           0.0000000000
     36365     12122  TIP3      H1             51.9981533595        7.0908677139       -5.5833896465  W2        12122           0.0000000000
     36366     12122  TIP3      H2             51.7494633595        8.2441477139       -6.5320596465  W2        12122           0.0000000000
     36367     12123  TIP3      OH2            45.0103933595        6.1388077139       -8.3310696465  W2        12123           0.0000000000
     36368     12123  TIP3      H1             45.0535033595        6.9986577139       -8.7494396465  W2        12123           0.0000000000
     36369     12123  TIP3      H2             44.5528033595        5.5862777139       -8.9647496465  W2        12123           0.0000000000
     36370     12124  TIP3      OH2            52.7326633595        6.2693677139       -9.9302396465  W2        12124           0.0000000000
     36371     12124  TIP3      H1             53.3790933595        5.9406877139       -9.3054796465  W2        12124           0.0000000000
     36372     12124  TIP3      H2             53.2426033595        6.7872677139      -10.5530996465  W2        12124           0.0000000000
     36373     12125  TIP3      OH2            41.6305433595        8.5353877139       -7.5689296465  W2        12125           0.0000000000
     36374     12125  TIP3      H1             42.2842033595        7.9855577139       -7.1369196465  W2        12125           0.0000000000
     36375     12125  TIP3      H2             41.6544733595        8.2612877139       -8.4857296465  W2        12125           0.0000000000
     36376     12126  TIP3      OH2            46.7869933595       10.0855177139       -8.3537796465  W2        12126           0.0000000000
     36377     12126  TIP3      H1             47.4030933595        9.5590577139       -7.8443796465  W2        12126           0.0000000000
     36378     12126  TIP3      H2             46.2008733595        9.4453877139       -8.7574196465  W2        12126           0.0000000000
     36379     12127  TIP3      OH2            43.8205833595        5.0566477139       -4.2569896465  W2        12127           0.0000000000
     36380     12127  TIP3      H1             43.6017533595        5.5867077139       -5.0233896465  W2        12127           0.0000000000
     36381     12127  TIP3      H2             43.1526733595        5.2831977139       -3.6098496465  W2        12127           0.0000000000
     36382     12128  TIP3      OH2            51.1895633595       14.5567577139      -10.7130796465  W2        12128           0.0000000000
     36383     12128  TIP3      H1             50.8940733595       14.2339877139      -11.5643896465  W2        12128           0.0000000000
     36384     12128  TIP3      H2             50.8653433595       15.4564277139      -10.6718196465  W2        12128           0.0000000000
     36385     12129  TIP3      OH2            46.3897233595       12.7322177139       -3.9696196465  W2        12129           0.0000000000
     36386     12129  TIP3      H1             45.6496333595       13.3303677139       -3.8660996465  W2        12129           0.0000000000
     36387     12129  TIP3      H2             47.1036733595       13.2861777139       -4.2852596465  W2        12129           0.0000000000
     36388     12130  TIP3      OH2            54.4965033595        5.5602977139       -7.9496496465  W2        12130           0.0000000000
     36389     12130  TIP3      H1             54.2813033595        4.7946377139       -7.4170496465  W2        12130           0.0000000000
     36390     12130  TIP3      H2             55.1522433595        6.0327577139       -7.4367996465  W2        12130           0.0000000000
     36391     12131  TIP3      OH2            43.4143133595        6.9488277139       -6.3047696465  W2        12131           0.0000000000
     36392     12131  TIP3      H1             44.0279433595        7.5815877139       -5.9315296465  W2        12131           0.0000000000
     36393     12131  TIP3      H2             43.9263833595        6.4763277139       -6.9610796465  W2        12131           0.0000000000
     36394     12132  TIP3      OH2            44.7971533595       14.6965177139       -3.1824696465  W2        12132           0.0000000000
     36395     12132  TIP3      H1             44.7919133595       15.5758677139       -3.5605396465  W2        12132           0.0000000000
     36396     12132  TIP3      H2             43.9435633595       14.6129277139       -2.7574796465  W2        12132           0.0000000000
     36397     12133  TIP3      OH2            40.9182433595       14.3673077139      -12.4005396465  W2        12133           0.0000000000
     36398     12133  TIP3      H1             40.6463333595       14.5964077139      -13.2892496465  W2        12133           0.0000000000
     36399     12133  TIP3      H2             40.9638133595       15.2051877139      -11.9400096465  W2        12133           0.0000000000
     36400     12134  TIP3      OH2            54.5432133595       15.9888977139       -5.6876896465  W2        12134           0.0000000000
     36401     12134  TIP3      H1             53.6015833595       16.0472877139       -5.5259996465  W2        12134           0.0000000000
     36402     12134  TIP3      H2             54.8198233595       16.8949477139       -5.8247196465  W2        12134           0.0000000000
     36403     12135  TIP3      OH2            47.8470533595        2.3621577139       -6.8044996465  W2        12135           0.0000000000
     36404     12135  TIP3      H1             47.7294733595        1.4137577139       -6.8586696465  W2        12135           0.0000000000
     36405     12135  TIP3      H2             46.9920633595        2.6947677139       -6.5313896465  W2        12135           0.0000000000
     36406     12136  TIP3      OH2            52.7953333595       17.7702477139       -9.0625296465  W2        12136           0.0000000000
     36407     12136  TIP3      H1             53.2205633595       17.0630377139       -9.5475696465  W2        12136           0.0000000000
     36408     12136  TIP3      H2             53.1123333595       18.5715177139       -9.4793096465  W2        12136           0.0000000000
     36409     12137  TIP3      OH2            53.9549833595       15.6710977139      -10.5538696465  W2        12137           0.0000000000
     36410     12137  TIP3      H1             53.6974633595       14.9811077139      -11.1652796465  W2        12137           0.0000000000
     36411     12137  TIP3      H2             54.0260633595       15.2282177139       -9.7082796465  W2        12137           0.0000000000
     36412     12138  TIP3      OH2            50.1135433595       11.1997177139      -12.3039196465  W2        12138           0.0000000000
     36413     12138  TIP3      H1             49.4020933595       11.7346877139      -12.6558696465  W2        12138           0.0000000000
     36414     12138  TIP3      H2             50.8045033595       11.2549277139      -12.9640296465  W2        12138           0.0000000000
     36415     12139  TIP3      OH2            50.1674633595        9.6571477139      -15.2654196465  W2        12139           0.0000000000
     36416     12139  TIP3      H1             50.8684533595        9.6798377139      -14.6140196465  W2        12139           0.0000000000
     36417     12139  TIP3      H2             50.4697533595        9.0291177139      -15.9214896465  W2        12139           0.0000000000
     36418     12140  TIP3      OH2            53.5193133595       11.4090477139      -11.3523296465  W2        12140           0.0000000000
     36419     12140  TIP3      H1             52.7874133595       11.6374177139      -10.7792696465  W2        12140           0.0000000000
     36420     12140  TIP3      H2             53.9665333595       10.6953177139      -10.8975796465  W2        12140           0.0000000000
     36421     12141  TIP3      OH2            53.4166633595        9.5833077139       -2.2846296465  W2        12141           0.0000000000
     36422     12141  TIP3      H1             53.4965733595       10.3467477139       -1.7127796465  W2        12141           0.0000000000
     36423     12141  TIP3      H2             52.8154333595        9.8625477139       -2.9751196465  W2        12141           0.0000000000
     36424     12142  TIP3      OH2            45.1646833595       12.0396677139       -9.4698296465  W2        12142           0.0000000000
     36425     12142  TIP3      H1             44.8342033595       11.6690077139      -10.2881296465  W2        12142           0.0000000000
     36426     12142  TIP3      H2             45.7530933595       11.3690677139       -9.1229996465  W2        12142           0.0000000000
     36427     12143  TIP3      OH2            46.5314333595       15.4677277139       -6.7886096465  W2        12143           0.0000000000
     36428     12143  TIP3      H1             46.4365633595       14.8890377139       -7.5451496465  W2        12143           0.0000000000
     36429     12143  TIP3      H2             47.2607933595       15.0962977139       -6.2923296465  W2        12143           0.0000000000
     36430     12144  TIP3      OH2            45.5312333595       10.8082277139       -5.8363296465  W2        12144           0.0000000000
     36431     12144  TIP3      H1             46.0964833595       10.9296477139       -6.5992096465  W2        12144           0.0000000000
     36432     12144  TIP3      H2             45.8501233595       11.4457277139       -5.1974796465  W2        12144           0.0000000000
     36433     12145  TIP3      OH2            51.8404533595       16.3114177139       -5.1022796465  W2        12145           0.0000000000
     36434     12145  TIP3      H1             51.6001133595       16.9737277139       -4.4543596465  W2        12145           0.0000000000
     36435     12145  TIP3      H2             51.6422733595       15.4769377139       -4.6773196465  W2        12145           0.0000000000
     36436     12146  TIP3      OH2            46.4113033595       15.2074977139       -1.1191396465  W2        12146           0.0000000000
     36437     12146  TIP3      H1             46.1000533595       15.9898177139       -0.6638196465  W2        12146           0.0000000000
     36438     12146  TIP3      H2             45.7613233595       15.0544077139       -1.8049396465  W2        12146           0.0000000000
     36439     12147  TIP3      OH2            52.3902633595       10.5713377139      -13.6672096465  W2        12147           0.0000000000
     36440     12147  TIP3      H1             52.9698133595       10.7213677139      -12.9203196465  W2        12147           0.0000000000
     36441     12147  TIP3      H2             52.8042633595       11.0420777139      -14.3905696465  W2        12147           0.0000000000
     36442     12148  TIP3      OH2            43.3312933595       11.4056077139       -1.8905696465  W2        12148           0.0000000000
     36443     12148  TIP3      H1             43.4016133595       12.0562877139       -1.1920696465  W2        12148           0.0000000000
     36444     12148  TIP3      H2             42.4405133595       11.5083577139       -2.2254796465  W2        12148           0.0000000000
     36445     12149  TIP3      OH2            50.1167533595       17.3081877139      -10.2318996465  W2        12149           0.0000000000
     36446     12149  TIP3      H1             50.5905133595       17.6038177139       -9.4544796465  W2        12149           0.0000000000
     36447     12149  TIP3      H2             49.5536833595       18.0463477139      -10.4649396465  W2        12149           0.0000000000
     36448     12150  TIP3      OH2            44.6508933595       17.2789977139       -0.3557596465  W2        12150           0.0000000000
     36449     12150  TIP3      H1             44.6584233595       17.1429677139       -1.3032096465  W2        12150           0.0000000000
     36450     12150  TIP3      H2             43.7349333595       17.1618077139       -0.1037596465  W2        12150           0.0000000000
     36451     12151  TIP3      OH2            44.1549533595       11.1090977139      -11.8805496465  W2        12151           0.0000000000
     36452     12151  TIP3      H1             43.8630833595       11.8772677139      -12.3714196465  W2        12151           0.0000000000
     36453     12151  TIP3      H2             43.4804733595       10.4497177139      -12.0434096465  W2        12151           0.0000000000
     36454     12152  TIP3      OH2            40.2479633595       13.4720177139       -3.0655696465  W2        12152           0.0000000000
     36455     12152  TIP3      H1             39.7468033595       13.4439577139       -3.8805996465  W2        12152           0.0000000000
     36456     12152  TIP3      H2             40.2533333595       12.5663377139       -2.7558396465  W2        12152           0.0000000000
     36457     12153  TIP3      OH2            39.9982333595       16.2523977139       -6.1815496465  W2        12153           0.0000000000
     36458     12153  TIP3      H1             40.9442933595       16.1080977139       -6.2005996465  W2        12153           0.0000000000
     36459     12153  TIP3      H2             39.8858633595       17.0366777139       -5.6444296465  W2        12153           0.0000000000
     36460     12154  TIP3      OH2            49.1744833595       16.4922877139       -1.6230396465  W2        12154           0.0000000000
     36461     12154  TIP3      H1             49.2619433595       17.3187477139       -1.1481296465  W2        12154           0.0000000000
     36462     12154  TIP3      H2             48.3109933595       16.1626677139       -1.3741096465  W2        12154           0.0000000000
     36463     12155  TIP3      OH2            49.5890633595       20.2646577139      -11.8169796465  W2        12155           0.0000000000
     36464     12155  TIP3      H1             49.5136633595       20.1433777139      -12.7634596465  W2        12155           0.0000000000
     36465     12155  TIP3      H2             49.6219333595       21.2139277139      -11.6985196465  W2        12155           0.0000000000
     36466     12156  TIP3      OH2            43.2424433595       19.0533577139      -10.0360796465  W2        12156           0.0000000000
     36467     12156  TIP3      H1             43.3944833595       18.7053977139       -9.1574296465  W2        12156           0.0000000000
     36468     12156  TIP3      H2             42.3914833595       18.6970877139      -10.2913596465  W2        12156           0.0000000000
     36469     12157  TIP3      OH2            52.6906633595       19.4186777139      -14.8147396465  W2        12157           0.0000000000
     36470     12157  TIP3      H1             53.0655033595       18.6742877139      -15.2854796465  W2        12157           0.0000000000
     36471     12157  TIP3      H2             52.6950333595       19.1487377139      -13.8964096465  W2        12157           0.0000000000
     36472     12158  TIP3      OH2            52.3594733595       19.3443877139      -12.0655196465  W2        12158           0.0000000000
     36473     12158  TIP3      H1             51.4244533595       19.4445777139      -11.8868196465  W2        12158           0.0000000000
     36474     12158  TIP3      H2             52.6396633595       18.6349877139      -11.4871996465  W2        12158           0.0000000000
     36475     12159  TIP3      OH2            42.4970133595       14.7955577139       -2.0222896465  W2        12159           0.0000000000
     36476     12159  TIP3      H1             42.7131433595       14.4341177139       -1.1627096465  W2        12159           0.0000000000
     36477     12159  TIP3      H2             41.6414833595       14.4209377139       -2.2319396465  W2        12159           0.0000000000
     36478     12160  TIP3      OH2            45.1158133595        3.2656077139       -6.0268696465  W2        12160           0.0000000000
     36479     12160  TIP3      H1             44.2541833595        3.1784277139       -6.4345796465  W2        12160           0.0000000000
     36480     12160  TIP3      H2             45.0933833595        4.1216177139       -5.5991096465  W2        12160           0.0000000000
     36481     12161  TIP3      OH2            49.7785933595        2.9876477139       -2.6521696465  W2        12161           0.0000000000
     36482     12161  TIP3      H1             50.1989033595        2.5723577139       -1.8991096465  W2        12161           0.0000000000
     36483     12161  TIP3      H2             48.8455533595        2.8089777139       -2.5349696465  W2        12161           0.0000000000
     36484     12162  TIP3      OH2            53.1050833595        6.7431677139       -1.7987196465  W2        12162           0.0000000000
     36485     12162  TIP3      H1             52.5910333595        6.6173877139       -1.0011196465  W2        12162           0.0000000000
     36486     12162  TIP3      H2             52.9495533595        7.6554777139       -2.0430996465  W2        12162           0.0000000000
     36487     12163  TIP3      OH2            53.8675733595       11.6041677139      -16.0374196465  W2        12163           0.0000000000
     36488     12163  TIP3      H1             53.9096533595       11.3815577139      -16.9674196465  W2        12163           0.0000000000
     36489     12163  TIP3      H2             54.7167833595       12.0028777139      -15.8474296465  W2        12163           0.0000000000
     36490     12164  TIP3      OH2            49.4403233595        5.4799877139      -15.3670896465  W2        12164           0.0000000000
     36491     12164  TIP3      H1             49.1868033595        5.4991477139      -14.4442796465  W2        12164           0.0000000000
     36492     12164  TIP3      H2             49.1835333595        4.6085277139      -15.6684696465  W2        12164           0.0000000000
     36493     12165  TIP3      OH2            45.2068233595        8.2310577139       -4.9318496465  W2        12165           0.0000000000
     36494     12165  TIP3      H1             44.5650333595        8.1907877139       -4.2228396465  W2        12165           0.0000000000
     36495     12165  TIP3      H2             45.2440233595        9.1575277139       -5.1695496465  W2        12165           0.0000000000
     36496     12166  TIP3      OH2            45.2037333595        8.4520677139      -10.0198496465  W2        12166           0.0000000000
     36497     12166  TIP3      H1             44.3110233595        8.1116777139      -10.0784696465  W2        12166           0.0000000000
     36498     12166  TIP3      H2             45.6543933595        8.0751577139      -10.7755296465  W2        12166           0.0000000000
     36499     12167  TIP3      OH2            50.7392833595        8.8680977139      -11.2027696465  W2        12167           0.0000000000
     36500     12167  TIP3      H1             50.3303133595        9.6829577139      -11.4942896465  W2        12167           0.0000000000
     36501     12167  TIP3      H2             51.4599033595        8.7281077139      -11.8170596465  W2        12167           0.0000000000
     36502     12168  TIP3      OH2            49.8414433595        9.0437377139        0.2853003535  W2        12168           0.0000000000
     36503     12168  TIP3      H1             49.2788233595        8.3388977139        0.6060803535  W2        12168           0.0000000000
     36504     12168  TIP3      H2             50.6677833595        8.9229277139        0.7530603535  W2        12168           0.0000000000
     36505     12169  TIP3      OH2            51.7440533595        8.3141377139       -8.3887996465  W2        12169           0.0000000000
     36506     12169  TIP3      H1             51.5485033595        8.9198177139       -9.1037396465  W2        12169           0.0000000000
     36507     12169  TIP3      H2             51.9253133595        7.4806577139       -8.8231696465  W2        12169           0.0000000000
     36508     12170  TIP3      OH2            42.9568733595        8.5514077139       -3.0646496465  W2        12170           0.0000000000
     36509     12170  TIP3      H1             42.9188133595        8.9515677139       -2.1959396465  W2        12170           0.0000000000
     36510     12170  TIP3      H2             42.4659833595        7.7346477139       -2.9743596465  W2        12170           0.0000000000
     36511     12171  TIP3      OH2            46.3226133595        5.9256377139      -16.2660496465  W2        12171           0.0000000000
     36512     12171  TIP3      H1             45.8916833595        5.4806477139      -15.5363096465  W2        12171           0.0000000000
     36513     12171  TIP3      H2             45.6044833595        6.2972677139      -16.7782996465  W2        12171           0.0000000000
     36514     12172  TIP3      OH2            39.5649533595        5.6675877139       -9.2141796465  W2        12172           0.0000000000
     36515     12172  TIP3      H1             40.1957233595        5.6387977139       -8.4947896465  W2        12172           0.0000000000
     36516     12172  TIP3      H2             40.0143833595        5.2424577139       -9.9445896465  W2        12172           0.0000000000
     36517     12173  TIP3      OH2            40.8391633595        6.4137877139      -13.7901396465  W2        12173           0.0000000000
     36518     12173  TIP3      H1             41.3133333595        7.0047777139      -14.3750496465  W2        12173           0.0000000000
     36519     12173  TIP3      H2             40.1218033595        6.9440777139      -13.4431296465  W2        12173           0.0000000000
     36520     12174  TIP3      OH2            51.0079733595        9.9522677139       -3.7175596465  W2        12174           0.0000000000
     36521     12174  TIP3      H1             51.3314533595        9.3212377139       -4.3605096465  W2        12174           0.0000000000
     36522     12174  TIP3      H2             50.5679033595        9.4174877139       -3.0568196465  W2        12174           0.0000000000
     36523     12175  TIP3      OH2            47.7852633595        5.8798177139       -8.9334396465  W2        12175           0.0000000000
     36524     12175  TIP3      H1             46.8743733595        5.9364977139       -8.6448396465  W2        12175           0.0000000000
     36525     12175  TIP3      H2             48.2905533595        5.8193677139       -8.1227196465  W2        12175           0.0000000000
     36526     12176  TIP3      OH2            42.6136033595        7.5084477139      -10.1066796465  W2        12176           0.0000000000
     36527     12176  TIP3      H1             41.7244033595        7.6079977139      -10.4467196465  W2        12176           0.0000000000
     36528     12176  TIP3      H2             42.9100933595        6.6667477139      -10.4528896465  W2        12176           0.0000000000
     36529     12177  TIP3      OH2            46.2667833595        7.5087077139      -12.4502196465  W2        12177           0.0000000000
     36530     12177  TIP3      H1             47.1983333595        7.6377077139      -12.2719096465  W2        12177           0.0000000000
     36531     12177  TIP3      H2             46.0518133595        8.1781377139      -13.0997496465  W2        12177           0.0000000000
     36532     12178  TIP3      OH2            52.1904533595        5.1144477139       -5.6692596465  W2        12178           0.0000000000
     36533     12178  TIP3      H1             51.5136133595        5.2457577139       -5.0052896465  W2        12178           0.0000000000
     36534     12178  TIP3      H2             51.7049433595        4.9593977139       -6.4794896465  W2        12178           0.0000000000
     36535     12179  TIP3      OH2            44.9408033595        8.7029277139      -14.8836096465  W2        12179           0.0000000000
     36536     12179  TIP3      H1             44.3983133595        8.3233077139      -15.5748496465  W2        12179           0.0000000000
     36537     12179  TIP3      H2             45.7742933595        8.8973977139      -15.3121996465  W2        12179           0.0000000000
     36538     12180  TIP3      OH2            43.0759433595       13.2601177139        0.2155503535  W2        12180           0.0000000000
     36539     12180  TIP3      H1             43.8081833595       13.5147077139        0.7770003535  W2        12180           0.0000000000
     36540     12180  TIP3      H2             42.2958133595       13.4646577139        0.7310903535  W2        12180           0.0000000000
     36541     12181  TIP3      OH2            49.1052333595        8.6671177139       -7.0464796465  W2        12181           0.0000000000
     36542     12181  TIP3      H1             49.6695733595        8.1207777139       -7.5935196465  W2        12181           0.0000000000
     36543     12181  TIP3      H2             48.9575733595        8.1453077139       -6.2577196465  W2        12181           0.0000000000
     36544     12182  TIP3      OH2            44.1072033595        4.8037277139      -10.6279996465  W2        12182           0.0000000000
     36545     12182  TIP3      H1             43.7901533595        3.9012577139      -10.6634596465  W2        12182           0.0000000000
     36546     12182  TIP3      H2             44.8886133595        4.8054677139      -11.1808396465  W2        12182           0.0000000000
     36547     12183  TIP3      OH2            47.7318233595        7.0557277139       -4.6324396465  W2        12183           0.0000000000
     36548     12183  TIP3      H1             46.8963533595        7.5096777139       -4.5221996465  W2        12183           0.0000000000
     36549     12183  TIP3      H2             48.2558833595        7.3315777139       -3.8804496465  W2        12183           0.0000000000
     36550     12184  TIP3      OH2            48.2760833595       13.2684977139      -12.9477996465  W2        12184           0.0000000000
     36551     12184  TIP3      H1             47.5311833595       12.7610277139      -13.2700096465  W2        12184           0.0000000000
     36552     12184  TIP3      H2             48.1418033595       13.3172977139      -12.0013196465  W2        12184           0.0000000000
     36553     12185  TIP3      OH2            52.1737633595        6.0824877139      -14.7485396465  W2        12185           0.0000000000
     36554     12185  TIP3      H1             51.2351833595        6.1940477139      -14.8996596465  W2        12185           0.0000000000
     36555     12185  TIP3      H2             52.4709733595        6.9391777139      -14.4419696465  W2        12185           0.0000000000
     36556     12186  TIP3      OH2            49.7952933595       13.4528277139       -1.7108896465  W2        12186           0.0000000000
     36557     12186  TIP3      H1             49.4499033595       13.0710677139       -0.9039296465  W2        12186           0.0000000000
     36558     12186  TIP3      H2             49.5953033595       14.3861877139       -1.6395996465  W2        12186           0.0000000000
     36559     12187  TIP3      OH2            52.8921133595        7.9497577139      -13.0877996465  W2        12187           0.0000000000
     36560     12187  TIP3      H1             53.7840133595        7.8122577139      -12.7686796465  W2        12187           0.0000000000
     36561     12187  TIP3      H2             52.9484733595        8.7403677139      -13.6244496465  W2        12187           0.0000000000
     36562     12188  TIP3      OH2            43.4009133595       12.5634977139       -7.1780096465  W2        12188           0.0000000000
     36563     12188  TIP3      H1             44.1456333595       12.5610677139       -7.7793596465  W2        12188           0.0000000000
     36564     12188  TIP3      H2             43.4785733595       11.7398777139       -6.6964996465  W2        12188           0.0000000000
     36565     12189  TIP3      OH2            50.4014933595       14.7269277139      -13.9223396465  W2        12189           0.0000000000
     36566     12189  TIP3      H1             50.1063333595       15.5537177139      -13.5408596465  W2        12189           0.0000000000
     36567     12189  TIP3      H2             49.6984933595       14.1076177139      -13.7261996465  W2        12189           0.0000000000
     36568     12190  TIP3      OH2            40.4088833595       11.0241877139       -1.8631596465  W2        12190           0.0000000000
     36569     12190  TIP3      H1             40.6317433595       10.6061477139       -1.0314096465  W2        12190           0.0000000000
     36570     12190  TIP3      H2             39.8068933595       10.4116877139       -2.2858796465  W2        12190           0.0000000000
     36571     12191  TIP3      OH2            47.4253733595       10.5411777139        0.3498103535  W2        12191           0.0000000000
     36572     12191  TIP3      H1             47.1294533595       10.3754777139       -0.5452796465  W2        12191           0.0000000000
     36573     12191  TIP3      H2             48.3568933595       10.3212077139        0.3392003535  W2        12191           0.0000000000
     36574     12192  TIP3      OH2            52.0456533595       15.9143777139       -1.7603896465  W2        12192           0.0000000000
     36575     12192  TIP3      H1             51.1450833595       16.0976377139       -2.0279996465  W2        12192           0.0000000000
     36576     12192  TIP3      H2             52.0797633595       16.1733077139       -0.8395096465  W2        12192           0.0000000000
     36577     12193  TIP3      OH2            53.2325433595       11.7531577139       -5.9067296465  W2        12193           0.0000000000
     36578     12193  TIP3      H1             52.3042333595       11.5213477139       -5.9337996465  W2        12193           0.0000000000
     36579     12193  TIP3      H2             53.6836533595       10.9761377139       -6.2368496465  W2        12193           0.0000000000
     36580     12194  TIP3      OH2            45.7758533595       16.0813177139       -9.7738596465  W2        12194           0.0000000000
     36581     12194  TIP3      H1             46.3030733595       16.8547577139       -9.9739796465  W2        12194           0.0000000000
     36582     12194  TIP3      H2             44.8957033595       16.3062377139      -10.0754596465  W2        12194           0.0000000000
     36583     12195  TIP3      OH2            41.5306233595       10.9437277139      -15.1866196465  W2        12195           0.0000000000
     36584     12195  TIP3      H1             42.1466133595       11.5704477139      -14.8071396465  W2        12195           0.0000000000
     36585     12195  TIP3      H2             40.6688833595       11.2597077139      -14.9149696465  W2        12195           0.0000000000
     36586     12196  TIP3      OH2            47.2030833595       13.7443077139      -10.1974296465  W2        12196           0.0000000000
     36587     12196  TIP3      H1             46.9620833595       14.6697477139      -10.1558996465  W2        12196           0.0000000000
     36588     12196  TIP3      H2             46.4624433595       13.2854377139       -9.8010396465  W2        12196           0.0000000000
     36589     12197  TIP3      OH2            47.7177433595       17.8936677139       -3.8823196465  W2        12197           0.0000000000
     36590     12197  TIP3      H1             48.0802133595       18.7482277139       -4.1158796465  W2        12197           0.0000000000
     36591     12197  TIP3      H2             48.2492633595       17.6018277139       -3.1416896465  W2        12197           0.0000000000
     36592     12198  TIP3      OH2            45.8861633595       18.7660677139      -10.6522096465  W2        12198           0.0000000000
     36593     12198  TIP3      H1             44.9362133595       18.8718077139      -10.6008796465  W2        12198           0.0000000000
     36594     12198  TIP3      H2             46.2379733595       19.5868077139      -10.3074596465  W2        12198           0.0000000000
     36595     12199  TIP3      OH2            51.2618233595       13.9927377139       -4.1817596465  W2        12199           0.0000000000
     36596     12199  TIP3      H1             50.8359533595       13.7649077139       -3.3553596465  W2        12199           0.0000000000
     36597     12199  TIP3      H2             51.8424033595       13.2539177139       -4.3642296465  W2        12199           0.0000000000
     36598     12200  TIP3      OH2            53.4647133595       14.9217877139      -15.1078596465  W2        12200           0.0000000000
     36599     12200  TIP3      H1             53.8180233595       14.5417677139      -14.3035096465  W2        12200           0.0000000000
     36600     12200  TIP3      H2             52.5160633595       14.8282677139      -15.0209296465  W2        12200           0.0000000000
     36601     12201  TIP3      OH2            53.9202433595       18.5446877139       -1.7122796465  W2        12201           0.0000000000
     36602     12201  TIP3      H1             53.3185633595       17.9889777139       -2.2076496465  W2        12201           0.0000000000
     36603     12201  TIP3      H2             54.2016133595       19.2116677139       -2.3385396465  W2        12201           0.0000000000
     36604     12202  TIP3      OH2            42.0428333595        5.7774577139       -2.3050196465  W2        12202           0.0000000000
     36605     12202  TIP3      H1             41.1500633595        6.1159977139       -2.3726196465  W2        12202           0.0000000000
     36606     12202  TIP3      H2             41.9441133595        4.9220677139       -1.8869396465  W2        12202           0.0000000000
     36607     12203  TIP3      OH2            54.3306433595       13.5939877139      -12.8810696465  W2        12203           0.0000000000
     36608     12203  TIP3      H1             54.0534033595       12.8659177139      -12.3249596465  W2        12203           0.0000000000
     36609     12203  TIP3      H2             55.2579433595       13.7131877139      -12.6758096465  W2        12203           0.0000000000
     36610     12204  TIP3      OH2            41.6940333595       17.5818977139       -3.8700796465  W2        12204           0.0000000000
     36611     12204  TIP3      H1             41.9110633595       16.6501377139       -3.9011096465  W2        12204           0.0000000000
     36612     12204  TIP3      H2             41.9403833595       17.8563977139       -2.9867996465  W2        12204           0.0000000000
     36613     12205  TIP3      OH2            47.5554933595       16.0333977139      -16.6608596465  W2        12205           0.0000000000
     36614     12205  TIP3      H1             47.7944733595       15.2852077139      -17.2079696465  W2        12205           0.0000000000
     36615     12205  TIP3      H2             47.2866233595       15.6455677139      -15.8280796465  W2        12205           0.0000000000
     36616     12206  TIP3      OH2            46.4925533595       15.6037777139      -14.2045996465  W2        12206           0.0000000000
     36617     12206  TIP3      H1             46.6393533595       15.0837577139      -13.4145096465  W2        12206           0.0000000000
     36618     12206  TIP3      H2             46.4897233595       16.5105377139      -13.8980096465  W2        12206           0.0000000000
     36619     12207  TIP3      OH2            42.9456633595       12.8561077139      -13.6940596465  W2        12207           0.0000000000
     36620     12207  TIP3      H1             42.2595933595       13.2083577139      -13.1270896465  W2        12207           0.0000000000
     36621     12207  TIP3      H2             43.4684533595       13.6190677139      -13.9406296465  W2        12207           0.0000000000
     36622     12208  TIP3      OH2            50.7771733595        5.5184877139       -3.4151596465  W2        12208           0.0000000000
     36623     12208  TIP3      H1             51.4759633595        5.5923577139       -2.7651896465  W2        12208           0.0000000000
     36624     12208  TIP3      H2             50.3963133595        4.6539877139       -3.2608696465  W2        12208           0.0000000000
     36625     12209  TIP3      OH2            51.5616633595        5.1706577139      -12.3179296465  W2        12209           0.0000000000
     36626     12209  TIP3      H1             51.7814933595        5.6421977139      -13.1213896465  W2        12209           0.0000000000
     36627     12209  TIP3      H2             52.1200633595        5.5649177139      -11.6478696465  W2        12209           0.0000000000
     36628     12210  TIP3      OH2            49.2302733595       17.3011377139      -13.4551796465  W2        12210           0.0000000000
     36629     12210  TIP3      H1             48.4138833595       17.7981077139      -13.4027496465  W2        12210           0.0000000000
     36630     12210  TIP3      H2             49.7599033595       17.7764877139      -14.0952996465  W2        12210           0.0000000000
     36631     12211  TIP3      OH2            48.7616533595        6.8985377139      -11.4830896465  W2        12211           0.0000000000
     36632     12211  TIP3      H1             49.5739133595        7.4028577139      -11.4369196465  W2        12211           0.0000000000
     36633     12211  TIP3      H2             48.5169533595        6.7535077139      -10.5691296465  W2        12211           0.0000000000
     36634     12212  TIP3      OH2            49.2972933595        7.8848077139       -2.2984296465  W2        12212           0.0000000000
     36635     12212  TIP3      H1             49.4163233595        8.4583477139       -1.5413896465  W2        12212           0.0000000000
     36636     12212  TIP3      H2             49.9527533595        7.1967477139       -2.1836496465  W2        12212           0.0000000000
     36637     12213  TIP3      OH2            49.6453233595        3.9798377139      -10.5449796465  W2        12213           0.0000000000
     36638     12213  TIP3      H1             49.2986733595        4.5968977139       -9.9005496465  W2        12213           0.0000000000
     36639     12213  TIP3      H2             50.3040133595        4.4804077139      -11.0264296465  W2        12213           0.0000000000
     36640     12214  TIP3      OH2            46.5685833595       18.3448577139      -13.4734896465  W2        12214           0.0000000000
     36641     12214  TIP3      H1             46.7294533595       19.1446077139      -13.9742296465  W2        12214           0.0000000000
     36642     12214  TIP3      H2             46.3713633595       18.6514577139      -12.5884296465  W2        12214           0.0000000000
     36643     12215  TIP3      OH2            45.3030233595        5.0427777139      -13.8577296465  W2        12215           0.0000000000
     36644     12215  TIP3      H1             45.2195033595        5.9310877139      -13.5110896465  W2        12215           0.0000000000
     36645     12215  TIP3      H2             46.1930533595        4.7774477139      -13.6260496465  W2        12215           0.0000000000
     36646     12216  TIP3      OH2            54.1039733595        9.5419377139       -7.3677296465  W2        12216           0.0000000000
     36647     12216  TIP3      H1             53.3064133595        9.1269577139       -7.6962296465  W2        12216           0.0000000000
     36648     12216  TIP3      H2             54.5490833595        8.8513077139       -6.8766796465  W2        12216           0.0000000000
     36649     12217  TIP3      OH2            43.5615533595       15.4699977139      -14.7972796465  W2        12217           0.0000000000
     36650     12217  TIP3      H1             44.1537033595       16.1694777139      -14.5210396465  W2        12217           0.0000000000
     36651     12217  TIP3      H2             44.0208533595       15.0369477139      -15.5168196465  W2        12217           0.0000000000
     36652     12218  TIP3      OH2            41.8774733595        8.1342977139      -15.6813396465  W2        12218           0.0000000000
     36653     12218  TIP3      H1             41.8327333595        9.0736077139      -15.5026396465  W2        12218           0.0000000000
     36654     12218  TIP3      H2             40.9897933595        7.8987877139      -15.9511296465  W2        12218           0.0000000000
     36655     12219  TIP3      OH2            42.6856733595        2.9159577139       -7.0082396465  W2        12219           0.0000000000
     36656     12219  TIP3      H1             42.4566533595        2.9752077139       -7.9357396465  W2        12219           0.0000000000
     36657     12219  TIP3      H2             42.2430133595        2.1245077139       -6.7018296465  W2        12219           0.0000000000
     36658     12220  TIP3      OH2            41.6160033595       16.8566677139      -10.8476596465  W2        12220           0.0000000000
     36659     12220  TIP3      H1             40.7838633595       17.3289377139      -10.8205196465  W2        12220           0.0000000000
     36660     12220  TIP3      H2             42.1618333595       17.3664277139      -11.4463496465  W2        12220           0.0000000000
     36661     12221  TIP3      OH2            40.9043733595       19.4690377139        0.4821403535  W2        12221           0.0000000000
     36662     12221  TIP3      H1             41.4445933595       19.2524377139        1.2420603535  W2        12221           0.0000000000
     36663     12221  TIP3      H2             40.4231733595       18.6636377139        0.2923903535  W2        12221           0.0000000000
     36664     12222  TIP3      OH2            45.5017133595       18.3884777139        2.1025603535  W2        12222           0.0000000000
     36665     12222  TIP3      H1             46.2694333595       17.9295577139        2.4434803535  W2        12222           0.0000000000
     36666     12222  TIP3      H2             45.4803333595       18.1624577139        1.1726803535  W2        12222           0.0000000000
     36667     12223  TIP3      OH2            49.5936733595       17.8965377139      -16.5222596465  W2        12223           0.0000000000
     36668     12223  TIP3      H1             48.9497733595       17.2653977139      -16.2008896465  W2        12223           0.0000000000
     36669     12223  TIP3      H2             50.3555033595       17.3653377139      -16.7539096465  W2        12223           0.0000000000
     36670     12224  TIP3      OH2            52.0785833595       16.7685877139        0.8317103535  W2        12224           0.0000000000
     36671     12224  TIP3      H1             51.7275333595       15.9118877139        1.0747503535  W2        12224           0.0000000000
     36672     12224  TIP3      H2             52.8049033595       16.9112577139        1.4386103535  W2        12224           0.0000000000
     36673     12225  TIP3      OH2            54.1979633595       17.7135277139      -16.2884596465  W2        12225           0.0000000000
     36674     12225  TIP3      H1             54.4810033595       16.9190477139      -15.8357696465  W2        12225           0.0000000000
     36675     12225  TIP3      H2             54.9377533595       17.9466277139      -16.8493496465  W2        12225           0.0000000000
     36676     12226  TIP3      OH2            40.8113233595       13.2794477139        1.4365703535  W2        12226           0.0000000000
     36677     12226  TIP3      H1             40.9553733595       12.3775177139        1.1502403535  W2        12226           0.0000000000
     36678     12226  TIP3      H2             40.0390633595       13.5656577139        0.9488003535  W2        12226           0.0000000000
     36679     12227  TIP3      OH2            45.1526933595       13.6230177139      -16.4309696465  W2        12227           0.0000000000
     36680     12227  TIP3      H1             45.2171033595       12.8289777139      -15.9003296465  W2        12227           0.0000000000
     36681     12227  TIP3      H2             45.8056133595       13.5042977139      -17.1207696465  W2        12227           0.0000000000
     36682     12228  TIP3      OH2            47.4669333595       13.2492577139        0.8692103535  W2        12228           0.0000000000
     36683     12228  TIP3      H1             47.1383133595       13.5200677139        0.0119503535  W2        12228           0.0000000000
     36684     12228  TIP3      H2             47.6187533595       12.3082377139        0.7817103535  W2        12228           0.0000000000
     36685     12229  TIP3      OH2            50.5050333595       14.6701877139      -16.6951696465  W2        12229           0.0000000000
     36686     12229  TIP3      H1             50.2364433595       14.8503977139      -15.7942796465  W2        12229           0.0000000000
     36687     12229  TIP3      H2             50.2985933595       13.7448077139      -16.8265896465  W2        12229           0.0000000000
     36688     12230  TIP3      OH2            53.2014533595       13.1649877139       -1.7475596465  W2        12230           0.0000000000
     36689     12230  TIP3      H1             53.9469333595       13.7533577139       -1.8671596465  W2        12230           0.0000000000
     36690     12230  TIP3      H2             52.4441333595       13.7469577139       -1.6842496465  W2        12230           0.0000000000
     36691     12231  TIP3      OH2            41.6439733595       10.4797777139        0.8565003535  W2        12231           0.0000000000
     36692     12231  TIP3      H1             42.0520933595        9.6224377139        0.7355603535  W2        12231           0.0000000000
     36693     12231  TIP3      H2             41.3837333595       10.4939077139        1.7775303535  W2        12231           0.0000000000
     36694     12232  TIP3      OH2            46.3020733595       11.5956377139      -14.1251696465  W2        12232           0.0000000000
     36695     12232  TIP3      H1             45.8422733595       11.1114677139      -13.4393196465  W2        12232           0.0000000000
     36696     12232  TIP3      H2             46.5569433595       10.9271777139      -14.7611196465  W2        12232           0.0000000000
     36697     12233  TIP3      OH2            45.5910033595        9.4883477139       -1.7692096465  W2        12233           0.0000000000
     36698     12233  TIP3      H1             44.9726133595       10.1630077139       -1.4887396465  W2        12233           0.0000000000
     36699     12233  TIP3      H2             45.9351233595        9.8097377139       -2.6025896465  W2        12233           0.0000000000
     36700     12234  TIP3      OH2            47.3731133595        9.8388177139      -15.8628496465  W2        12234           0.0000000000
     36701     12234  TIP3      H1             47.1926133595        9.6839377139      -16.7900196465  W2        12234           0.0000000000
     36702     12234  TIP3      H2             48.3231633595        9.9466877139      -15.8180596465  W2        12234           0.0000000000
     36703     12235  TIP3      OH2            50.6108233595       11.9598777139        1.5082703535  W2        12235           0.0000000000
     36704     12235  TIP3      H1             51.5639433595       12.0437877139        1.4808703535  W2        12235           0.0000000000
     36705     12235  TIP3      H2             50.4502833595       11.2480577139        2.1277603535  W2        12235           0.0000000000
     36706     12236  TIP3      OH2            45.9303733595        6.8434277139       -0.6868996465  W2        12236           0.0000000000
     36707     12236  TIP3      H1             46.0804633595        6.1145577139       -1.2889296465  W2        12236           0.0000000000
     36708     12236  TIP3      H2             45.9326133595        7.6205977139       -1.2456796465  W2        12236           0.0000000000
     36709     12237  TIP3      OH2            46.3429433595        5.2130077139       -3.1941596465  W2        12237           0.0000000000
     36710     12237  TIP3      H1             46.8786933595        5.6646777139       -3.8462296465  W2        12237           0.0000000000
     36711     12237  TIP3      H2             45.4909033595        5.1049877139       -3.6167496465  W2        12237           0.0000000000
     36712     12238  TIP3      OH2            47.9247833595       10.6526277139       -2.9546396465  W2        12238           0.0000000000
     36713     12238  TIP3      H1             48.6752633595       10.4963777139       -3.5278596465  W2        12238           0.0000000000
     36714     12238  TIP3      H2             47.5856133595       11.5042877139       -3.2300896465  W2        12238           0.0000000000
     36715     12239  TIP3      OH2            52.3404033595        8.4678077139        2.0738903535  W2        12239           0.0000000000
     36716     12239  TIP3      H1             52.5325333595        7.5367477139        1.9623403535  W2        12239           0.0000000000
     36717     12239  TIP3      H2             53.1980333595        8.8927577139        2.0634303535  W2        12239           0.0000000000
     36718     12240  TIP3      OH2            53.6571233595       11.2563277139        0.1511603535  W2        12240           0.0000000000
     36719     12240  TIP3      H1             53.3756233595       11.9657877139       -0.4264596465  W2        12240           0.0000000000
     36720     12240  TIP3      H2             54.5995533595       11.1836277139        0.0002803535  W2        12240           0.0000000000
     36721     12241  TIP3      OH2            44.4090033595        8.0417777139        1.2246603535  W2        12241           0.0000000000
     36722     12241  TIP3      H1             43.6419033595        7.5092577139        1.0144203535  W2        12241           0.0000000000
     36723     12241  TIP3      H2             45.0879033595        7.7318177139        0.6252903535  W2        12241           0.0000000000
     36724     12242  TIP3      OH2            47.1484933595        2.6695777139       -2.7627996465  W2        12242           0.0000000000
     36725     12242  TIP3      H1             47.0504533595        3.6158977139       -2.8681796465  W2        12242           0.0000000000
     36726     12242  TIP3      H2             46.4061133595        2.2969577139       -3.2384496465  W2        12242           0.0000000000
     36727     12243  TIP3      OH2            48.4125433595        6.9911177139        0.8010403535  W2        12243           0.0000000000
     36728     12243  TIP3      H1             48.1770833595        6.7717877139        1.7025303535  W2        12243           0.0000000000
     36729     12243  TIP3      H2             47.6292333595        6.7842377139        0.2912903535  W2        12243           0.0000000000
     36730     12244  TIP3      OH2            51.1282033595        6.1184677139       -0.1236096465  W2        12244           0.0000000000
     36731     12244  TIP3      H1             50.1807433595        6.1504377139        0.0087203535  W2        12244           0.0000000000
     36732     12244  TIP3      H2             51.4408733595        5.4931777139        0.5302103535  W2        12244           0.0000000000
     36733     12245  TIP3      OH2            52.7623533595        4.7525777139        1.8815803535  W2        12245           0.0000000000
     36734     12245  TIP3      H1             52.6655333595        3.8003077139        1.8757703535  W2        12245           0.0000000000
     36735     12245  TIP3      H2             52.4406633595        5.0212577139        2.7421303535  W2        12245           0.0000000000
     36736     12246  TIP3      OH2            42.5892833595        5.9621577139        0.9291303535  W2        12246           0.0000000000
     36737     12246  TIP3      H1             42.8010233595        5.2557677139        0.3188803535  W2        12246           0.0000000000
     36738     12246  TIP3      H2             42.4780333595        5.5247577139        1.7732503535  W2        12246           0.0000000000
     36739     12247  TIP3      OH2            47.3703033595        1.9633177139       -0.0915196465  W2        12247           0.0000000000
     36740     12247  TIP3      H1             48.0821433595        1.3235377139       -0.1056096465  W2        12247           0.0000000000
     36741     12247  TIP3      H2             47.2693433595        2.2301477139       -1.0052096465  W2        12247           0.0000000000
     36742     12248  TIP3      OH2            47.7240533595        3.6461577139        1.9621103535  W2        12248           0.0000000000
     36743     12248  TIP3      H1             47.5922733595        3.1705377139        1.1419603535  W2        12248           0.0000000000
     36744     12248  TIP3      H2             47.1247933595        4.3905177139        1.9068203535  W2        12248           0.0000000000
     36745     12249  TIP3      OH2            47.2702833595       20.5291877139      -14.8614896465  W2        12249           0.0000000000
     36746     12249  TIP3      H1             48.2033533595       20.6870577139      -14.7176496465  W2        12249           0.0000000000
     36747     12249  TIP3      H2             47.0061633595       21.2044877139      -15.4863396465  W2        12249           0.0000000000
     36748     12250  TIP3      OH2            40.8387733595       15.1655677139      -15.3786796465  W2        12250           0.0000000000
     36749     12250  TIP3      H1             41.7526933595       15.2444577139      -15.1052896465  W2        12250           0.0000000000
     36750     12250  TIP3      H2             40.8460833595       14.4785277139      -16.0451196465  W2        12250           0.0000000000
     36751     12251  TIP3      OH2            39.4878333595       20.5584177139      -10.3012896465  W2        12251           0.0000000000
     36752     12251  TIP3      H1             38.8405433595       20.0965877139      -10.8341696465  W2        12251           0.0000000000
     36753     12251  TIP3      H2             39.8422933595       19.8867477139       -9.7186696465  W2        12251           0.0000000000
     36754     12252  TIP3      OH2            40.3577533595       18.6391177139       -8.4966696465  W2        12252           0.0000000000
     36755     12252  TIP3      H1             40.0234333595       17.7588477139       -8.3246496465  W2        12252           0.0000000000
     36756     12252  TIP3      H2             40.5799933595       18.9846177139       -7.6321096465  W2        12252           0.0000000000
     36757     12253  TIP3      OH2            40.4377033595       11.7146577139       -6.0451796465  W2        12253           0.0000000000
     36758     12253  TIP3      H1             40.6219933595       11.6328277139       -6.9808896465  W2        12253           0.0000000000
     36759     12253  TIP3      H2             41.2869933595       11.5903577139       -5.6215396465  W2        12253           0.0000000000
     36760     12254  TIP3      OH2            40.0351833595        6.9851577139        0.0957003535  W2        12254           0.0000000000
     36761     12254  TIP3      H1             40.9546733595        6.8629877139        0.3320103535  W2        12254           0.0000000000
     36762     12254  TIP3      H2             39.5856333595        6.2351277139        0.4850503535  W2        12254           0.0000000000
     36763     12255  TIP3      OH2            41.2564333595        5.2973177139       -7.0130096465  W2        12255           0.0000000000
     36764     12255  TIP3      H1             41.7015933595        4.5055677139       -6.7110396465  W2        12255           0.0000000000
     36765     12255  TIP3      H2             41.7227333595        6.0138377139       -6.5824496465  W2        12255           0.0000000000
     36766     12256  TIP3      OH2            39.5604633595        8.2966177139       -5.9439896465  W2        12256           0.0000000000
     36767     12256  TIP3      H1             40.0524433595        8.0756677139       -6.7347896465  W2        12256           0.0000000000
     36768     12256  TIP3      H2             39.9225533595        9.1369577139       -5.6630396465  W2        12256           0.0000000000
     36769     12257  TIP3      OH2            39.8741133595        4.5545277139      -11.8897496465  W2        12257           0.0000000000
     36770     12257  TIP3      H1             38.9489533595        4.7631877139      -12.0191996465  W2        12257           0.0000000000
     36771     12257  TIP3      H2             40.3281033595        5.0386077139      -12.5795196465  W2        12257           0.0000000000
     36772     12258  TIP3      OH2            54.6448333595       19.5386977139       -9.9440096465  W2        12258           0.0000000000
     36773     12258  TIP3      H1             55.2971233595       19.1909077139      -10.5520996465  W2        12258           0.0000000000
     36774     12258  TIP3      H2             55.1552133595       20.0270177139       -9.2980396465  W2        12258           0.0000000000
     36775     12259  TIP3      OH2            39.8376533595        3.2924277139       -3.5454996465  W2        12259           0.0000000000
     36776     12259  TIP3      H1             39.1727033595        3.0464577139       -2.9024096465  W2        12259           0.0000000000
     36777     12259  TIP3      H2             39.3947833595        3.9144677139       -4.1226996465  W2        12259           0.0000000000
     36778     12260  TIP3      OH2            42.0295833595       16.4678377139        0.5990803535  W2        12260           0.0000000000
     36779     12260  TIP3      H1             41.2088333595       16.6424877139        0.1385503535  W2        12260           0.0000000000
     36780     12260  TIP3      H2             41.7773633595       16.3943077139        1.5195203535  W2        12260           0.0000000000
     36781     12261  TIP3      OH2            44.9838733595       17.4419577139       -3.1425196465  W2        12261           0.0000000000
     36782     12261  TIP3      H1             44.5589833595       18.2518077139       -3.4250596465  W2        12261           0.0000000000
     36783     12261  TIP3      H2             45.8881533595       17.5273677139       -3.4445396465  W2        12261           0.0000000000
     36784     12262  TIP3      OH2            49.2950133595       18.8409577139       -0.1831496465  W2        12262           0.0000000000
     36785     12262  TIP3      H1             49.4797633595       18.5075677139        0.6948803535  W2        12262           0.0000000000
     36786     12262  TIP3      H2             50.1414633595       19.1508177139       -0.5052296465  W2        12262           0.0000000000
     36787     12263  TIP3      OH2            51.6400533595       20.1268477139       -0.9390096465  W2        12263           0.0000000000
     36788     12263  TIP3      H1             52.3169433595       19.4940777139       -1.1790896465  W2        12263           0.0000000000
     36789     12263  TIP3      H2             51.9619333595       20.5278977139       -0.1316796465  W2        12263           0.0000000000
     36790     12264  TIP3      OH2            42.3855433595       20.6983477139       -3.0949896465  W2        12264           0.0000000000
     36791     12264  TIP3      H1             41.6651833595       21.1384477139       -3.5462196465  W2        12264           0.0000000000
     36792     12264  TIP3      H2             42.0199433595       20.4478177139       -2.2465896465  W2        12264           0.0000000000
     36793     12265  TIP3      OH2            44.8528033595       20.2987377139       -4.0652696465  W2        12265           0.0000000000
     36794     12265  TIP3      H1             43.9880233595       20.3705877139       -3.6612596465  W2        12265           0.0000000000
     36795     12265  TIP3      H2             44.7977033595       20.8454677139       -4.8490196465  W2        12265           0.0000000000
     36796     12266  TIP3      OH2            49.5633633595       20.1866277139       -4.8896696465  W2        12266           0.0000000000
     36797     12266  TIP3      H1             49.1067633595       20.7155977139       -5.5438296465  W2        12266           0.0000000000
     36798     12266  TIP3      H2             49.7261633595       20.7897677139       -4.1644396465  W2        12266           0.0000000000
     36799     12267  TIP3      OH2            51.8909933595       19.0645877139       -3.9446396465  W2        12267           0.0000000000
     36800     12267  TIP3      H1             50.9863633595       19.2296077139       -4.2104296465  W2        12267           0.0000000000
     36801     12267  TIP3      H2             52.3198533595       19.9178077139       -4.0102996465  W2        12267           0.0000000000
     36802     12268  TIP3      OH2            54.4951833595       20.6344977139       -3.6498596465  W2        12268           0.0000000000
     36803     12268  TIP3      H1             54.3133833595       21.5503877139       -3.8603696465  W2        12268           0.0000000000
     36804     12268  TIP3      H2             54.6719633595       20.2242077139       -4.4963996465  W2        12268           0.0000000000
     36805     12269  TIP3      OH2            41.8003533595       19.3215977139       -6.1848096465  W2        12269           0.0000000000
     36806     12269  TIP3      H1             41.7819533595       18.8961077139       -5.3275796465  W2        12269           0.0000000000
     36807     12269  TIP3      H2             42.6051433595       19.0030977139       -6.5935896465  W2        12269           0.0000000000
     36808     12270  TIP3      OH2            43.9416633595       18.0314677139       -7.5298196465  W2        12270           0.0000000000
     36809     12270  TIP3      H1             43.7227333595       17.1152077139       -7.3602196465  W2        12270           0.0000000000
     36810     12270  TIP3      H2             44.7658833595       18.1715077139       -7.0636796465  W2        12270           0.0000000000
     36811     12271  TIP3      OH2            46.4789133595       18.5013977139       -6.6810196465  W2        12271           0.0000000000
     36812     12271  TIP3      H1             46.6914833595       17.6132977139       -6.9679296465  W2        12271           0.0000000000
     36813     12271  TIP3      H2             46.5434233595       18.4671677139       -5.7266196465  W2        12271           0.0000000000
     36814     12272  TIP3      OH2            49.9872833595        4.1654577139       -7.5366896465  W2        12272           0.0000000000
     36815     12272  TIP3      H1             49.3129633595        3.5360177139       -7.2811096465  W2        12272           0.0000000000
     36816     12272  TIP3      H2             50.5512033595        3.6813477139       -8.1398996465  W2        12272           0.0000000000
     36817     12273  TIP3      OH2            42.3140333595        2.7994877139       -9.7146996465  W2        12273           0.0000000000
     36818     12273  TIP3      H1             41.5370133595        2.5649777139      -10.2221096465  W2        12273           0.0000000000
     36819     12273  TIP3      H2             42.8443933595        2.0026977139       -9.7058996465  W2        12273           0.0000000000
     36820     12274  TIP3      OH2            41.1503733595        2.5972977139      -13.9110896465  W2        12274           0.0000000000
     36821     12274  TIP3      H1             41.5894433595        3.2083477139      -14.5027396465  W2        12274           0.0000000000
     36822     12274  TIP3      H2             40.5166133595        3.1357077139      -13.4370896465  W2        12274           0.0000000000
     36823     12275  TIP3      OH2            46.8932933595        2.7261977139       -9.9013896465  W2        12275           0.0000000000
     36824     12275  TIP3      H1             47.7676333595        3.1146277139       -9.9309596465  W2        12275           0.0000000000
     36825     12275  TIP3      H2             46.7573733595        2.5109777139       -8.9786696465  W2        12275           0.0000000000
     36826     12276  TIP3      OH2            52.4501333595        2.7561777139       -8.2522196465  W2        12276           0.0000000000
     36827     12276  TIP3      H1             52.5262933595        2.8513377139       -9.2016196465  W2        12276           0.0000000000
     36828     12276  TIP3      H2             52.1750533595        1.8484677139       -8.1233096465  W2        12276           0.0000000000
     36829     12277  TIP3      OH2            53.8033933595        2.7819577139      -12.5597196465  W2        12277           0.0000000000
     36830     12277  TIP3      H1             53.1005033595        3.3968777139      -12.7695796465  W2        12277           0.0000000000
     36831     12277  TIP3      H2             53.3585333595        1.9446277139      -12.4286296465  W2        12277           0.0000000000
     36832     12278  TIP3      OH2            41.0513233595       18.5455177139      -13.0135796465  W2        12278           0.0000000000
     36833     12278  TIP3      H1             40.3663133595       18.5074077139      -13.6810696465  W2        12278           0.0000000000
     36834     12278  TIP3      H2             41.0550433595       19.4582777139      -12.7253696465  W2        12278           0.0000000000
     36835     12279  TIP3      OH2            43.0112833595        4.5134477139      -15.4686796465  W2        12279           0.0000000000
     36836     12279  TIP3      H1             43.5026233595        3.8836877139      -15.9961296465  W2        12279           0.0000000000
     36837     12279  TIP3      H2             43.6349133595        4.8093877139      -14.8055596465  W2        12279           0.0000000000
     36838     12280  TIP3      OH2            48.0372933595        4.8065977139      -13.0116296465  W2        12280           0.0000000000
     36839     12280  TIP3      H1             48.2154233595        4.1599177139      -12.3287696465  W2        12280           0.0000000000
     36840     12280  TIP3      H2             47.9839133595        5.6403677139      -12.5445196465  W2        12280           0.0000000000
     36841     12281  TIP3      OH2            49.9156733595       19.7550077139      -14.6159596465  W2        12281           0.0000000000
     36842     12281  TIP3      H1             50.7816933595       20.1217477139      -14.7941396465  W2        12281           0.0000000000
     36843     12281  TIP3      H2             49.6689533595       19.3158077139      -15.4298796465  W2        12281           0.0000000000
     36844     12282  TIP3      OH2            42.2718333595        3.3136777139       -0.1970796465  W2        12282           0.0000000000
     36845     12282  TIP3      H1             41.9056533595        2.5479377139        0.2453903535  W2        12282           0.0000000000
     36846     12282  TIP3      H2             43.1846833595        3.3426977139        0.0894303535  W2        12282           0.0000000000
     36847     12283  TIP3      OH2            44.2449133595        2.6641177139        1.3386303535  W2        12283           0.0000000000
     36848     12283  TIP3      H1             45.1432733595        2.3901377139        1.1539703535  W2        12283           0.0000000000
     36849     12283  TIP3      H2             43.8582233595        1.9217177139        1.8028903535  W2        12283           0.0000000000
     36850     12284  TIP3      OH2            42.8694433595       19.4655977139      -15.9883696465  W2        12284           0.0000000000
     36851     12284  TIP3      H1             42.6019033595       19.7518877139      -15.1150596465  W2        12284           0.0000000000
     36852     12284  TIP3      H2             43.6407033595       18.9195177139      -15.8361196465  W2        12284           0.0000000000
     36853     12285  TIP3      OH2            52.6661433595        1.9966477139        1.5209103535  W2        12285           0.0000000000
     36854     12285  TIP3      H1             52.7428633595        1.5707177139        2.3746803535  W2        12285           0.0000000000
     36855     12285  TIP3      H2             53.5598033595        2.0101177139        1.1782603535  W2        12285           0.0000000000
     36856     12286  TIP3      OH2           -42.8877066405       30.8117177139       -9.7559496465  W2        12286           0.0000000000
     36857     12286  TIP3      H1            -42.7985966405       31.7555377139       -9.8882396465  W2        12286           0.0000000000
     36858     12286  TIP3      H2            -43.5259466405       30.5363577139      -10.4140096465  W2        12286           0.0000000000
     36859     12287  TIP3      OH2           -43.9545766405       30.0667877139       -6.3371296465  W2        12287           0.0000000000
     36860     12287  TIP3      H1            -43.9928266405       29.4204177139       -5.6321696465  W2        12287           0.0000000000
     36861     12287  TIP3      H2            -44.2769266405       29.6002277139       -7.1082596465  W2        12287           0.0000000000
     36862     12288  TIP3      OH2           -51.5860766405       29.6809977139       -4.7441396465  W2        12288           0.0000000000
     36863     12288  TIP3      H1            -51.5448666405       29.0553277139       -4.0208996465  W2        12288           0.0000000000
     36864     12288  TIP3      H2            -50.8833066405       30.3048577139       -4.5620996465  W2        12288           0.0000000000
     36865     12289  TIP3      OH2           -40.2485566405       33.0058277139       -8.0356196465  W2        12289           0.0000000000
     36866     12289  TIP3      H1            -40.6892866405       32.2854277139       -7.5850596465  W2        12289           0.0000000000
     36867     12289  TIP3      H2            -40.2615866405       33.7265477139       -7.4058496465  W2        12289           0.0000000000
     36868     12290  TIP3      OH2           -50.6627666405       34.1308877139       -6.2092296465  W2        12290           0.0000000000
     36869     12290  TIP3      H1            -51.0322466405       33.3289377139       -6.5787996465  W2        12290           0.0000000000
     36870     12290  TIP3      H2            -49.7216566405       33.9623777139       -6.1628896465  W2        12290           0.0000000000
     36871     12291  TIP3      OH2           -54.0527166405       27.7911477139      -10.8163496465  W2        12291           0.0000000000
     36872     12291  TIP3      H1            -54.5003766405       28.6370177139      -10.8346996465  W2        12291           0.0000000000
     36873     12291  TIP3      H2            -54.6135966405       27.2115677139      -11.3318396465  W2        12291           0.0000000000
     36874     12292  TIP3      OH2           -53.3421066405       29.9531077139       -8.6905496465  W2        12292           0.0000000000
     36875     12292  TIP3      H1            -53.1287566405       29.1832677139       -8.1632496465  W2        12292           0.0000000000
     36876     12292  TIP3      H2            -52.6043466405       30.0427777139       -9.2937896465  W2        12292           0.0000000000
     36877     12293  TIP3      OH2           -43.1370066405       38.1099977139       -7.8235796465  W2        12293           0.0000000000
     36878     12293  TIP3      H1            -42.5173666405       37.4334677139       -8.0966596465  W2        12293           0.0000000000
     36879     12293  TIP3      H2            -43.3452666405       37.8920777139       -6.9150896465  W2        12293           0.0000000000
     36880     12294  TIP3      OH2           -45.5651366405       32.4989277139       -5.9310296465  W2        12294           0.0000000000
     36881     12294  TIP3      H1            -45.2613466405       31.8130677139       -6.5256196465  W2        12294           0.0000000000
     36882     12294  TIP3      H2            -44.8437366405       32.6177977139       -5.3132296465  W2        12294           0.0000000000
     36883     12295  TIP3      OH2           -36.9021566405       24.1004577139       -5.0704096465  W2        12295           0.0000000000
     36884     12295  TIP3      H1            -36.8529366405       24.7105777139       -4.3344996465  W2        12295           0.0000000000
     36885     12295  TIP3      H2            -36.4766466405       24.5615477139       -5.7932996465  W2        12295           0.0000000000
     36886     12296  TIP3      OH2           -42.4244366405       26.8931677139       -5.6035496465  W2        12296           0.0000000000
     36887     12296  TIP3      H1            -42.2818466405       25.9468677139       -5.5833896465  W2        12296           0.0000000000
     36888     12296  TIP3      H2            -42.5305366405       27.1001477139       -6.5320596465  W2        12296           0.0000000000
     36889     12297  TIP3      OH2           -49.2696066405       24.9948077139       -8.3310696465  W2        12297           0.0000000000
     36890     12297  TIP3      H1            -49.2264966405       25.8546577139       -8.7494396465  W2        12297           0.0000000000
     36891     12297  TIP3      H2            -49.7271966405       24.4422777139       -8.9647496465  W2        12297           0.0000000000
     36892     12298  TIP3      OH2           -41.5473366405       25.1253677139       -9.9302396465  W2        12298           0.0000000000
     36893     12298  TIP3      H1            -40.9009066405       24.7966877139       -9.3054796465  W2        12298           0.0000000000
     36894     12298  TIP3      H2            -41.0373966405       25.6432677139      -10.5530996465  W2        12298           0.0000000000
     36895     12299  TIP3      OH2           -52.6494566405       27.3913877139       -7.5689296465  W2        12299           0.0000000000
     36896     12299  TIP3      H1            -51.9957966405       26.8415577139       -7.1369196465  W2        12299           0.0000000000
     36897     12299  TIP3      H2            -52.6255266405       27.1172877139       -8.4857296465  W2        12299           0.0000000000
     36898     12300  TIP3      OH2           -47.4930066405       28.9415177139       -8.3537796465  W2        12300           0.0000000000
     36899     12300  TIP3      H1            -46.8769066405       28.4150577139       -7.8443796465  W2        12300           0.0000000000
     36900     12300  TIP3      H2            -48.0791266405       28.3013877139       -8.7574196465  W2        12300           0.0000000000
     36901     12301  TIP3      OH2           -36.5106966405       25.5783777139       -2.8344296465  W2        12301           0.0000000000
     36902     12301  TIP3      H1            -37.1992366405       26.2364477139       -2.9297696465  W2        12301           0.0000000000
     36903     12301  TIP3      H2            -36.4952366405       25.3811677139       -1.8978896465  W2        12301           0.0000000000
     36904     12302  TIP3      OH2           -50.4594166405       23.9126477139       -4.2569896465  W2        12302           0.0000000000
     36905     12302  TIP3      H1            -50.6782466405       24.4427077139       -5.0233896465  W2        12302           0.0000000000
     36906     12302  TIP3      H2            -51.1273266405       24.1391977139       -3.6098496465  W2        12302           0.0000000000
     36907     12303  TIP3      OH2           -43.0904366405       33.4127577139      -10.7130796465  W2        12303           0.0000000000
     36908     12303  TIP3      H1            -43.3859266405       33.0899877139      -11.5643896465  W2        12303           0.0000000000
     36909     12303  TIP3      H2            -43.4146566405       34.3124277139      -10.6718196465  W2        12303           0.0000000000
     36910     12304  TIP3      OH2           -47.8902766405       31.5882177139       -3.9696196465  W2        12304           0.0000000000
     36911     12304  TIP3      H1            -48.6303666405       32.1863677139       -3.8660996465  W2        12304           0.0000000000
     36912     12304  TIP3      H2            -47.1763266405       32.1421777139       -4.2852596465  W2        12304           0.0000000000
     36913     12305  TIP3      OH2           -39.7834966405       24.4162977139       -7.9496496465  W2        12305           0.0000000000
     36914     12305  TIP3      H1            -39.9986966405       23.6506377139       -7.4170496465  W2        12305           0.0000000000
     36915     12305  TIP3      H2            -39.1277566405       24.8887577139       -7.4367996465  W2        12305           0.0000000000
     36916     12306  TIP3      OH2           -50.8656866405       25.8048277139       -6.3047696465  W2        12306           0.0000000000
     36917     12306  TIP3      H1            -50.2520566405       26.4375877139       -5.9315296465  W2        12306           0.0000000000
     36918     12306  TIP3      H2            -50.3536166405       25.3323277139       -6.9610796465  W2        12306           0.0000000000
     36919     12307  TIP3      OH2           -49.4828466405       33.5525177139       -3.1824696465  W2        12307           0.0000000000
     36920     12307  TIP3      H1            -49.4880866405       34.4318677139       -3.5605396465  W2        12307           0.0000000000
     36921     12307  TIP3      H2            -50.3364366405       33.4689277139       -2.7574796465  W2        12307           0.0000000000
     36922     12308  TIP3      OH2           -53.3617566405       33.2233077139      -12.4005396465  W2        12308           0.0000000000
     36923     12308  TIP3      H1            -53.6336666405       33.4524077139      -13.2892496465  W2        12308           0.0000000000
     36924     12308  TIP3      H2            -53.3161866405       34.0611877139      -11.9400096465  W2        12308           0.0000000000
     36925     12309  TIP3      OH2           -39.7367866405       34.8448977139       -5.6876896465  W2        12309           0.0000000000
     36926     12309  TIP3      H1            -40.6784166405       34.9032877139       -5.5259996465  W2        12309           0.0000000000
     36927     12309  TIP3      H2            -39.4601766405       35.7509477139       -5.8247196465  W2        12309           0.0000000000
     36928     12310  TIP3      OH2           -39.4360866405       23.1314277139       -4.2702996465  W2        12310           0.0000000000
     36929     12310  TIP3      H1            -40.1721666405       23.7421377139       -4.3081696465  W2        12310           0.0000000000
     36930     12310  TIP3      H2            -38.7526866405       23.5463277139       -4.7966596465  W2        12310           0.0000000000
     36931     12311  TIP3      OH2           -46.4329466405       21.2181577139       -6.8044996465  W2        12311           0.0000000000
     36932     12311  TIP3      H1            -46.5505266405       20.2697577139       -6.8586696465  W2        12311           0.0000000000
     36933     12311  TIP3      H2            -47.2879366405       21.5507677139       -6.5313896465  W2        12311           0.0000000000
     36934     12312  TIP3      OH2           -41.4846666405       36.6262477139       -9.0625296465  W2        12312           0.0000000000
     36935     12312  TIP3      H1            -41.0594366405       35.9190377139       -9.5475696465  W2        12312           0.0000000000
     36936     12312  TIP3      H2            -41.1676666405       37.4275177139       -9.4793096465  W2        12312           0.0000000000
     36937     12313  TIP3      OH2           -40.3250166405       34.5270977139      -10.5538696465  W2        12313           0.0000000000
     36938     12313  TIP3      H1            -40.5825366405       33.8371077139      -11.1652796465  W2        12313           0.0000000000
     36939     12313  TIP3      H2            -40.2539366405       34.0842177139       -9.7082796465  W2        12313           0.0000000000
     36940     12314  TIP3      OH2           -38.6389966405       33.0937677139       -2.0765196465  W2        12314           0.0000000000
     36941     12314  TIP3      H1            -38.4993666405       32.5020177139       -2.8158196465  W2        12314           0.0000000000
     36942     12314  TIP3      H2            -38.4717166405       33.9663577139       -2.4326396465  W2        12314           0.0000000000
     36943     12315  TIP3      OH2           -44.1664566405       30.0557177139      -12.3039196465  W2        12315           0.0000000000
     36944     12315  TIP3      H1            -44.8779066405       30.5906877139      -12.6558696465  W2        12315           0.0000000000
     36945     12315  TIP3      H2            -43.4754966405       30.1109277139      -12.9640296465  W2        12315           0.0000000000
     36946     12316  TIP3      OH2           -44.1125366405       28.5131477139      -15.2654196465  W2        12316           0.0000000000
     36947     12316  TIP3      H1            -43.4115466405       28.5358377139      -14.6140196465  W2        12316           0.0000000000
     36948     12316  TIP3      H2            -43.8102466405       27.8851177139      -15.9214896465  W2        12316           0.0000000000
     36949     12317  TIP3      OH2           -36.7970666405       29.4335677139       -4.0104796465  W2        12317           0.0000000000
     36950     12317  TIP3      H1            -37.4496566405       30.1281277139       -3.9213896465  W2        12317           0.0000000000
     36951     12317  TIP3      H2            -36.3320366405       29.6436577139       -4.8203196465  W2        12317           0.0000000000
     36952     12318  TIP3      OH2           -40.7606866405       30.2650477139      -11.3523296465  W2        12318           0.0000000000
     36953     12318  TIP3      H1            -41.4925866405       30.4934177139      -10.7792696465  W2        12318           0.0000000000
     36954     12318  TIP3      H2            -40.3134666405       29.5513177139      -10.8975796465  W2        12318           0.0000000000
     36955     12319  TIP3      OH2           -40.8633366405       28.4393077139       -2.2846296465  W2        12319           0.0000000000
     36956     12319  TIP3      H1            -40.7834266405       29.2027477139       -1.7127796465  W2        12319           0.0000000000
     36957     12319  TIP3      H2            -41.4645666405       28.7185477139       -2.9751196465  W2        12319           0.0000000000
     36958     12320  TIP3      OH2           -49.1153166405       30.8956677139       -9.4698296465  W2        12320           0.0000000000
     36959     12320  TIP3      H1            -49.4457966405       30.5250077139      -10.2881296465  W2        12320           0.0000000000
     36960     12320  TIP3      H2            -48.5269066405       30.2250677139       -9.1229996465  W2        12320           0.0000000000
     36961     12321  TIP3      OH2           -47.7485666405       34.3237277139       -6.7886096465  W2        12321           0.0000000000
     36962     12321  TIP3      H1            -47.8434366405       33.7450377139       -7.5451496465  W2        12321           0.0000000000
     36963     12321  TIP3      H2            -47.0192066405       33.9522977139       -6.2923296465  W2        12321           0.0000000000
     36964     12322  TIP3      OH2           -48.7487666405       29.6642277139       -5.8363296465  W2        12322           0.0000000000
     36965     12322  TIP3      H1            -48.1835166405       29.7856477139       -6.5992096465  W2        12322           0.0000000000
     36966     12322  TIP3      H2            -48.4298766405       30.3017277139       -5.1974796465  W2        12322           0.0000000000
     36967     12323  TIP3      OH2           -42.4395466405       35.1674177139       -5.1022796465  W2        12323           0.0000000000
     36968     12323  TIP3      H1            -42.6798866405       35.8297277139       -4.4543596465  W2        12323           0.0000000000
     36969     12323  TIP3      H2            -42.6377266405       34.3329377139       -4.6773196465  W2        12323           0.0000000000
     36970     12324  TIP3      OH2           -47.8686966405       34.0634977139       -1.1191396465  W2        12324           0.0000000000
     36971     12324  TIP3      H1            -48.1799466405       34.8458177139       -0.6638196465  W2        12324           0.0000000000
     36972     12324  TIP3      H2            -48.5186766405       33.9104077139       -1.8049396465  W2        12324           0.0000000000
     36973     12325  TIP3      OH2           -41.8897366405       29.4273377139      -13.6672096465  W2        12325           0.0000000000
     36974     12325  TIP3      H1            -41.3101866405       29.5773677139      -12.9203196465  W2        12325           0.0000000000
     36975     12325  TIP3      H2            -41.4757366405       29.8980777139      -14.3905696465  W2        12325           0.0000000000
     36976     12326  TIP3      OH2           -50.9487066405       30.2616077139       -1.8905696465  W2        12326           0.0000000000
     36977     12326  TIP3      H1            -50.8783866405       30.9122877139       -1.1920696465  W2        12326           0.0000000000
     36978     12326  TIP3      H2            -51.8394866405       30.3643577139       -2.2254796465  W2        12326           0.0000000000
     36979     12327  TIP3      OH2           -44.1632466405       36.1641877139      -10.2318996465  W2        12327           0.0000000000
     36980     12327  TIP3      H1            -43.6894866405       36.4598177139       -9.4544796465  W2        12327           0.0000000000
     36981     12327  TIP3      H2            -44.7263166405       36.9023477139      -10.4649396465  W2        12327           0.0000000000
     36982     12328  TIP3      OH2           -49.6291066405       36.1349977139       -0.3557596465  W2        12328           0.0000000000
     36983     12328  TIP3      H1            -49.6215766405       35.9989677139       -1.3032096465  W2        12328           0.0000000000
     36984     12328  TIP3      H2            -50.5450666405       36.0178077139       -0.1037596465  W2        12328           0.0000000000
     36985     12329  TIP3      OH2           -38.1908966405       21.1773777139      -13.8542396465  W2        12329           0.0000000000
     36986     12329  TIP3      H1            -39.0908266405       21.3162777139      -13.5591796465  W2        12329           0.0000000000
     36987     12329  TIP3      H2            -37.9390566405       22.0088377139      -14.2560696465  W2        12329           0.0000000000
     36988     12330  TIP3      OH2           -50.1250466405       29.9650977139      -11.8805496465  W2        12330           0.0000000000
     36989     12330  TIP3      H1            -50.4169166405       30.7332677139      -12.3714196465  W2        12330           0.0000000000
     36990     12330  TIP3      H2            -50.7995266405       29.3057177139      -12.0434096465  W2        12330           0.0000000000
     36991     12331  TIP3      OH2           -37.0017566405       35.5436177139      -15.4778496465  W2        12331           0.0000000000
     36992     12331  TIP3      H1            -36.9284066405       36.4826377139      -15.3073196465  W2        12331           0.0000000000
     36993     12331  TIP3      H2            -36.0962466405       35.2384777139      -15.5341196465  W2        12331           0.0000000000
     36994     12332  TIP3      OH2           -54.0320366405       32.3280177139       -3.0655696465  W2        12332           0.0000000000
     36995     12332  TIP3      H1            -54.5331966405       32.2999577139       -3.8805996465  W2        12332           0.0000000000
     36996     12332  TIP3      H2            -54.0266666405       31.4223377139       -2.7558396465  W2        12332           0.0000000000
     36997     12333  TIP3      OH2           -54.2817666405       35.1083977139       -6.1815496465  W2        12333           0.0000000000
     36998     12333  TIP3      H1            -53.3357066405       34.9640977139       -6.2005996465  W2        12333           0.0000000000
     36999     12333  TIP3      H2            -54.3941366405       35.8926777139       -5.6444296465  W2        12333           0.0000000000
     37000     12334  TIP3      OH2           -36.0839166405       35.7743677139       -0.4991796465  W2        12334           0.0000000000
     37001     12334  TIP3      H1            -36.1332366405       34.8191777139       -0.5364196465  W2        12334           0.0000000000
     37002     12334  TIP3      H2            -36.9106866405       36.0418977139       -0.0977996465  W2        12334           0.0000000000
     37003     12335  TIP3      OH2           -45.1055166405       35.3482877139       -1.6230396465  W2        12335           0.0000000000
     37004     12335  TIP3      H1            -45.0180566405       36.1747477139       -1.1481296465  W2        12335           0.0000000000
     37005     12335  TIP3      H2            -45.9690066405       35.0186677139       -1.3741096465  W2        12335           0.0000000000
     37006     12336  TIP3      OH2           -44.6909366405       39.1206577139      -11.8169796465  W2        12336           0.0000000000
     37007     12336  TIP3      H1            -44.7663366405       38.9993777139      -12.7634596465  W2        12336           0.0000000000
     37008     12336  TIP3      H2            -44.6580666405       40.0699277139      -11.6985196465  W2        12336           0.0000000000
     37009     12337  TIP3      OH2           -51.0375566405       37.9093577139      -10.0360796465  W2        12337           0.0000000000
     37010     12337  TIP3      H1            -50.8855166405       37.5613977139       -9.1574296465  W2        12337           0.0000000000
     37011     12337  TIP3      H2            -51.8885166405       37.5530877139      -10.2913596465  W2        12337           0.0000000000
     37012     12338  TIP3      OH2           -41.5893366405       38.2746777139      -14.8147396465  W2        12338           0.0000000000
     37013     12338  TIP3      H1            -41.2144966405       37.5302877139      -15.2854796465  W2        12338           0.0000000000
     37014     12338  TIP3      H2            -41.5849666405       38.0047377139      -13.8964096465  W2        12338           0.0000000000
     37015     12339  TIP3      OH2           -41.9205266405       38.2003877139      -12.0655196465  W2        12339           0.0000000000
     37016     12339  TIP3      H1            -42.8555466405       38.3005777139      -11.8868196465  W2        12339           0.0000000000
     37017     12339  TIP3      H2            -41.6403366405       37.4909877139      -11.4871996465  W2        12339           0.0000000000
     37018     12340  TIP3      OH2           -38.9319366405       27.2676177139       -0.0189596465  W2        12340           0.0000000000
     37019     12340  TIP3      H1            -39.3392566405       27.7481777139       -0.7396296465  W2        12340           0.0000000000
     37020     12340  TIP3      H2            -38.8913666405       26.3622177139       -0.3268796465  W2        12340           0.0000000000
     37021     12341  TIP3      OH2           -51.7829866405       33.6515577139       -2.0222896465  W2        12341           0.0000000000
     37022     12341  TIP3      H1            -51.5668566405       33.2901177139       -1.1627096465  W2        12341           0.0000000000
     37023     12341  TIP3      H2            -52.6385166405       33.2769377139       -2.2319396465  W2        12341           0.0000000000
     37024     12342  TIP3      OH2           -49.1641866405       22.1216077139       -6.0268696465  W2        12342           0.0000000000
     37025     12342  TIP3      H1            -50.0258166405       22.0344277139       -6.4345796465  W2        12342           0.0000000000
     37026     12342  TIP3      H2            -49.1866166405       22.9776177139       -5.5991096465  W2        12342           0.0000000000
     37027     12343  TIP3      OH2           -44.5014066405       21.8436477139       -2.6521696465  W2        12343           0.0000000000
     37028     12343  TIP3      H1            -44.0810966405       21.4283577139       -1.8991096465  W2        12343           0.0000000000
     37029     12343  TIP3      H2            -45.4344466405       21.6649777139       -2.5349696465  W2        12343           0.0000000000
     37030     12344  TIP3      OH2           -41.1749166405       25.5991677139       -1.7987196465  W2        12344           0.0000000000
     37031     12344  TIP3      H1            -41.6889666405       25.4733877139       -1.0011196465  W2        12344           0.0000000000
     37032     12344  TIP3      H2            -41.3304466405       26.5114777139       -2.0430996465  W2        12344           0.0000000000
     37033     12345  TIP3      OH2           -40.4124266405       30.4601677139      -16.0374196465  W2        12345           0.0000000000
     37034     12345  TIP3      H1            -40.3703466405       30.2375577139      -16.9674196465  W2        12345           0.0000000000
     37035     12345  TIP3      H2            -39.5632166405       30.8588777139      -15.8474296465  W2        12345           0.0000000000
     37036     12346  TIP3      OH2           -44.8396766405       24.3359877139      -15.3670896465  W2        12346           0.0000000000
     37037     12346  TIP3      H1            -45.0931966405       24.3551477139      -14.4442796465  W2        12346           0.0000000000
     37038     12346  TIP3      H2            -45.0964666405       23.4645277139      -15.6684696465  W2        12346           0.0000000000
     37039     12347  TIP3      OH2           -49.0731766405       27.0870577139       -4.9318496465  W2        12347           0.0000000000
     37040     12347  TIP3      H1            -49.7149666405       27.0467877139       -4.2228396465  W2        12347           0.0000000000
     37041     12347  TIP3      H2            -49.0359766405       28.0135277139       -5.1695496465  W2        12347           0.0000000000
     37042     12348  TIP3      OH2           -49.0762666405       27.3080677139      -10.0198496465  W2        12348           0.0000000000
     37043     12348  TIP3      H1            -49.9689766405       26.9676777139      -10.0784696465  W2        12348           0.0000000000
     37044     12348  TIP3      H2            -48.6256066405       26.9311577139      -10.7755296465  W2        12348           0.0000000000
     37045     12349  TIP3      OH2           -43.5407166405       27.7240977139      -11.2027696465  W2        12349           0.0000000000
     37046     12349  TIP3      H1            -43.9496866405       28.5389577139      -11.4942896465  W2        12349           0.0000000000
     37047     12349  TIP3      H2            -42.8200966405       27.5841077139      -11.8170596465  W2        12349           0.0000000000
     37048     12350  TIP3      OH2           -44.4385566405       27.8997377139        0.2853003535  W2        12350           0.0000000000
     37049     12350  TIP3      H1            -45.0011766405       27.1948977139        0.6060803535  W2        12350           0.0000000000
     37050     12350  TIP3      H2            -43.6122166405       27.7789277139        0.7530603535  W2        12350           0.0000000000
     37051     12351  TIP3      OH2           -42.5359466405       27.1701377139       -8.3887996465  W2        12351           0.0000000000
     37052     12351  TIP3      H1            -42.7314966405       27.7758177139       -9.1037396465  W2        12351           0.0000000000
     37053     12351  TIP3      H2            -42.3546866405       26.3366577139       -8.8231696465  W2        12351           0.0000000000
     37054     12352  TIP3      OH2           -51.3231266405       27.4074077139       -3.0646496465  W2        12352           0.0000000000
     37055     12352  TIP3      H1            -51.3611866405       27.8075677139       -2.1959396465  W2        12352           0.0000000000
     37056     12352  TIP3      H2            -51.8140166405       26.5906477139       -2.9743596465  W2        12352           0.0000000000
     37057     12353  TIP3      OH2           -47.9573866405       24.7816377139      -16.2660496465  W2        12353           0.0000000000
     37058     12353  TIP3      H1            -48.3883166405       24.3366477139      -15.5363096465  W2        12353           0.0000000000
     37059     12353  TIP3      H2            -48.6755166405       25.1532677139      -16.7782996465  W2        12353           0.0000000000
     37060     12354  TIP3      OH2           -54.7150466405       24.5235877139       -9.2141796465  W2        12354           0.0000000000
     37061     12354  TIP3      H1            -54.0842766405       24.4947977139       -8.4947896465  W2        12354           0.0000000000
     37062     12354  TIP3      H2            -54.2656166405       24.0984577139       -9.9445896465  W2        12354           0.0000000000
     37063     12355  TIP3      OH2           -53.4408366405       25.2697877139      -13.7901396465  W2        12355           0.0000000000
     37064     12355  TIP3      H1            -52.9666666405       25.8607777139      -14.3750496465  W2        12355           0.0000000000
     37065     12355  TIP3      H2            -54.1581966405       25.8000777139      -13.4431296465  W2        12355           0.0000000000
     37066     12356  TIP3      OH2           -43.2720266405       28.8082677139       -3.7175596465  W2        12356           0.0000000000
     37067     12356  TIP3      H1            -42.9485466405       28.1772377139       -4.3605096465  W2        12356           0.0000000000
     37068     12356  TIP3      H2            -43.7120966405       28.2734877139       -3.0568196465  W2        12356           0.0000000000
     37069     12357  TIP3      OH2           -46.4947366405       24.7358177139       -8.9334396465  W2        12357           0.0000000000
     37070     12357  TIP3      H1            -47.4056266405       24.7924977139       -8.6448396465  W2        12357           0.0000000000
     37071     12357  TIP3      H2            -45.9894466405       24.6753677139       -8.1227196465  W2        12357           0.0000000000
     37072     12358  TIP3      OH2           -51.6663966405       26.3644477139      -10.1066796465  W2        12358           0.0000000000
     37073     12358  TIP3      H1            -52.5555966405       26.4639977139      -10.4467196465  W2        12358           0.0000000000
     37074     12358  TIP3      H2            -51.3699066405       25.5227477139      -10.4528896465  W2        12358           0.0000000000
     37075     12359  TIP3      OH2           -48.0132166405       26.3647077139      -12.4502196465  W2        12359           0.0000000000
     37076     12359  TIP3      H1            -47.0816666405       26.4937077139      -12.2719096465  W2        12359           0.0000000000
     37077     12359  TIP3      H2            -48.2281866405       27.0341377139      -13.0997496465  W2        12359           0.0000000000
     37078     12360  TIP3      OH2           -42.0895466405       23.9704477139       -5.6692596465  W2        12360           0.0000000000
     37079     12360  TIP3      H1            -42.7663866405       24.1017577139       -5.0052896465  W2        12360           0.0000000000
     37080     12360  TIP3      H2            -42.5750566405       23.8153977139       -6.4794896465  W2        12360           0.0000000000
     37081     12361  TIP3      OH2           -49.3391966405       27.5589277139      -14.8836096465  W2        12361           0.0000000000
     37082     12361  TIP3      H1            -49.8816866405       27.1793077139      -15.5748496465  W2        12361           0.0000000000
     37083     12361  TIP3      H2            -48.5057066405       27.7533977139      -15.3121996465  W2        12361           0.0000000000
     37084     12362  TIP3      OH2           -38.8020366405       39.6419877139        0.6075003535  W2        12362           0.0000000000
     37085     12362  TIP3      H1            -38.6021666405       40.0661777139       -0.2269696465  W2        12362           0.0000000000
     37086     12362  TIP3      H2            -38.1466666405       39.9858077139        1.2145403535  W2        12362           0.0000000000
     37087     12363  TIP3      OH2           -51.2040566405       32.1161177139        0.2155503535  W2        12363           0.0000000000
     37088     12363  TIP3      H1            -50.4718166405       32.3707077139        0.7770003535  W2        12363           0.0000000000
     37089     12363  TIP3      H2            -51.9841866405       32.3206577139        0.7310903535  W2        12363           0.0000000000
     37090     12364  TIP3      OH2           -45.1747666405       27.5231177139       -7.0464796465  W2        12364           0.0000000000
     37091     12364  TIP3      H1            -44.6104266405       26.9767777139       -7.5935196465  W2        12364           0.0000000000
     37092     12364  TIP3      H2            -45.3224266405       27.0013077139       -6.2577196465  W2        12364           0.0000000000
     37093     12365  TIP3      OH2           -50.1727966405       23.6597277139      -10.6279996465  W2        12365           0.0000000000
     37094     12365  TIP3      H1            -50.4898466405       22.7572577139      -10.6634596465  W2        12365           0.0000000000
     37095     12365  TIP3      H2            -49.3913866405       23.6614677139      -11.1808396465  W2        12365           0.0000000000
     37096     12366  TIP3      OH2           -46.5481766405       25.9117277139       -4.6324396465  W2        12366           0.0000000000
     37097     12366  TIP3      H1            -47.3836466405       26.3656777139       -4.5221996465  W2        12366           0.0000000000
     37098     12366  TIP3      H2            -46.0241166405       26.1875777139       -3.8804496465  W2        12366           0.0000000000
     37099     12367  TIP3      OH2           -46.0039166405       32.1244977139      -12.9477996465  W2        12367           0.0000000000
     37100     12367  TIP3      H1            -46.7488166405       31.6170277139      -13.2700096465  W2        12367           0.0000000000
     37101     12367  TIP3      H2            -46.1381966405       32.1732977139      -12.0013196465  W2        12367           0.0000000000
     37102     12368  TIP3      OH2           -38.8540266405       31.2573177139       -4.1610396465  W2        12368           0.0000000000
     37103     12368  TIP3      H1            -38.2121466405       31.7139477139       -4.7048196465  W2        12368           0.0000000000
     37104     12368  TIP3      H2            -39.6843366405       31.3705577139       -4.6236296465  W2        12368           0.0000000000
     37105     12369  TIP3      OH2           -42.1062366405       24.9384877139      -14.7485396465  W2        12369           0.0000000000
     37106     12369  TIP3      H1            -43.0448166405       25.0500477139      -14.8996596465  W2        12369           0.0000000000
     37107     12369  TIP3      H2            -41.8090266405       25.7951777139      -14.4419696465  W2        12369           0.0000000000
     37108     12370  TIP3      OH2           -44.4847066405       32.3088277139       -1.7108896465  W2        12370           0.0000000000
     37109     12370  TIP3      H1            -44.8300966405       31.9270677139       -0.9039296465  W2        12370           0.0000000000
     37110     12370  TIP3      H2            -44.6846966405       33.2421877139       -1.6395996465  W2        12370           0.0000000000
     37111     12371  TIP3      OH2           -41.3878866405       26.8057577139      -13.0877996465  W2        12371           0.0000000000
     37112     12371  TIP3      H1            -40.4959866405       26.6682577139      -12.7686796465  W2        12371           0.0000000000
     37113     12371  TIP3      H2            -41.3315266405       27.5963677139      -13.6244496465  W2        12371           0.0000000000
     37114     12372  TIP3      OH2           -50.8790866405       31.4194977139       -7.1780096465  W2        12372           0.0000000000
     37115     12372  TIP3      H1            -50.1343666405       31.4170677139       -7.7793596465  W2        12372           0.0000000000
     37116     12372  TIP3      H2            -50.8014266405       30.5958777139       -6.6964996465  W2        12372           0.0000000000
     37117     12373  TIP3      OH2           -43.8785066405       33.5829277139      -13.9223396465  W2        12373           0.0000000000
     37118     12373  TIP3      H1            -44.1736666405       34.4097177139      -13.5408596465  W2        12373           0.0000000000
     37119     12373  TIP3      H2            -44.5815066405       32.9636177139      -13.7261996465  W2        12373           0.0000000000
     37120     12374  TIP3      OH2           -53.8711166405       29.8801877139       -1.8631596465  W2        12374           0.0000000000
     37121     12374  TIP3      H1            -53.6482566405       29.4621477139       -1.0314096465  W2        12374           0.0000000000
     37122     12374  TIP3      H2            -54.4731066405       29.2676877139       -2.2858796465  W2        12374           0.0000000000
     37123     12375  TIP3      OH2           -46.8546266405       29.3971777139        0.3498103535  W2        12375           0.0000000000
     37124     12375  TIP3      H1            -47.1505466405       29.2314777139       -0.5452796465  W2        12375           0.0000000000
     37125     12375  TIP3      H2            -45.9231066405       29.1772077139        0.3392003535  W2        12375           0.0000000000
     37126     12376  TIP3      OH2           -42.2343466405       34.7703777139       -1.7603896465  W2        12376           0.0000000000
     37127     12376  TIP3      H1            -43.1349166405       34.9536377139       -2.0279996465  W2        12376           0.0000000000
     37128     12376  TIP3      H2            -42.2002366405       35.0293077139       -0.8395096465  W2        12376           0.0000000000
     37129     12377  TIP3      OH2           -36.5030166405       27.0151677139      -13.3931296465  W2        12377           0.0000000000
     37130     12377  TIP3      H1            -37.0573866405       26.6189677139      -14.0653796465  W2        12377           0.0000000000
     37131     12377  TIP3      H2            -36.4026566405       27.9256877139      -13.6707996465  W2        12377           0.0000000000
     37132     12378  TIP3      OH2           -36.5398166405       32.8153377139       -0.5559796465  W2        12378           0.0000000000
     37133     12378  TIP3      H1            -37.3909666405       33.0537177139       -0.9233396465  W2        12378           0.0000000000
     37134     12378  TIP3      H2            -35.9494766405       32.7986577139       -1.3092696465  W2        12378           0.0000000000
     37135     12379  TIP3      OH2           -38.2078466405       35.8012077139      -12.9279196465  W2        12379           0.0000000000
     37136     12379  TIP3      H1            -38.5807366405       34.9755877139      -12.6188596465  W2        12379           0.0000000000
     37137     12379  TIP3      H2            -37.9304966405       35.6181477139      -13.8255796465  W2        12379           0.0000000000
     37138     12380  TIP3      OH2           -41.0474566405       30.6091577139       -5.9067296465  W2        12380           0.0000000000
     37139     12380  TIP3      H1            -41.9757666405       30.3773477139       -5.9337996465  W2        12380           0.0000000000
     37140     12380  TIP3      H2            -40.5963466405       29.8321377139       -6.2368496465  W2        12380           0.0000000000
     37141     12381  TIP3      OH2           -48.5041466405       34.9373177139       -9.7738596465  W2        12381           0.0000000000
     37142     12381  TIP3      H1            -47.9769266405       35.7107577139       -9.9739796465  W2        12381           0.0000000000
     37143     12381  TIP3      H2            -49.3842966405       35.1622377139      -10.0754596465  W2        12381           0.0000000000
     37144     12382  TIP3      OH2           -52.7493766405       29.7997277139      -15.1866196465  W2        12382           0.0000000000
     37145     12382  TIP3      H1            -52.1333866405       30.4264477139      -14.8071396465  W2        12382           0.0000000000
     37146     12382  TIP3      H2            -53.6111166405       30.1157077139      -14.9149696465  W2        12382           0.0000000000
     37147     12383  TIP3      OH2           -47.0769166405       32.6003077139      -10.1974296465  W2        12383           0.0000000000
     37148     12383  TIP3      H1            -47.3179166405       33.5257477139      -10.1558996465  W2        12383           0.0000000000
     37149     12383  TIP3      H2            -47.8175566405       32.1414377139       -9.8010396465  W2        12383           0.0000000000
     37150     12384  TIP3      OH2           -46.5622566405       36.7496677139       -3.8823196465  W2        12384           0.0000000000
     37151     12384  TIP3      H1            -46.1997866405       37.6042277139       -4.1158796465  W2        12384           0.0000000000
     37152     12384  TIP3      H2            -46.0307366405       36.4578277139       -3.1416896465  W2        12384           0.0000000000
     37153     12385  TIP3      OH2           -48.3938366405       37.6220677139      -10.6522096465  W2        12385           0.0000000000
     37154     12385  TIP3      H1            -49.3437866405       37.7278077139      -10.6008796465  W2        12385           0.0000000000
     37155     12385  TIP3      H2            -48.0420266405       38.4428077139      -10.3074596465  W2        12385           0.0000000000
     37156     12386  TIP3      OH2           -43.0181766405       32.8487377139       -4.1817596465  W2        12386           0.0000000000
     37157     12386  TIP3      H1            -43.4440466405       32.6209077139       -3.3553596465  W2        12386           0.0000000000
     37158     12386  TIP3      H2            -42.4375966405       32.1099177139       -4.3642296465  W2        12386           0.0000000000
     37159     12387  TIP3      OH2           -40.8152866405       33.7777877139      -15.1078596465  W2        12387           0.0000000000
     37160     12387  TIP3      H1            -40.4619766405       33.3977677139      -14.3035096465  W2        12387           0.0000000000
     37161     12387  TIP3      H2            -41.7639366405       33.6842677139      -15.0209296465  W2        12387           0.0000000000
     37162     12388  TIP3      OH2           -40.3597566405       37.4006877139       -1.7122796465  W2        12388           0.0000000000
     37163     12388  TIP3      H1            -40.9614366405       36.8449777139       -2.2076496465  W2        12388           0.0000000000
     37164     12388  TIP3      H2            -40.0783866405       38.0676677139       -2.3385396465  W2        12388           0.0000000000
     37165     12389  TIP3      OH2           -36.3118466405       38.2570377139      -14.9068396465  W2        12389           0.0000000000
     37166     12389  TIP3      H1            -35.5680566405       38.8430877139      -15.0466796465  W2        12389           0.0000000000
     37167     12389  TIP3      H2            -37.0060366405       38.8256177139      -14.5735996465  W2        12389           0.0000000000
     37168     12390  TIP3      OH2           -52.2371666405       24.6334577139       -2.3050196465  W2        12390           0.0000000000
     37169     12390  TIP3      H1            -53.1299366405       24.9719977139       -2.3726196465  W2        12390           0.0000000000
     37170     12390  TIP3      H2            -52.3358866405       23.7780677139       -1.8869396465  W2        12390           0.0000000000
     37171     12391  TIP3      OH2           -39.9493566405       32.4499877139      -12.8810696465  W2        12391           0.0000000000
     37172     12391  TIP3      H1            -40.2265966405       31.7219177139      -12.3249596465  W2        12391           0.0000000000
     37173     12391  TIP3      H2            -39.0220566405       32.5691877139      -12.6758096465  W2        12391           0.0000000000
     37174     12392  TIP3      OH2           -52.5859666405       36.4378977139       -3.8700796465  W2        12392           0.0000000000
     37175     12392  TIP3      H1            -52.3689366405       35.5061377139       -3.9011096465  W2        12392           0.0000000000
     37176     12392  TIP3      H2            -52.3396166405       36.7123977139       -2.9867996465  W2        12392           0.0000000000
     37177     12393  TIP3      OH2           -46.7245066405       34.8893977139      -16.6608596465  W2        12393           0.0000000000
     37178     12393  TIP3      H1            -46.4855266405       34.1412077139      -17.2079696465  W2        12393           0.0000000000
     37179     12393  TIP3      H2            -46.9933766405       34.5015677139      -15.8280796465  W2        12393           0.0000000000
     37180     12394  TIP3      OH2           -47.7874466405       34.4597777139      -14.2045996465  W2        12394           0.0000000000
     37181     12394  TIP3      H1            -47.6406466405       33.9397577139      -13.4145096465  W2        12394           0.0000000000
     37182     12394  TIP3      H2            -47.7902766405       35.3665377139      -13.8980096465  W2        12394           0.0000000000
     37183     12395  TIP3      OH2           -51.3343366405       31.7121077139      -13.6940596465  W2        12395           0.0000000000
     37184     12395  TIP3      H1            -52.0204066405       32.0643577139      -13.1270896465  W2        12395           0.0000000000
     37185     12395  TIP3      H2            -50.8115466405       32.4750677139      -13.9406296465  W2        12395           0.0000000000
     37186     12396  TIP3      OH2           -43.5028266405       24.3744877139       -3.4151596465  W2        12396           0.0000000000
     37187     12396  TIP3      H1            -42.8040366405       24.4483577139       -2.7651896465  W2        12396           0.0000000000
     37188     12396  TIP3      H2            -43.8836866405       23.5099877139       -3.2608696465  W2        12396           0.0000000000
     37189     12397  TIP3      OH2           -42.7183366405       24.0266577139      -12.3179296465  W2        12397           0.0000000000
     37190     12397  TIP3      H1            -42.4985066405       24.4981977139      -13.1213896465  W2        12397           0.0000000000
     37191     12397  TIP3      H2            -42.1599366405       24.4209177139      -11.6478696465  W2        12397           0.0000000000
     37192     12398  TIP3      OH2           -45.0497266405       36.1571377139      -13.4551796465  W2        12398           0.0000000000
     37193     12398  TIP3      H1            -45.8661166405       36.6541077139      -13.4027496465  W2        12398           0.0000000000
     37194     12398  TIP3      H2            -44.5200966405       36.6324877139      -14.0952996465  W2        12398           0.0000000000
     37195     12399  TIP3      OH2           -45.5183466405       25.7545377139      -11.4830896465  W2        12399           0.0000000000
     37196     12399  TIP3      H1            -44.7060866405       26.2588577139      -11.4369196465  W2        12399           0.0000000000
     37197     12399  TIP3      H2            -45.7630466405       25.6095077139      -10.5691296465  W2        12399           0.0000000000
     37198     12400  TIP3      OH2           -44.9827066405       26.7408077139       -2.2984296465  W2        12400           0.0000000000
     37199     12400  TIP3      H1            -44.8636766405       27.3143477139       -1.5413896465  W2        12400           0.0000000000
     37200     12400  TIP3      H2            -44.3272466405       26.0527477139       -2.1836496465  W2        12400           0.0000000000
     37201     12401  TIP3      OH2           -44.6346766405       22.8358377139      -10.5449796465  W2        12401           0.0000000000
     37202     12401  TIP3      H1            -44.9813266405       23.4528977139       -9.9005496465  W2        12401           0.0000000000
     37203     12401  TIP3      H2            -43.9759866405       23.3364077139      -11.0264296465  W2        12401           0.0000000000
     37204     12402  TIP3      OH2           -47.7114166405       37.2008577139      -13.4734896465  W2        12402           0.0000000000
     37205     12402  TIP3      H1            -47.5505466405       38.0006077139      -13.9742296465  W2        12402           0.0000000000
     37206     12402  TIP3      H2            -47.9086366405       37.5074577139      -12.5884296465  W2        12402           0.0000000000
     37207     12403  TIP3      OH2           -48.9769766405       23.8987777139      -13.8577296465  W2        12403           0.0000000000
     37208     12403  TIP3      H1            -49.0604966405       24.7870877139      -13.5110896465  W2        12403           0.0000000000
     37209     12403  TIP3      H2            -48.0869466405       23.6334477139      -13.6260496465  W2        12403           0.0000000000
     37210     12404  TIP3      OH2           -38.7781266405       24.6478377139       -1.4634596465  W2        12404           0.0000000000
     37211     12404  TIP3      H1            -39.6945466405       24.9100077139       -1.5510896465  W2        12404           0.0000000000
     37212     12404  TIP3      H2            -38.4426266405       24.6447377139       -2.3599296465  W2        12404           0.0000000000
     37213     12405  TIP3      OH2           -40.1760266405       28.3979377139       -7.3677296465  W2        12405           0.0000000000
     37214     12405  TIP3      H1            -40.9735866405       27.9829577139       -7.6962296465  W2        12405           0.0000000000
     37215     12405  TIP3      H2            -39.7309166405       27.7073077139       -6.8766796465  W2        12405           0.0000000000
     37216     12406  TIP3      OH2           -50.7184466405       34.3259977139      -14.7972796465  W2        12406           0.0000000000
     37217     12406  TIP3      H1            -50.1262966405       35.0254777139      -14.5210396465  W2        12406           0.0000000000
     37218     12406  TIP3      H2            -50.2591466405       33.8929477139      -15.5168196465  W2        12406           0.0000000000
     37219     12407  TIP3      OH2           -52.4025266405       26.9902977139      -15.6813396465  W2        12407           0.0000000000
     37220     12407  TIP3      H1            -52.4472666405       27.9296077139      -15.5026396465  W2        12407           0.0000000000
     37221     12407  TIP3      H2            -53.2902066405       26.7547877139      -15.9511296465  W2        12407           0.0000000000
     37222     12408  TIP3      OH2           -39.0895666405       37.6541877139       -5.7453796465  W2        12408           0.0000000000
     37223     12408  TIP3      H1            -39.2451366405       38.3326277139       -6.4024496465  W2        12408           0.0000000000
     37224     12408  TIP3      H2            -38.1569266405       37.7261177139       -5.5423196465  W2        12408           0.0000000000
     37225     12409  TIP3      OH2           -51.5943266405       21.7719577139       -7.0082396465  W2        12409           0.0000000000
     37226     12409  TIP3      H1            -51.8233466405       21.8312077139       -7.9357396465  W2        12409           0.0000000000
     37227     12409  TIP3      H2            -52.0369866405       20.9805077139       -6.7018296465  W2        12409           0.0000000000
     37228     12410  TIP3      OH2           -52.6639966405       35.7126677139      -10.8476596465  W2        12410           0.0000000000
     37229     12410  TIP3      H1            -53.4961366405       36.1849377139      -10.8205196465  W2        12410           0.0000000000
     37230     12410  TIP3      H2            -52.1181666405       36.2224277139      -11.4463496465  W2        12410           0.0000000000
     37231     12411  TIP3      OH2           -53.3756266405       38.3250377139        0.4821403535  W2        12411           0.0000000000
     37232     12411  TIP3      H1            -52.8354066405       38.1084377139        1.2420603535  W2        12411           0.0000000000
     37233     12411  TIP3      H2            -53.8568266405       37.5196377139        0.2923903535  W2        12411           0.0000000000
     37234     12412  TIP3      OH2           -48.7782866405       37.2444777139        2.1025603535  W2        12412           0.0000000000
     37235     12412  TIP3      H1            -48.0105666405       36.7855577139        2.4434803535  W2        12412           0.0000000000
     37236     12412  TIP3      H2            -48.7996666405       37.0184577139        1.1726803535  W2        12412           0.0000000000
     37237     12413  TIP3      OH2           -44.6863266405       36.7525377139      -16.5222596465  W2        12413           0.0000000000
     37238     12413  TIP3      H1            -45.3302266405       36.1213977139      -16.2008896465  W2        12413           0.0000000000
     37239     12413  TIP3      H2            -43.9244966405       36.2213377139      -16.7539096465  W2        12413           0.0000000000
     37240     12414  TIP3      OH2           -42.2014166405       35.6245877139        0.8317103535  W2        12414           0.0000000000
     37241     12414  TIP3      H1            -42.5524666405       34.7678877139        1.0747503535  W2        12414           0.0000000000
     37242     12414  TIP3      H2            -41.4750966405       35.7672577139        1.4386103535  W2        12414           0.0000000000
     37243     12415  TIP3      OH2           -40.0820366405       36.5695277139      -16.2884596465  W2        12415           0.0000000000
     37244     12415  TIP3      H1            -39.7989966405       35.7750477139      -15.8357696465  W2        12415           0.0000000000
     37245     12415  TIP3      H2            -39.3422466405       36.8026277139      -16.8493496465  W2        12415           0.0000000000
     37246     12416  TIP3      OH2           -53.4686766405       32.1354477139        1.4365703535  W2        12416           0.0000000000
     37247     12416  TIP3      H1            -53.3246266405       31.2335177139        1.1502403535  W2        12416           0.0000000000
     37248     12416  TIP3      H2            -54.2409366405       32.4216577139        0.9488003535  W2        12416           0.0000000000
     37249     12417  TIP3      OH2           -49.1273066405       32.4790177139      -16.4309696465  W2        12417           0.0000000000
     37250     12417  TIP3      H1            -49.0628966405       31.6849777139      -15.9003296465  W2        12417           0.0000000000
     37251     12417  TIP3      H2            -48.4743866405       32.3602977139      -17.1207696465  W2        12417           0.0000000000
     37252     12418  TIP3      OH2           -46.8130666405       32.1052577139        0.8692103535  W2        12418           0.0000000000
     37253     12418  TIP3      H1            -47.1416866405       32.3760677139        0.0119503535  W2        12418           0.0000000000
     37254     12418  TIP3      H2            -46.6612466405       31.1642377139        0.7817103535  W2        12418           0.0000000000
     37255     12419  TIP3      OH2           -43.7749666405       33.5261877139      -16.6951696465  W2        12419           0.0000000000
     37256     12419  TIP3      H1            -44.0435566405       33.7063977139      -15.7942796465  W2        12419           0.0000000000
     37257     12419  TIP3      H2            -43.9814066405       32.6008077139      -16.8265896465  W2        12419           0.0000000000
     37258     12420  TIP3      OH2           -41.0785466405       32.0209877139       -1.7475596465  W2        12420           0.0000000000
     37259     12420  TIP3      H1            -40.3330666405       32.6093577139       -1.8671596465  W2        12420           0.0000000000
     37260     12420  TIP3      H2            -41.8358666405       32.6029577139       -1.6842496465  W2        12420           0.0000000000
     37261     12421  TIP3      OH2           -52.6360266405       29.3357777139        0.8565003535  W2        12421           0.0000000000
     37262     12421  TIP3      H1            -52.2279066405       28.4784377139        0.7355603535  W2        12421           0.0000000000
     37263     12421  TIP3      H2            -52.8962666405       29.3499077139        1.7775303535  W2        12421           0.0000000000
     37264     12422  TIP3      OH2           -47.9779266405       30.4516377139      -14.1251696465  W2        12422           0.0000000000
     37265     12422  TIP3      H1            -48.4377266405       29.9674677139      -13.4393196465  W2        12422           0.0000000000
     37266     12422  TIP3      H2            -47.7230566405       29.7831777139      -14.7611196465  W2        12422           0.0000000000
     37267     12423  TIP3      OH2           -48.6889966405       28.3443477139       -1.7692096465  W2        12423           0.0000000000
     37268     12423  TIP3      H1            -49.3073866405       29.0190077139       -1.4887396465  W2        12423           0.0000000000
     37269     12423  TIP3      H2            -48.3448766405       28.6657377139       -2.6025896465  W2        12423           0.0000000000
     37270     12424  TIP3      OH2           -46.9068866405       28.6948177139      -15.8628496465  W2        12424           0.0000000000
     37271     12424  TIP3      H1            -47.0873866405       28.5399377139      -16.7900196465  W2        12424           0.0000000000
     37272     12424  TIP3      H2            -45.9568366405       28.8026877139      -15.8180596465  W2        12424           0.0000000000
     37273     12425  TIP3      OH2           -43.6691766405       30.8158777139        1.5082703535  W2        12425           0.0000000000
     37274     12425  TIP3      H1            -42.7160566405       30.8997877139        1.4808703535  W2        12425           0.0000000000
     37275     12425  TIP3      H2            -43.8297166405       30.1040577139        2.1277603535  W2        12425           0.0000000000
     37276     12426  TIP3      OH2           -37.5170566405       31.0492377139      -16.4170396465  W2        12426           0.0000000000
     37277     12426  TIP3      H1            -37.7905766405       30.6247877139      -17.2302096465  W2        12426           0.0000000000
     37278     12426  TIP3      H2            -37.4776466405       31.9806877139      -16.6339996465  W2        12426           0.0000000000
     37279     12427  TIP3      OH2           -48.3496266405       25.6994277139       -0.6868996465  W2        12427           0.0000000000
     37280     12427  TIP3      H1            -48.1995366405       24.9705577139       -1.2889296465  W2        12427           0.0000000000
     37281     12427  TIP3      H2            -48.3473866405       26.4765977139       -1.2456796465  W2        12427           0.0000000000
     37282     12428  TIP3      OH2           -47.9370566405       24.0690077139       -3.1941596465  W2        12428           0.0000000000
     37283     12428  TIP3      H1            -47.4013066405       24.5206777139       -3.8462296465  W2        12428           0.0000000000
     37284     12428  TIP3      H2            -48.7890966405       23.9609877139       -3.6167496465  W2        12428           0.0000000000
     37285     12429  TIP3      OH2           -46.3552166405       29.5086277139       -2.9546396465  W2        12429           0.0000000000
     37286     12429  TIP3      H1            -45.6047366405       29.3523777139       -3.5278596465  W2        12429           0.0000000000
     37287     12429  TIP3      H2            -46.6943866405       30.3602877139       -3.2300896465  W2        12429           0.0000000000
     37288     12430  TIP3      OH2           -41.9395966405       27.3238077139        2.0738903535  W2        12430           0.0000000000
     37289     12430  TIP3      H1            -41.7474666405       26.3927477139        1.9623403535  W2        12430           0.0000000000
     37290     12430  TIP3      H2            -41.0819666405       27.7487577139        2.0634303535  W2        12430           0.0000000000
     37291     12431  TIP3      OH2           -40.6228766405       30.1123277139        0.1511603535  W2        12431           0.0000000000
     37292     12431  TIP3      H1            -40.9043766405       30.8217877139       -0.4264596465  W2        12431           0.0000000000
     37293     12431  TIP3      H2            -39.6804466405       30.0396277139        0.0002803535  W2        12431           0.0000000000
     37294     12432  TIP3      OH2           -49.8709966405       26.8977777139        1.2246603535  W2        12432           0.0000000000
     37295     12432  TIP3      H1            -50.6380966405       26.3652577139        1.0144203535  W2        12432           0.0000000000
     37296     12432  TIP3      H2            -49.1920966405       26.5878177139        0.6252903535  W2        12432           0.0000000000
     37297     12433  TIP3      OH2           -47.1315066405       21.5255777139       -2.7627996465  W2        12433           0.0000000000
     37298     12433  TIP3      H1            -47.2295466405       22.4718977139       -2.8681796465  W2        12433           0.0000000000
     37299     12433  TIP3      H2            -47.8738866405       21.1529577139       -3.2384496465  W2        12433           0.0000000000
     37300     12434  TIP3      OH2           -45.8674566405       25.8471177139        0.8010403535  W2        12434           0.0000000000
     37301     12434  TIP3      H1            -46.1029166405       25.6277877139        1.7025303535  W2        12434           0.0000000000
     37302     12434  TIP3      H2            -46.6507666405       25.6402377139        0.2912903535  W2        12434           0.0000000000
     37303     12435  TIP3      OH2           -43.1517966405       24.9744677139       -0.1236096465  W2        12435           0.0000000000
     37304     12435  TIP3      H1            -44.0992566405       25.0064377139        0.0087203535  W2        12435           0.0000000000
     37305     12435  TIP3      H2            -42.8391266405       24.3491777139        0.5302103535  W2        12435           0.0000000000
     37306     12436  TIP3      OH2           -41.5176466405       23.6085777139        1.8815803535  W2        12436           0.0000000000
     37307     12436  TIP3      H1            -41.6144666405       22.6563077139        1.8757703535  W2        12436           0.0000000000
     37308     12436  TIP3      H2            -41.8393366405       23.8772577139        2.7421303535  W2        12436           0.0000000000
     37309     12437  TIP3      OH2           -51.6907166405       24.8181577139        0.9291303535  W2        12437           0.0000000000
     37310     12437  TIP3      H1            -51.4789766405       24.1117677139        0.3188803535  W2        12437           0.0000000000
     37311     12437  TIP3      H2            -51.8019666405       24.3807577139        1.7732503535  W2        12437           0.0000000000
     37312     12438  TIP3      OH2           -46.9096966405       20.8193177139       -0.0915196465  W2        12438           0.0000000000
     37313     12438  TIP3      H1            -46.1978566405       20.1795377139       -0.1056096465  W2        12438           0.0000000000
     37314     12438  TIP3      H2            -47.0106566405       21.0861477139       -1.0052096465  W2        12438           0.0000000000
     37315     12439  TIP3      OH2           -46.5559466405       22.5021577139        1.9621103535  W2        12439           0.0000000000
     37316     12439  TIP3      H1            -46.6877266405       22.0265377139        1.1419603535  W2        12439           0.0000000000
     37317     12439  TIP3      H2            -47.1552066405       23.2465177139        1.9068203535  W2        12439           0.0000000000
     37318     12440  TIP3      OH2           -47.0097166405       39.3851877139      -14.8614896465  W2        12440           0.0000000000
     37319     12440  TIP3      H1            -46.0766466405       39.5430577139      -14.7176496465  W2        12440           0.0000000000
     37320     12440  TIP3      H2            -47.2738366405       40.0604877139      -15.4863396465  W2        12440           0.0000000000
     37321     12441  TIP3      OH2           -53.4412266405       34.0215677139      -15.3786796465  W2        12441           0.0000000000
     37322     12441  TIP3      H1            -52.5273066405       34.1004577139      -15.1052896465  W2        12441           0.0000000000
     37323     12441  TIP3      H2            -53.4339166405       33.3345277139      -16.0451196465  W2        12441           0.0000000000
     37324     12442  TIP3      OH2           -54.7921666405       39.4144177139      -10.3012896465  W2        12442           0.0000000000
     37325     12442  TIP3      H1            -55.4394566405       38.9525877139      -10.8341696465  W2        12442           0.0000000000
     37326     12442  TIP3      H2            -54.4377066405       38.7427477139       -9.7186696465  W2        12442           0.0000000000
     37327     12443  TIP3      OH2           -53.9222466405       37.4951177139       -8.4966696465  W2        12443           0.0000000000
     37328     12443  TIP3      H1            -54.2565666405       36.6148477139       -8.3246496465  W2        12443           0.0000000000
     37329     12443  TIP3      H2            -53.7000066405       37.8406177139       -7.6321096465  W2        12443           0.0000000000
     37330     12444  TIP3      OH2           -36.3737666405       38.3047577139       -5.5161896465  W2        12444           0.0000000000
     37331     12444  TIP3      H1            -36.3950966405       38.4895977139       -4.5772496465  W2        12444           0.0000000000
     37332     12444  TIP3      H2            -35.6831466405       38.8731577139       -5.8570496465  W2        12444           0.0000000000
     37333     12445  TIP3      OH2           -36.8104766405       37.8718677139       -2.5942796465  W2        12445           0.0000000000
     37334     12445  TIP3      H1            -37.2976066405       37.1362777139       -2.9655396465  W2        12445           0.0000000000
     37335     12445  TIP3      H2            -36.2612066405       37.4782577139       -1.9163396465  W2        12445           0.0000000000
     37336     12446  TIP3      OH2           -38.3597466405       33.6616777139        2.0437503535  W2        12446           0.0000000000
     37337     12446  TIP3      H1            -39.2256366405       33.5566477139        2.4379803535  W2        12446           0.0000000000
     37338     12446  TIP3      H2            -37.9831566405       34.4200077139        2.4902203535  W2        12446           0.0000000000
     37339     12447  TIP3      OH2           -37.0587766405       31.9180477139      -12.4419996465  W2        12447           0.0000000000
     37340     12447  TIP3      H1            -36.2086366405       32.3391377139      -12.3148396465  W2        12447           0.0000000000
     37341     12447  TIP3      H2            -37.0532666405       31.1780577139      -11.8348596465  W2        12447           0.0000000000
     37342     12448  TIP3      OH2           -36.6642166405       29.9717877139      -10.6184296465  W2        12448           0.0000000000
     37343     12448  TIP3      H1            -37.3907566405       29.4920477139      -10.2206696465  W2        12448           0.0000000000
     37344     12448  TIP3      H2            -36.0828866405       30.1772577139       -9.8862696465  W2        12448           0.0000000000
     37345     12449  TIP3      OH2           -36.9050966405       32.7565377139       -5.6706696465  W2        12449           0.0000000000
     37346     12449  TIP3      H1            -36.0716766405       32.3785377139       -5.9513096465  W2        12449           0.0000000000
     37347     12449  TIP3      H2            -36.7930666405       33.6996577139       -5.7897596465  W2        12449           0.0000000000
     37348     12450  TIP3      OH2           -38.4188666405       35.6342877139       -3.3638296465  W2        12450           0.0000000000
     37349     12450  TIP3      H1            -39.0663366405       35.9594377139       -2.7383096465  W2        12450           0.0000000000
     37350     12450  TIP3      H2            -38.9364666405       35.1940577139       -4.0379996465  W2        12450           0.0000000000
     37351     12451  TIP3      OH2           -36.3959066405       29.8726377139      -14.2272996465  W2        12451           0.0000000000
     37352     12451  TIP3      H1            -36.9177966405       30.2290477139      -14.9462096465  W2        12451           0.0000000000
     37353     12451  TIP3      H2            -36.4289866405       30.5474177139      -13.5492096465  W2        12451           0.0000000000
     37354     12452  TIP3      OH2           -38.0470066405       27.1121977139      -15.6765896465  W2        12452           0.0000000000
     37355     12452  TIP3      H1            -37.9505666405       27.7788977139      -16.3566196465  W2        12452           0.0000000000
     37356     12452  TIP3      H2            -38.1870466405       26.2968277139      -16.1580396465  W2        12452           0.0000000000
     37357     12453  TIP3      OH2           -38.8775366405       28.4924377139      -10.0555596465  W2        12453           0.0000000000
     37358     12453  TIP3      H1            -39.0276566405       27.5472977139      -10.0757796465  W2        12453           0.0000000000
     37359     12453  TIP3      H2            -39.2310866405       28.7735777139       -9.2116496465  W2        12453           0.0000000000
     37360     12454  TIP3      OH2           -53.8422966405       30.5706577139       -6.0451796465  W2        12454           0.0000000000
     37361     12454  TIP3      H1            -53.6580066405       30.4888277139       -6.9808896465  W2        12454           0.0000000000
     37362     12454  TIP3      H2            -52.9930066405       30.4463577139       -5.6215396465  W2        12454           0.0000000000
     37363     12455  TIP3      OH2           -38.0212466405       30.4627677139       -0.4167296465  W2        12455           0.0000000000
     37364     12455  TIP3      H1            -37.4385166405       29.7279977139       -0.2250096465  W2        12455           0.0000000000
     37365     12455  TIP3      H2            -37.4573166405       31.2347977139       -0.3701496465  W2        12455           0.0000000000
     37366     12456  TIP3      OH2           -36.5245366405       28.3653477139        0.2678103535  W2        12456           0.0000000000
     37367     12456  TIP3      H1            -37.3878666405       27.9865577139        0.1022803535  W2        12456           0.0000000000
     37368     12456  TIP3      H2            -35.9201666405       27.6268277139        0.1933903535  W2        12456           0.0000000000
     37369     12457  TIP3      OH2           -38.7996266405       24.5201777139      -16.5590396465  W2        12457           0.0000000000
     37370     12457  TIP3      H1            -38.1890466405       24.1488577139      -15.9222196465  W2        12457           0.0000000000
     37371     12457  TIP3      H2            -39.6364766405       24.0988677139      -16.3630396465  W2        12457           0.0000000000
     37372     12458  TIP3      OH2           -39.1670566405       26.0750177139      -11.5930496465  W2        12458           0.0000000000
     37373     12458  TIP3      H1            -38.8873466405       25.1680577139      -11.4688796465  W2        12458           0.0000000000
     37374     12458  TIP3      H2            -38.4078866405       26.5091677139      -11.9821296465  W2        12458           0.0000000000
     37375     12459  TIP3      OH2           -38.5552266405       26.6567577139       -6.1571596465  W2        12459           0.0000000000
     37376     12459  TIP3      H1            -37.6224266405       26.8687477139       -6.1915596465  W2        12459           0.0000000000
     37377     12459  TIP3      H2            -38.7904766405       26.7579677139       -5.2348596465  W2        12459           0.0000000000
     37378     12460  TIP3      OH2           -38.5260366405       27.3932877139       -3.3812196465  W2        12460           0.0000000000
     37379     12460  TIP3      H1            -39.3689066405       27.6613277139       -3.0152396465  W2        12460           0.0000000000
     37380     12460  TIP3      H2            -38.0836066405       28.2154777139       -3.5921096465  W2        12460           0.0000000000
     37381     12461  TIP3      OH2           -54.2448166405       25.8411577139        0.0957003535  W2        12461           0.0000000000
     37382     12461  TIP3      H1            -53.3253266405       25.7189877139        0.3320103535  W2        12461           0.0000000000
     37383     12461  TIP3      H2            -54.6943666405       25.0911277139        0.4850503535  W2        12461           0.0000000000
     37384     12462  TIP3      OH2           -36.2428766405       21.3733077139        1.9722803535  W2        12462           0.0000000000
     37385     12462  TIP3      H1            -35.8931766405       20.7196577139        1.3667503535  W2        12462           0.0000000000
     37386     12462  TIP3      H2            -36.0959266405       22.2107177139        1.5325403535  W2        12462           0.0000000000
     37387     12463  TIP3      OH2           -38.5535766405       23.3379477139      -11.5448496465  W2        12463           0.0000000000
     37388     12463  TIP3      H1            -38.3710766405       22.8890977139      -10.7193496465  W2        12463           0.0000000000
     37389     12463  TIP3      H2            -39.1532866405       22.7533877139      -12.0083896465  W2        12463           0.0000000000
     37390     12464  TIP3      OH2           -53.0235666405       24.1533177139       -7.0130096465  W2        12464           0.0000000000
     37391     12464  TIP3      H1            -52.5784066405       23.3615677139       -6.7110396465  W2        12464           0.0000000000
     37392     12464  TIP3      H2            -52.5572666405       24.8698377139       -6.5824496465  W2        12464           0.0000000000
     37393     12465  TIP3      OH2           -54.7195366405       27.1526177139       -5.9439896465  W2        12465           0.0000000000
     37394     12465  TIP3      H1            -54.2275566405       26.9316677139       -6.7347896465  W2        12465           0.0000000000
     37395     12465  TIP3      H2            -54.3574466405       27.9929577139       -5.6630396465  W2        12465           0.0000000000
     37396     12466  TIP3      OH2           -36.7231566405       23.4827677139        0.3214103535  W2        12466           0.0000000000
     37397     12466  TIP3      H1            -37.6405866405       23.7534777139        0.2857603535  W2        12466           0.0000000000
     37398     12466  TIP3      H2            -36.6002166405       22.9476077139       -0.4626196465  W2        12466           0.0000000000
     37399     12467  TIP3      OH2           -36.6869566405       23.4057577139      -15.0168196465  W2        12467           0.0000000000
     37400     12467  TIP3      H1            -36.2746966405       22.6843277139      -15.4920196465  W2        12467           0.0000000000
     37401     12467  TIP3      H2            -36.0053066405       24.0752177139      -14.9583896465  W2        12467           0.0000000000
     37402     12468  TIP3      OH2           -54.4058866405       23.4105277139      -11.8897496465  W2        12468           0.0000000000
     37403     12468  TIP3      H1            -55.3310466405       23.6191877139      -12.0191996465  W2        12468           0.0000000000
     37404     12468  TIP3      H2            -53.9518966405       23.8946077139      -12.5795196465  W2        12468           0.0000000000
     37405     12469  TIP3      OH2           -39.6351666405       38.3946977139       -9.9440096465  W2        12469           0.0000000000
     37406     12469  TIP3      H1            -38.9828766405       38.0469077139      -10.5520996465  W2        12469           0.0000000000
     37407     12469  TIP3      H2            -39.1247866405       38.8830177139       -9.2980396465  W2        12469           0.0000000000
     37408     12470  TIP3      OH2           -54.4423466405       22.1484277139       -3.5454996465  W2        12470           0.0000000000
     37409     12470  TIP3      H1            -55.1072966405       21.9024577139       -2.9024096465  W2        12470           0.0000000000
     37410     12470  TIP3      H2            -54.8852166405       22.7704677139       -4.1226996465  W2        12470           0.0000000000
     37411     12471  TIP3      OH2           -52.2504166405       35.3238377139        0.5990803535  W2        12471           0.0000000000
     37412     12471  TIP3      H1            -53.0711666405       35.4984877139        0.1385503535  W2        12471           0.0000000000
     37413     12471  TIP3      H2            -52.5026366405       35.2503077139        1.5195203535  W2        12471           0.0000000000
     37414     12472  TIP3      OH2           -49.2961266405       36.2979577139       -3.1425196465  W2        12472           0.0000000000
     37415     12472  TIP3      H1            -49.7210166405       37.1078077139       -3.4250596465  W2        12472           0.0000000000
     37416     12472  TIP3      H2            -48.3918466405       36.3833677139       -3.4445396465  W2        12472           0.0000000000
     37417     12473  TIP3      OH2           -44.9849866405       37.6969577139       -0.1831496465  W2        12473           0.0000000000
     37418     12473  TIP3      H1            -44.8002366405       37.3635677139        0.6948803535  W2        12473           0.0000000000
     37419     12473  TIP3      H2            -44.1385366405       38.0068177139       -0.5052296465  W2        12473           0.0000000000
     37420     12474  TIP3      OH2           -42.6399466405       38.9828477139       -0.9390096465  W2        12474           0.0000000000
     37421     12474  TIP3      H1            -41.9630566405       38.3500777139       -1.1790896465  W2        12474           0.0000000000
     37422     12474  TIP3      H2            -42.3180666405       39.3838977139       -0.1316796465  W2        12474           0.0000000000
     37423     12475  TIP3      OH2           -37.7225666405       21.5723977139       -1.8595096465  W2        12475           0.0000000000
     37424     12475  TIP3      H1            -38.5352166405       21.8974277139       -2.2470396465  W2        12475           0.0000000000
     37425     12475  TIP3      H2            -37.4897166405       20.8122477139       -2.3925996465  W2        12475           0.0000000000
     37426     12476  TIP3      OH2           -51.8944566405       39.5543477139       -3.0949896465  W2        12476           0.0000000000
     37427     12476  TIP3      H1            -52.6148166405       39.9944477139       -3.5462196465  W2        12476           0.0000000000
     37428     12476  TIP3      H2            -52.2600566405       39.3038177139       -2.2465896465  W2        12476           0.0000000000
     37429     12477  TIP3      OH2           -49.4271966405       39.1547377139       -4.0652696465  W2        12477           0.0000000000
     37430     12477  TIP3      H1            -50.2919766405       39.2265877139       -3.6612596465  W2        12477           0.0000000000
     37431     12477  TIP3      H2            -49.4822966405       39.7014677139       -4.8490196465  W2        12477           0.0000000000
     37432     12478  TIP3      OH2           -44.7166366405       39.0426277139       -4.8896696465  W2        12478           0.0000000000
     37433     12478  TIP3      H1            -45.1732366405       39.5715977139       -5.5438296465  W2        12478           0.0000000000
     37434     12478  TIP3      H2            -44.5538366405       39.6457677139       -4.1644396465  W2        12478           0.0000000000
     37435     12479  TIP3      OH2           -42.3890066405       37.9205877139       -3.9446396465  W2        12479           0.0000000000
     37436     12479  TIP3      H1            -43.2936366405       38.0856077139       -4.2104296465  W2        12479           0.0000000000
     37437     12479  TIP3      H2            -41.9601466405       38.7738077139       -4.0102996465  W2        12479           0.0000000000
     37438     12480  TIP3      OH2           -39.7848166405       39.4904977139       -3.6498596465  W2        12480           0.0000000000
     37439     12480  TIP3      H1            -39.9666166405       40.4063877139       -3.8603696465  W2        12480           0.0000000000
     37440     12480  TIP3      H2            -39.6080366405       39.0802077139       -4.4963996465  W2        12480           0.0000000000
     37441     12481  TIP3      OH2           -52.4796466405       38.1775977139       -6.1848096465  W2        12481           0.0000000000
     37442     12481  TIP3      H1            -52.4980466405       37.7521077139       -5.3275796465  W2        12481           0.0000000000
     37443     12481  TIP3      H2            -51.6748566405       37.8590977139       -6.5935896465  W2        12481           0.0000000000
     37444     12482  TIP3      OH2           -50.3383366405       36.8874677139       -7.5298196465  W2        12482           0.0000000000
     37445     12482  TIP3      H1            -50.5572666405       35.9712077139       -7.3602196465  W2        12482           0.0000000000
     37446     12482  TIP3      H2            -49.5141166405       37.0275077139       -7.0636796465  W2        12482           0.0000000000
     37447     12483  TIP3      OH2           -47.8010866405       37.3573977139       -6.6810196465  W2        12483           0.0000000000
     37448     12483  TIP3      H1            -47.5885166405       36.4692977139       -6.9679296465  W2        12483           0.0000000000
     37449     12483  TIP3      H2            -47.7365766405       37.3231677139       -5.7266196465  W2        12483           0.0000000000
     37450     12484  TIP3      OH2           -44.2927166405       23.0214577139       -7.5366896465  W2        12484           0.0000000000
     37451     12484  TIP3      H1            -44.9670366405       22.3920177139       -7.2811096465  W2        12484           0.0000000000
     37452     12484  TIP3      H2            -43.7287966405       22.5373477139       -8.1398996465  W2        12484           0.0000000000
     37453     12485  TIP3      OH2           -39.1499966405       21.1288577139       -7.4239796465  W2        12485           0.0000000000
     37454     12485  TIP3      H1            -38.5462366405       21.6763977139       -7.9258796465  W2        12485           0.0000000000
     37455     12485  TIP3      H2            -40.0197966405       21.4478977139       -7.6645696465  W2        12485           0.0000000000
     37456     12486  TIP3      OH2           -37.4229566405       22.2677277139       -9.0908896465  W2        12486           0.0000000000
     37457     12486  TIP3      H1            -36.8112066405       21.7532977139       -9.6175296465  W2        12486           0.0000000000
     37458     12486  TIP3      H2            -37.0406166405       23.1449377139       -9.0674496465  W2        12486           0.0000000000
     37459     12487  TIP3      OH2           -51.9659666405       21.6554877139       -9.7146996465  W2        12487           0.0000000000
     37460     12487  TIP3      H1            -52.7429866405       21.4209777139      -10.2221096465  W2        12487           0.0000000000
     37461     12487  TIP3      H2            -51.4356066405       20.8586977139       -9.7058996465  W2        12487           0.0000000000
     37462     12488  TIP3      OH2           -53.1296266405       21.4532977139      -13.9110896465  W2        12488           0.0000000000
     37463     12488  TIP3      H1            -52.6905566405       22.0643477139      -14.5027396465  W2        12488           0.0000000000
     37464     12488  TIP3      H2            -53.7633866405       21.9917077139      -13.4370896465  W2        12488           0.0000000000
     37465     12489  TIP3      OH2           -47.3867066405       21.5821977139       -9.9013896465  W2        12489           0.0000000000
     37466     12489  TIP3      H1            -46.5123666405       21.9706277139       -9.9309596465  W2        12489           0.0000000000
     37467     12489  TIP3      H2            -47.5226266405       21.3669777139       -8.9786696465  W2        12489           0.0000000000
     37468     12490  TIP3      OH2           -41.8298666405       21.6121777139       -8.2522196465  W2        12490           0.0000000000
     37469     12490  TIP3      H1            -41.7537066405       21.7073377139       -9.2016196465  W2        12490           0.0000000000
     37470     12490  TIP3      H2            -42.1049466405       20.7044677139       -8.1233096465  W2        12490           0.0000000000
     37471     12491  TIP3      OH2           -40.4766066405       21.6379577139      -12.5597196465  W2        12491           0.0000000000
     37472     12491  TIP3      H1            -41.1794966405       22.2528777139      -12.7695796465  W2        12491           0.0000000000
     37473     12491  TIP3      H2            -40.9214666405       20.8006277139      -12.4286296465  W2        12491           0.0000000000
     37474     12492  TIP3      OH2           -53.2286766405       37.4015177139      -13.0135796465  W2        12492           0.0000000000
     37475     12492  TIP3      H1            -53.9136866405       37.3634077139      -13.6810696465  W2        12492           0.0000000000
     37476     12492  TIP3      H2            -53.2249566405       38.3142777139      -12.7253696465  W2        12492           0.0000000000
     37477     12493  TIP3      OH2           -51.2687166405       23.3694477139      -15.4686796465  W2        12493           0.0000000000
     37478     12493  TIP3      H1            -50.7773766405       22.7396877139      -15.9961296465  W2        12493           0.0000000000
     37479     12493  TIP3      H2            -50.6450866405       23.6653877139      -14.8055596465  W2        12493           0.0000000000
     37480     12494  TIP3      OH2           -46.2427066405       23.6625977139      -13.0116296465  W2        12494           0.0000000000
     37481     12494  TIP3      H1            -46.0645766405       23.0159177139      -12.3287696465  W2        12494           0.0000000000
     37482     12494  TIP3      H2            -46.2960866405       24.4963677139      -12.5445196465  W2        12494           0.0000000000
     37483     12495  TIP3      OH2           -44.3643266405       38.6110077139      -14.6159596465  W2        12495           0.0000000000
     37484     12495  TIP3      H1            -43.4983066405       38.9777477139      -14.7941396465  W2        12495           0.0000000000
     37485     12495  TIP3      H2            -44.6110466405       38.1718077139      -15.4298796465  W2        12495           0.0000000000
     37486     12496  TIP3      OH2           -37.6553666405       38.1740377139      -11.9368496465  W2        12496           0.0000000000
     37487     12496  TIP3      H1            -37.8496566405       37.4262477139      -12.5018896465  W2        12496           0.0000000000
     37488     12496  TIP3      H2            -37.6943566405       38.9320477139      -12.5200596465  W2        12496           0.0000000000
     37489     12497  TIP3      OH2           -52.0081666405       22.1696777139       -0.1970796465  W2        12497           0.0000000000
     37490     12497  TIP3      H1            -52.3743466405       21.4039377139        0.2453903535  W2        12497           0.0000000000
     37491     12497  TIP3      H2            -51.0953166405       22.1986977139        0.0894303535  W2        12497           0.0000000000
     37492     12498  TIP3      OH2           -50.0350866405       21.5201177139        1.3386303535  W2        12498           0.0000000000
     37493     12498  TIP3      H1            -49.1367266405       21.2461377139        1.1539703535  W2        12498           0.0000000000
     37494     12498  TIP3      H2            -50.4217766405       20.7777177139        1.8028903535  W2        12498           0.0000000000
     37495     12499  TIP3      OH2           -51.4105566405       38.3215977139      -15.9883696465  W2        12499           0.0000000000
     37496     12499  TIP3      H1            -51.6780966405       38.6078877139      -15.1150596465  W2        12499           0.0000000000
     37497     12499  TIP3      H2            -50.6392966405       37.7755177139      -15.8361196465  W2        12499           0.0000000000
     37498     12500  TIP3      OH2           -41.6138566405       20.8526477139        1.5209103535  W2        12500           0.0000000000
     37499     12500  TIP3      H1            -41.5371366405       20.4267177139        2.3746803535  W2        12500           0.0000000000
     37500     12500  TIP3      H2            -40.7201966405       20.8661177139        1.1782603535  W2        12500           0.0000000000
     37501     12501  TIP3      OH2           -38.4377466405       36.9252777139        0.2133303535  W2        12501           0.0000000000
     37502     12501  TIP3      H1            -39.2195566405       36.7390777139       -0.3066096465  W2        12501           0.0000000000
     37503     12501  TIP3      H2            -38.5097566405       37.8547077139        0.4305803535  W2        12501           0.0000000000
     37504     12502  TIP3      OH2           -24.0317066405       30.8117177139       -9.7559496465  W2        12502           0.0000000000
     37505     12502  TIP3      H1            -23.9425966405       31.7555377139       -9.8882396465  W2        12502           0.0000000000
     37506     12502  TIP3      H2            -24.6699466405       30.5363577139      -10.4140096465  W2        12502           0.0000000000
     37507     12503  TIP3      OH2           -25.0985766405       30.0667877139       -6.3371296465  W2        12503           0.0000000000
     37508     12503  TIP3      H1            -25.1368266405       29.4204177139       -5.6321696465  W2        12503           0.0000000000
     37509     12503  TIP3      H2            -25.4209266405       29.6002277139       -7.1082596465  W2        12503           0.0000000000
     37510     12504  TIP3      OH2           -32.7300766405       29.6809977139       -4.7441396465  W2        12504           0.0000000000
     37511     12504  TIP3      H1            -32.6888666405       29.0553277139       -4.0208996465  W2        12504           0.0000000000
     37512     12504  TIP3      H2            -32.0273066405       30.3048577139       -4.5620996465  W2        12504           0.0000000000
     37513     12505  TIP3      OH2           -21.3925566405       33.0058277139       -8.0356196465  W2        12505           0.0000000000
     37514     12505  TIP3      H1            -21.8332866405       32.2854277139       -7.5850596465  W2        12505           0.0000000000
     37515     12505  TIP3      H2            -21.4055866405       33.7265477139       -7.4058496465  W2        12505           0.0000000000
     37516     12506  TIP3      OH2           -31.8067666405       34.1308877139       -6.2092296465  W2        12506           0.0000000000
     37517     12506  TIP3      H1            -32.1762466405       33.3289377139       -6.5787996465  W2        12506           0.0000000000
     37518     12506  TIP3      H2            -30.8656566405       33.9623777139       -6.1628896465  W2        12506           0.0000000000
     37519     12507  TIP3      OH2           -35.1967166405       27.7911477139      -10.8163496465  W2        12507           0.0000000000
     37520     12507  TIP3      H1            -35.6443766405       28.6370177139      -10.8346996465  W2        12507           0.0000000000
     37521     12507  TIP3      H2            -35.7575966405       27.2115677139      -11.3318396465  W2        12507           0.0000000000
     37522     12508  TIP3      OH2           -34.4861066405       29.9531077139       -8.6905496465  W2        12508           0.0000000000
     37523     12508  TIP3      H1            -34.2727566405       29.1832677139       -8.1632496465  W2        12508           0.0000000000
     37524     12508  TIP3      H2            -33.7483466405       30.0427777139       -9.2937896465  W2        12508           0.0000000000
     37525     12509  TIP3      OH2           -24.2810066405       38.1099977139       -7.8235796465  W2        12509           0.0000000000
     37526     12509  TIP3      H1            -23.6613666405       37.4334677139       -8.0966596465  W2        12509           0.0000000000
     37527     12509  TIP3      H2            -24.4892666405       37.8920777139       -6.9150896465  W2        12509           0.0000000000
     37528     12510  TIP3      OH2           -26.7091366405       32.4989277139       -5.9310296465  W2        12510           0.0000000000
     37529     12510  TIP3      H1            -26.4053466405       31.8130677139       -6.5256196465  W2        12510           0.0000000000
     37530     12510  TIP3      H2            -25.9877366405       32.6177977139       -5.3132296465  W2        12510           0.0000000000
     37531     12511  TIP3      OH2           -18.0461566405       24.1004577139       -5.0704096465  W2        12511           0.0000000000
     37532     12511  TIP3      H1            -17.9969366405       24.7105777139       -4.3344996465  W2        12511           0.0000000000
     37533     12511  TIP3      H2            -17.6206466405       24.5615477139       -5.7932996465  W2        12511           0.0000000000
     37534     12512  TIP3      OH2           -23.5684366405       26.8931677139       -5.6035496465  W2        12512           0.0000000000
     37535     12512  TIP3      H1            -23.4258466405       25.9468677139       -5.5833896465  W2        12512           0.0000000000
     37536     12512  TIP3      H2            -23.6745366405       27.1001477139       -6.5320596465  W2        12512           0.0000000000
     37537     12513  TIP3      OH2           -30.4136066405       24.9948077139       -8.3310696465  W2        12513           0.0000000000
     37538     12513  TIP3      H1            -30.3704966405       25.8546577139       -8.7494396465  W2        12513           0.0000000000
     37539     12513  TIP3      H2            -30.8711966405       24.4422777139       -8.9647496465  W2        12513           0.0000000000
     37540     12514  TIP3      OH2           -22.6913366405       25.1253677139       -9.9302396465  W2        12514           0.0000000000
     37541     12514  TIP3      H1            -22.0449066405       24.7966877139       -9.3054796465  W2        12514           0.0000000000
     37542     12514  TIP3      H2            -22.1813966405       25.6432677139      -10.5530996465  W2        12514           0.0000000000
     37543     12515  TIP3      OH2           -33.7934566405       27.3913877139       -7.5689296465  W2        12515           0.0000000000
     37544     12515  TIP3      H1            -33.1397966405       26.8415577139       -7.1369196465  W2        12515           0.0000000000
     37545     12515  TIP3      H2            -33.7695266405       27.1172877139       -8.4857296465  W2        12515           0.0000000000
     37546     12516  TIP3      OH2           -28.6370066405       28.9415177139       -8.3537796465  W2        12516           0.0000000000
     37547     12516  TIP3      H1            -28.0209066405       28.4150577139       -7.8443796465  W2        12516           0.0000000000
     37548     12516  TIP3      H2            -29.2231266405       28.3013877139       -8.7574196465  W2        12516           0.0000000000
     37549     12517  TIP3      OH2           -17.6546966405       25.5783777139       -2.8344296465  W2        12517           0.0000000000
     37550     12517  TIP3      H1            -18.3432366405       26.2364477139       -2.9297696465  W2        12517           0.0000000000
     37551     12517  TIP3      H2            -17.6392366405       25.3811677139       -1.8978896465  W2        12517           0.0000000000
     37552     12518  TIP3      OH2           -31.6034166405       23.9126477139       -4.2569896465  W2        12518           0.0000000000
     37553     12518  TIP3      H1            -31.8222466405       24.4427077139       -5.0233896465  W2        12518           0.0000000000
     37554     12518  TIP3      H2            -32.2713266405       24.1391977139       -3.6098496465  W2        12518           0.0000000000
     37555     12519  TIP3      OH2           -24.2344366405       33.4127577139      -10.7130796465  W2        12519           0.0000000000
     37556     12519  TIP3      H1            -24.5299266405       33.0899877139      -11.5643896465  W2        12519           0.0000000000
     37557     12519  TIP3      H2            -24.5586566405       34.3124277139      -10.6718196465  W2        12519           0.0000000000
     37558     12520  TIP3      OH2           -29.0342766405       31.5882177139       -3.9696196465  W2        12520           0.0000000000
     37559     12520  TIP3      H1            -29.7743666405       32.1863677139       -3.8660996465  W2        12520           0.0000000000
     37560     12520  TIP3      H2            -28.3203266405       32.1421777139       -4.2852596465  W2        12520           0.0000000000
     37561     12521  TIP3      OH2           -20.9274966405       24.4162977139       -7.9496496465  W2        12521           0.0000000000
     37562     12521  TIP3      H1            -21.1426966405       23.6506377139       -7.4170496465  W2        12521           0.0000000000
     37563     12521  TIP3      H2            -20.2717566405       24.8887577139       -7.4367996465  W2        12521           0.0000000000
     37564     12522  TIP3      OH2           -32.0096866405       25.8048277139       -6.3047696465  W2        12522           0.0000000000
     37565     12522  TIP3      H1            -31.3960566405       26.4375877139       -5.9315296465  W2        12522           0.0000000000
     37566     12522  TIP3      H2            -31.4976166405       25.3323277139       -6.9610796465  W2        12522           0.0000000000
     37567     12523  TIP3      OH2           -30.6268466405       33.5525177139       -3.1824696465  W2        12523           0.0000000000
     37568     12523  TIP3      H1            -30.6320866405       34.4318677139       -3.5605396465  W2        12523           0.0000000000
     37569     12523  TIP3      H2            -31.4804366405       33.4689277139       -2.7574796465  W2        12523           0.0000000000
     37570     12524  TIP3      OH2           -34.5057566405       33.2233077139      -12.4005396465  W2        12524           0.0000000000
     37571     12524  TIP3      H1            -34.7776666405       33.4524077139      -13.2892496465  W2        12524           0.0000000000
     37572     12524  TIP3      H2            -34.4601866405       34.0611877139      -11.9400096465  W2        12524           0.0000000000
     37573     12525  TIP3      OH2           -20.8807866405       34.8448977139       -5.6876896465  W2        12525           0.0000000000
     37574     12525  TIP3      H1            -21.8224166405       34.9032877139       -5.5259996465  W2        12525           0.0000000000
     37575     12525  TIP3      H2            -20.6041766405       35.7509477139       -5.8247196465  W2        12525           0.0000000000
     37576     12526  TIP3      OH2           -20.5800866405       23.1314277139       -4.2702996465  W2        12526           0.0000000000
     37577     12526  TIP3      H1            -21.3161666405       23.7421377139       -4.3081696465  W2        12526           0.0000000000
     37578     12526  TIP3      H2            -19.8966866405       23.5463277139       -4.7966596465  W2        12526           0.0000000000
     37579     12527  TIP3      OH2           -27.5769466405       21.2181577139       -6.8044996465  W2        12527           0.0000000000
     37580     12527  TIP3      H1            -27.6945266405       20.2697577139       -6.8586696465  W2        12527           0.0000000000
     37581     12527  TIP3      H2            -28.4319366405       21.5507677139       -6.5313896465  W2        12527           0.0000000000
     37582     12528  TIP3      OH2           -22.6286666405       36.6262477139       -9.0625296465  W2        12528           0.0000000000
     37583     12528  TIP3      H1            -22.2034366405       35.9190377139       -9.5475696465  W2        12528           0.0000000000
     37584     12528  TIP3      H2            -22.3116666405       37.4275177139       -9.4793096465  W2        12528           0.0000000000
     37585     12529  TIP3      OH2           -21.4690166405       34.5270977139      -10.5538696465  W2        12529           0.0000000000
     37586     12529  TIP3      H1            -21.7265366405       33.8371077139      -11.1652796465  W2        12529           0.0000000000
     37587     12529  TIP3      H2            -21.3979366405       34.0842177139       -9.7082796465  W2        12529           0.0000000000
     37588     12530  TIP3      OH2           -19.7829966405       33.0937677139       -2.0765196465  W2        12530           0.0000000000
     37589     12530  TIP3      H1            -19.6433666405       32.5020177139       -2.8158196465  W2        12530           0.0000000000
     37590     12530  TIP3      H2            -19.6157166405       33.9663577139       -2.4326396465  W2        12530           0.0000000000
     37591     12531  TIP3      OH2           -25.3104566405       30.0557177139      -12.3039196465  W2        12531           0.0000000000
     37592     12531  TIP3      H1            -26.0219066405       30.5906877139      -12.6558696465  W2        12531           0.0000000000
     37593     12531  TIP3      H2            -24.6194966405       30.1109277139      -12.9640296465  W2        12531           0.0000000000
     37594     12532  TIP3      OH2           -25.2565366405       28.5131477139      -15.2654196465  W2        12532           0.0000000000
     37595     12532  TIP3      H1            -24.5555466405       28.5358377139      -14.6140196465  W2        12532           0.0000000000
     37596     12532  TIP3      H2            -24.9542466405       27.8851177139      -15.9214896465  W2        12532           0.0000000000
     37597     12533  TIP3      OH2           -17.9410666405       29.4335677139       -4.0104796465  W2        12533           0.0000000000
     37598     12533  TIP3      H1            -18.5936566405       30.1281277139       -3.9213896465  W2        12533           0.0000000000
     37599     12533  TIP3      H2            -17.4760366405       29.6436577139       -4.8203196465  W2        12533           0.0000000000
     37600     12534  TIP3      OH2           -21.9046866405       30.2650477139      -11.3523296465  W2        12534           0.0000000000
     37601     12534  TIP3      H1            -22.6365866405       30.4934177139      -10.7792696465  W2        12534           0.0000000000
     37602     12534  TIP3      H2            -21.4574666405       29.5513177139      -10.8975796465  W2        12534           0.0000000000
     37603     12535  TIP3      OH2           -22.0073366405       28.4393077139       -2.2846296465  W2        12535           0.0000000000
     37604     12535  TIP3      H1            -21.9274266405       29.2027477139       -1.7127796465  W2        12535           0.0000000000
     37605     12535  TIP3      H2            -22.6085666405       28.7185477139       -2.9751196465  W2        12535           0.0000000000
     37606     12536  TIP3      OH2           -30.2593166405       30.8956677139       -9.4698296465  W2        12536           0.0000000000
     37607     12536  TIP3      H1            -30.5897966405       30.5250077139      -10.2881296465  W2        12536           0.0000000000
     37608     12536  TIP3      H2            -29.6709066405       30.2250677139       -9.1229996465  W2        12536           0.0000000000
     37609     12537  TIP3      OH2           -28.8925666405       34.3237277139       -6.7886096465  W2        12537           0.0000000000
     37610     12537  TIP3      H1            -28.9874366405       33.7450377139       -7.5451496465  W2        12537           0.0000000000
     37611     12537  TIP3      H2            -28.1632066405       33.9522977139       -6.2923296465  W2        12537           0.0000000000
     37612     12538  TIP3      OH2           -29.8927666405       29.6642277139       -5.8363296465  W2        12538           0.0000000000
     37613     12538  TIP3      H1            -29.3275166405       29.7856477139       -6.5992096465  W2        12538           0.0000000000
     37614     12538  TIP3      H2            -29.5738766405       30.3017277139       -5.1974796465  W2        12538           0.0000000000
     37615     12539  TIP3      OH2           -23.5835466405       35.1674177139       -5.1022796465  W2        12539           0.0000000000
     37616     12539  TIP3      H1            -23.8238866405       35.8297277139       -4.4543596465  W2        12539           0.0000000000
     37617     12539  TIP3      H2            -23.7817266405       34.3329377139       -4.6773196465  W2        12539           0.0000000000
     37618     12540  TIP3      OH2           -29.0126966405       34.0634977139       -1.1191396465  W2        12540           0.0000000000
     37619     12540  TIP3      H1            -29.3239466405       34.8458177139       -0.6638196465  W2        12540           0.0000000000
     37620     12540  TIP3      H2            -29.6626766405       33.9104077139       -1.8049396465  W2        12540           0.0000000000
     37621     12541  TIP3      OH2           -23.0337366405       29.4273377139      -13.6672096465  W2        12541           0.0000000000
     37622     12541  TIP3      H1            -22.4541866405       29.5773677139      -12.9203196465  W2        12541           0.0000000000
     37623     12541  TIP3      H2            -22.6197366405       29.8980777139      -14.3905696465  W2        12541           0.0000000000
     37624     12542  TIP3      OH2           -32.0927066405       30.2616077139       -1.8905696465  W2        12542           0.0000000000
     37625     12542  TIP3      H1            -32.0223866405       30.9122877139       -1.1920696465  W2        12542           0.0000000000
     37626     12542  TIP3      H2            -32.9834866405       30.3643577139       -2.2254796465  W2        12542           0.0000000000
     37627     12543  TIP3      OH2           -25.3072466405       36.1641877139      -10.2318996465  W2        12543           0.0000000000
     37628     12543  TIP3      H1            -24.8334866405       36.4598177139       -9.4544796465  W2        12543           0.0000000000
     37629     12543  TIP3      H2            -25.8703166405       36.9023477139      -10.4649396465  W2        12543           0.0000000000
     37630     12544  TIP3      OH2           -30.7731066405       36.1349977139       -0.3557596465  W2        12544           0.0000000000
     37631     12544  TIP3      H1            -30.7655766405       35.9989677139       -1.3032096465  W2        12544           0.0000000000
     37632     12544  TIP3      H2            -31.6890666405       36.0178077139       -0.1037596465  W2        12544           0.0000000000
     37633     12545  TIP3      OH2           -19.3348966405       21.1773777139      -13.8542396465  W2        12545           0.0000000000
     37634     12545  TIP3      H1            -20.2348266405       21.3162777139      -13.5591796465  W2        12545           0.0000000000
     37635     12545  TIP3      H2            -19.0830566405       22.0088377139      -14.2560696465  W2        12545           0.0000000000
     37636     12546  TIP3      OH2           -31.2690466405       29.9650977139      -11.8805496465  W2        12546           0.0000000000
     37637     12546  TIP3      H1            -31.5609166405       30.7332677139      -12.3714196465  W2        12546           0.0000000000
     37638     12546  TIP3      H2            -31.9435266405       29.3057177139      -12.0434096465  W2        12546           0.0000000000
     37639     12547  TIP3      OH2           -18.1457566405       35.5436177139      -15.4778496465  W2        12547           0.0000000000
     37640     12547  TIP3      H1            -18.0724066405       36.4826377139      -15.3073196465  W2        12547           0.0000000000
     37641     12547  TIP3      H2            -17.2402466405       35.2384777139      -15.5341196465  W2        12547           0.0000000000
     37642     12548  TIP3      OH2           -35.1760366405       32.3280177139       -3.0655696465  W2        12548           0.0000000000
     37643     12548  TIP3      H1            -35.6771966405       32.2999577139       -3.8805996465  W2        12548           0.0000000000
     37644     12548  TIP3      H2            -35.1706666405       31.4223377139       -2.7558396465  W2        12548           0.0000000000
     37645     12549  TIP3      OH2           -35.4257666405       35.1083977139       -6.1815496465  W2        12549           0.0000000000
     37646     12549  TIP3      H1            -34.4797066405       34.9640977139       -6.2005996465  W2        12549           0.0000000000
     37647     12549  TIP3      H2            -35.5381366405       35.8926777139       -5.6444296465  W2        12549           0.0000000000
     37648     12550  TIP3      OH2           -17.2279166405       35.7743677139       -0.4991796465  W2        12550           0.0000000000
     37649     12550  TIP3      H1            -17.2772366405       34.8191777139       -0.5364196465  W2        12550           0.0000000000
     37650     12550  TIP3      H2            -18.0546866405       36.0418977139       -0.0977996465  W2        12550           0.0000000000
     37651     12551  TIP3      OH2           -26.2495166405       35.3482877139       -1.6230396465  W2        12551           0.0000000000
     37652     12551  TIP3      H1            -26.1620566405       36.1747477139       -1.1481296465  W2        12551           0.0000000000
     37653     12551  TIP3      H2            -27.1130066405       35.0186677139       -1.3741096465  W2        12551           0.0000000000
     37654     12552  TIP3      OH2           -25.8349366405       39.1206577139      -11.8169796465  W2        12552           0.0000000000
     37655     12552  TIP3      H1            -25.9103366405       38.9993777139      -12.7634596465  W2        12552           0.0000000000
     37656     12552  TIP3      H2            -25.8020666405       40.0699277139      -11.6985196465  W2        12552           0.0000000000
     37657     12553  TIP3      OH2           -32.1815566405       37.9093577139      -10.0360796465  W2        12553           0.0000000000
     37658     12553  TIP3      H1            -32.0295166405       37.5613977139       -9.1574296465  W2        12553           0.0000000000
     37659     12553  TIP3      H2            -33.0325166405       37.5530877139      -10.2913596465  W2        12553           0.0000000000
     37660     12554  TIP3      OH2           -22.7333366405       38.2746777139      -14.8147396465  W2        12554           0.0000000000
     37661     12554  TIP3      H1            -22.3584966405       37.5302877139      -15.2854796465  W2        12554           0.0000000000
     37662     12554  TIP3      H2            -22.7289666405       38.0047377139      -13.8964096465  W2        12554           0.0000000000
     37663     12555  TIP3      OH2           -23.0645266405       38.2003877139      -12.0655196465  W2        12555           0.0000000000
     37664     12555  TIP3      H1            -23.9995466405       38.3005777139      -11.8868196465  W2        12555           0.0000000000
     37665     12555  TIP3      H2            -22.7843366405       37.4909877139      -11.4871996465  W2        12555           0.0000000000
     37666     12556  TIP3      OH2           -20.0759366405       27.2676177139       -0.0189596465  W2        12556           0.0000000000
     37667     12556  TIP3      H1            -20.4832566405       27.7481777139       -0.7396296465  W2        12556           0.0000000000
     37668     12556  TIP3      H2            -20.0353666405       26.3622177139       -0.3268796465  W2        12556           0.0000000000
     37669     12557  TIP3      OH2           -32.9269866405       33.6515577139       -2.0222896465  W2        12557           0.0000000000
     37670     12557  TIP3      H1            -32.7108566405       33.2901177139       -1.1627096465  W2        12557           0.0000000000
     37671     12557  TIP3      H2            -33.7825166405       33.2769377139       -2.2319396465  W2        12557           0.0000000000
     37672     12558  TIP3      OH2           -30.3081866405       22.1216077139       -6.0268696465  W2        12558           0.0000000000
     37673     12558  TIP3      H1            -31.1698166405       22.0344277139       -6.4345796465  W2        12558           0.0000000000
     37674     12558  TIP3      H2            -30.3306166405       22.9776177139       -5.5991096465  W2        12558           0.0000000000
     37675     12559  TIP3      OH2           -25.6454066405       21.8436477139       -2.6521696465  W2        12559           0.0000000000
     37676     12559  TIP3      H1            -25.2250966405       21.4283577139       -1.8991096465  W2        12559           0.0000000000
     37677     12559  TIP3      H2            -26.5784466405       21.6649777139       -2.5349696465  W2        12559           0.0000000000
     37678     12560  TIP3      OH2           -22.3189166405       25.5991677139       -1.7987196465  W2        12560           0.0000000000
     37679     12560  TIP3      H1            -22.8329666405       25.4733877139       -1.0011196465  W2        12560           0.0000000000
     37680     12560  TIP3      H2            -22.4744466405       26.5114777139       -2.0430996465  W2        12560           0.0000000000
     37681     12561  TIP3      OH2           -21.5564266405       30.4601677139      -16.0374196465  W2        12561           0.0000000000
     37682     12561  TIP3      H1            -21.5143466405       30.2375577139      -16.9674196465  W2        12561           0.0000000000
     37683     12561  TIP3      H2            -20.7072166405       30.8588777139      -15.8474296465  W2        12561           0.0000000000
     37684     12562  TIP3      OH2           -25.9836766405       24.3359877139      -15.3670896465  W2        12562           0.0000000000
     37685     12562  TIP3      H1            -26.2371966405       24.3551477139      -14.4442796465  W2        12562           0.0000000000
     37686     12562  TIP3      H2            -26.2404666405       23.4645277139      -15.6684696465  W2        12562           0.0000000000
     37687     12563  TIP3      OH2           -30.2171766405       27.0870577139       -4.9318496465  W2        12563           0.0000000000
     37688     12563  TIP3      H1            -30.8589666405       27.0467877139       -4.2228396465  W2        12563           0.0000000000
     37689     12563  TIP3      H2            -30.1799766405       28.0135277139       -5.1695496465  W2        12563           0.0000000000
     37690     12564  TIP3      OH2           -30.2202666405       27.3080677139      -10.0198496465  W2        12564           0.0000000000
     37691     12564  TIP3      H1            -31.1129766405       26.9676777139      -10.0784696465  W2        12564           0.0000000000
     37692     12564  TIP3      H2            -29.7696066405       26.9311577139      -10.7755296465  W2        12564           0.0000000000
     37693     12565  TIP3      OH2           -24.6847166405       27.7240977139      -11.2027696465  W2        12565           0.0000000000
     37694     12565  TIP3      H1            -25.0936866405       28.5389577139      -11.4942896465  W2        12565           0.0000000000
     37695     12565  TIP3      H2            -23.9640966405       27.5841077139      -11.8170596465  W2        12565           0.0000000000
     37696     12566  TIP3      OH2           -25.5825566405       27.8997377139        0.2853003535  W2        12566           0.0000000000
     37697     12566  TIP3      H1            -26.1451766405       27.1948977139        0.6060803535  W2        12566           0.0000000000
     37698     12566  TIP3      H2            -24.7562166405       27.7789277139        0.7530603535  W2        12566           0.0000000000
     37699     12567  TIP3      OH2           -23.6799466405       27.1701377139       -8.3887996465  W2        12567           0.0000000000
     37700     12567  TIP3      H1            -23.8754966405       27.7758177139       -9.1037396465  W2        12567           0.0000000000
     37701     12567  TIP3      H2            -23.4986866405       26.3366577139       -8.8231696465  W2        12567           0.0000000000
     37702     12568  TIP3      OH2           -32.4671266405       27.4074077139       -3.0646496465  W2        12568           0.0000000000
     37703     12568  TIP3      H1            -32.5051866405       27.8075677139       -2.1959396465  W2        12568           0.0000000000
     37704     12568  TIP3      H2            -32.9580166405       26.5906477139       -2.9743596465  W2        12568           0.0000000000
     37705     12569  TIP3      OH2           -29.1013866405       24.7816377139      -16.2660496465  W2        12569           0.0000000000
     37706     12569  TIP3      H1            -29.5323166405       24.3366477139      -15.5363096465  W2        12569           0.0000000000
     37707     12569  TIP3      H2            -29.8195166405       25.1532677139      -16.7782996465  W2        12569           0.0000000000
     37708     12570  TIP3      OH2           -35.8590466405       24.5235877139       -9.2141796465  W2        12570           0.0000000000
     37709     12570  TIP3      H1            -35.2282766405       24.4947977139       -8.4947896465  W2        12570           0.0000000000
     37710     12570  TIP3      H2            -35.4096166405       24.0984577139       -9.9445896465  W2        12570           0.0000000000
     37711     12571  TIP3      OH2           -34.5848366405       25.2697877139      -13.7901396465  W2        12571           0.0000000000
     37712     12571  TIP3      H1            -34.1106666405       25.8607777139      -14.3750496465  W2        12571           0.0000000000
     37713     12571  TIP3      H2            -35.3021966405       25.8000777139      -13.4431296465  W2        12571           0.0000000000
     37714     12572  TIP3      OH2           -24.4160266405       28.8082677139       -3.7175596465  W2        12572           0.0000000000
     37715     12572  TIP3      H1            -24.0925466405       28.1772377139       -4.3605096465  W2        12572           0.0000000000
     37716     12572  TIP3      H2            -24.8560966405       28.2734877139       -3.0568196465  W2        12572           0.0000000000
     37717     12573  TIP3      OH2           -27.6387366405       24.7358177139       -8.9334396465  W2        12573           0.0000000000
     37718     12573  TIP3      H1            -28.5496266405       24.7924977139       -8.6448396465  W2        12573           0.0000000000
     37719     12573  TIP3      H2            -27.1334466405       24.6753677139       -8.1227196465  W2        12573           0.0000000000
     37720     12574  TIP3      OH2           -32.8103966405       26.3644477139      -10.1066796465  W2        12574           0.0000000000
     37721     12574  TIP3      H1            -33.6995966405       26.4639977139      -10.4467196465  W2        12574           0.0000000000
     37722     12574  TIP3      H2            -32.5139066405       25.5227477139      -10.4528896465  W2        12574           0.0000000000
     37723     12575  TIP3      OH2           -29.1572166405       26.3647077139      -12.4502196465  W2        12575           0.0000000000
     37724     12575  TIP3      H1            -28.2256666405       26.4937077139      -12.2719096465  W2        12575           0.0000000000
     37725     12575  TIP3      H2            -29.3721866405       27.0341377139      -13.0997496465  W2        12575           0.0000000000
     37726     12576  TIP3      OH2           -23.2335466405       23.9704477139       -5.6692596465  W2        12576           0.0000000000
     37727     12576  TIP3      H1            -23.9103866405       24.1017577139       -5.0052896465  W2        12576           0.0000000000
     37728     12576  TIP3      H2            -23.7190566405       23.8153977139       -6.4794896465  W2        12576           0.0000000000
     37729     12577  TIP3      OH2           -30.4831966405       27.5589277139      -14.8836096465  W2        12577           0.0000000000
     37730     12577  TIP3      H1            -31.0256866405       27.1793077139      -15.5748496465  W2        12577           0.0000000000
     37731     12577  TIP3      H2            -29.6497066405       27.7533977139      -15.3121996465  W2        12577           0.0000000000
     37732     12578  TIP3      OH2           -19.9460366405       39.6419877139        0.6075003535  W2        12578           0.0000000000
     37733     12578  TIP3      H1            -19.7461666405       40.0661777139       -0.2269696465  W2        12578           0.0000000000
     37734     12578  TIP3      H2            -19.2906666405       39.9858077139        1.2145403535  W2        12578           0.0000000000
     37735     12579  TIP3      OH2           -32.3480566405       32.1161177139        0.2155503535  W2        12579           0.0000000000
     37736     12579  TIP3      H1            -31.6158166405       32.3707077139        0.7770003535  W2        12579           0.0000000000
     37737     12579  TIP3      H2            -33.1281866405       32.3206577139        0.7310903535  W2        12579           0.0000000000
     37738     12580  TIP3      OH2           -26.3187666405       27.5231177139       -7.0464796465  W2        12580           0.0000000000
     37739     12580  TIP3      H1            -25.7544266405       26.9767777139       -7.5935196465  W2        12580           0.0000000000
     37740     12580  TIP3      H2            -26.4664266405       27.0013077139       -6.2577196465  W2        12580           0.0000000000
     37741     12581  TIP3      OH2           -31.3167966405       23.6597277139      -10.6279996465  W2        12581           0.0000000000
     37742     12581  TIP3      H1            -31.6338466405       22.7572577139      -10.6634596465  W2        12581           0.0000000000
     37743     12581  TIP3      H2            -30.5353866405       23.6614677139      -11.1808396465  W2        12581           0.0000000000
     37744     12582  TIP3      OH2           -27.6921766405       25.9117277139       -4.6324396465  W2        12582           0.0000000000
     37745     12582  TIP3      H1            -28.5276466405       26.3656777139       -4.5221996465  W2        12582           0.0000000000
     37746     12582  TIP3      H2            -27.1681166405       26.1875777139       -3.8804496465  W2        12582           0.0000000000
     37747     12583  TIP3      OH2           -27.1479166405       32.1244977139      -12.9477996465  W2        12583           0.0000000000
     37748     12583  TIP3      H1            -27.8928166405       31.6170277139      -13.2700096465  W2        12583           0.0000000000
     37749     12583  TIP3      H2            -27.2821966405       32.1732977139      -12.0013196465  W2        12583           0.0000000000
     37750     12584  TIP3      OH2           -19.9980266405       31.2573177139       -4.1610396465  W2        12584           0.0000000000
     37751     12584  TIP3      H1            -19.3561466405       31.7139477139       -4.7048196465  W2        12584           0.0000000000
     37752     12584  TIP3      H2            -20.8283366405       31.3705577139       -4.6236296465  W2        12584           0.0000000000
     37753     12585  TIP3      OH2           -23.2502366405       24.9384877139      -14.7485396465  W2        12585           0.0000000000
     37754     12585  TIP3      H1            -24.1888166405       25.0500477139      -14.8996596465  W2        12585           0.0000000000
     37755     12585  TIP3      H2            -22.9530266405       25.7951777139      -14.4419696465  W2        12585           0.0000000000
     37756     12586  TIP3      OH2           -25.6287066405       32.3088277139       -1.7108896465  W2        12586           0.0000000000
     37757     12586  TIP3      H1            -25.9740966405       31.9270677139       -0.9039296465  W2        12586           0.0000000000
     37758     12586  TIP3      H2            -25.8286966405       33.2421877139       -1.6395996465  W2        12586           0.0000000000
     37759     12587  TIP3      OH2           -22.5318866405       26.8057577139      -13.0877996465  W2        12587           0.0000000000
     37760     12587  TIP3      H1            -21.6399866405       26.6682577139      -12.7686796465  W2        12587           0.0000000000
     37761     12587  TIP3      H2            -22.4755266405       27.5963677139      -13.6244496465  W2        12587           0.0000000000
     37762     12588  TIP3      OH2           -32.0230866405       31.4194977139       -7.1780096465  W2        12588           0.0000000000
     37763     12588  TIP3      H1            -31.2783666405       31.4170677139       -7.7793596465  W2        12588           0.0000000000
     37764     12588  TIP3      H2            -31.9454266405       30.5958777139       -6.6964996465  W2        12588           0.0000000000
     37765     12589  TIP3      OH2           -25.0225066405       33.5829277139      -13.9223396465  W2        12589           0.0000000000
     37766     12589  TIP3      H1            -25.3176666405       34.4097177139      -13.5408596465  W2        12589           0.0000000000
     37767     12589  TIP3      H2            -25.7255066405       32.9636177139      -13.7261996465  W2        12589           0.0000000000
     37768     12590  TIP3      OH2           -35.0151166405       29.8801877139       -1.8631596465  W2        12590           0.0000000000
     37769     12590  TIP3      H1            -34.7922566405       29.4621477139       -1.0314096465  W2        12590           0.0000000000
     37770     12590  TIP3      H2            -35.6171066405       29.2676877139       -2.2858796465  W2        12590           0.0000000000
     37771     12591  TIP3      OH2           -27.9986266405       29.3971777139        0.3498103535  W2        12591           0.0000000000
     37772     12591  TIP3      H1            -28.2945466405       29.2314777139       -0.5452796465  W2        12591           0.0000000000
     37773     12591  TIP3      H2            -27.0671066405       29.1772077139        0.3392003535  W2        12591           0.0000000000
     37774     12592  TIP3      OH2           -23.3783466405       34.7703777139       -1.7603896465  W2        12592           0.0000000000
     37775     12592  TIP3      H1            -24.2789166405       34.9536377139       -2.0279996465  W2        12592           0.0000000000
     37776     12592  TIP3      H2            -23.3442366405       35.0293077139       -0.8395096465  W2        12592           0.0000000000
     37777     12593  TIP3      OH2           -17.6470166405       27.0151677139      -13.3931296465  W2        12593           0.0000000000
     37778     12593  TIP3      H1            -18.2013866405       26.6189677139      -14.0653796465  W2        12593           0.0000000000
     37779     12593  TIP3      H2            -17.5466566405       27.9256877139      -13.6707996465  W2        12593           0.0000000000
     37780     12594  TIP3      OH2           -17.6838166405       32.8153377139       -0.5559796465  W2        12594           0.0000000000
     37781     12594  TIP3      H1            -18.5349666405       33.0537177139       -0.9233396465  W2        12594           0.0000000000
     37782     12594  TIP3      H2            -17.0934766405       32.7986577139       -1.3092696465  W2        12594           0.0000000000
     37783     12595  TIP3      OH2           -19.3518466405       35.8012077139      -12.9279196465  W2        12595           0.0000000000
     37784     12595  TIP3      H1            -19.7247366405       34.9755877139      -12.6188596465  W2        12595           0.0000000000
     37785     12595  TIP3      H2            -19.0744966405       35.6181477139      -13.8255796465  W2        12595           0.0000000000
     37786     12596  TIP3      OH2           -22.1914566405       30.6091577139       -5.9067296465  W2        12596           0.0000000000
     37787     12596  TIP3      H1            -23.1197666405       30.3773477139       -5.9337996465  W2        12596           0.0000000000
     37788     12596  TIP3      H2            -21.7403466405       29.8321377139       -6.2368496465  W2        12596           0.0000000000
     37789     12597  TIP3      OH2           -29.6481466405       34.9373177139       -9.7738596465  W2        12597           0.0000000000
     37790     12597  TIP3      H1            -29.1209266405       35.7107577139       -9.9739796465  W2        12597           0.0000000000
     37791     12597  TIP3      H2            -30.5282966405       35.1622377139      -10.0754596465  W2        12597           0.0000000000
     37792     12598  TIP3      OH2           -33.8933766405       29.7997277139      -15.1866196465  W2        12598           0.0000000000
     37793     12598  TIP3      H1            -33.2773866405       30.4264477139      -14.8071396465  W2        12598           0.0000000000
     37794     12598  TIP3      H2            -34.7551166405       30.1157077139      -14.9149696465  W2        12598           0.0000000000
     37795     12599  TIP3      OH2           -28.2209166405       32.6003077139      -10.1974296465  W2        12599           0.0000000000
     37796     12599  TIP3      H1            -28.4619166405       33.5257477139      -10.1558996465  W2        12599           0.0000000000
     37797     12599  TIP3      H2            -28.9615566405       32.1414377139       -9.8010396465  W2        12599           0.0000000000
     37798     12600  TIP3      OH2           -27.7062566405       36.7496677139       -3.8823196465  W2        12600           0.0000000000
     37799     12600  TIP3      H1            -27.3437866405       37.6042277139       -4.1158796465  W2        12600           0.0000000000
     37800     12600  TIP3      H2            -27.1747366405       36.4578277139       -3.1416896465  W2        12600           0.0000000000
     37801     12601  TIP3      OH2           -29.5378366405       37.6220677139      -10.6522096465  W2        12601           0.0000000000
     37802     12601  TIP3      H1            -30.4877866405       37.7278077139      -10.6008796465  W2        12601           0.0000000000
     37803     12601  TIP3      H2            -29.1860266405       38.4428077139      -10.3074596465  W2        12601           0.0000000000
     37804     12602  TIP3      OH2           -24.1621766405       32.8487377139       -4.1817596465  W2        12602           0.0000000000
     37805     12602  TIP3      H1            -24.5880466405       32.6209077139       -3.3553596465  W2        12602           0.0000000000
     37806     12602  TIP3      H2            -23.5815966405       32.1099177139       -4.3642296465  W2        12602           0.0000000000
     37807     12603  TIP3      OH2           -21.9592866405       33.7777877139      -15.1078596465  W2        12603           0.0000000000
     37808     12603  TIP3      H1            -21.6059766405       33.3977677139      -14.3035096465  W2        12603           0.0000000000
     37809     12603  TIP3      H2            -22.9079366405       33.6842677139      -15.0209296465  W2        12603           0.0000000000
     37810     12604  TIP3      OH2           -21.5037566405       37.4006877139       -1.7122796465  W2        12604           0.0000000000
     37811     12604  TIP3      H1            -22.1054366405       36.8449777139       -2.2076496465  W2        12604           0.0000000000
     37812     12604  TIP3      H2            -21.2223866405       38.0676677139       -2.3385396465  W2        12604           0.0000000000
     37813     12605  TIP3      OH2           -17.4558466405       38.2570377139      -14.9068396465  W2        12605           0.0000000000
     37814     12605  TIP3      H1            -16.7120566405       38.8430877139      -15.0466796465  W2        12605           0.0000000000
     37815     12605  TIP3      H2            -18.1500366405       38.8256177139      -14.5735996465  W2        12605           0.0000000000
     37816     12606  TIP3      OH2           -33.3811666405       24.6334577139       -2.3050196465  W2        12606           0.0000000000
     37817     12606  TIP3      H1            -34.2739366405       24.9719977139       -2.3726196465  W2        12606           0.0000000000
     37818     12606  TIP3      H2            -33.4798866405       23.7780677139       -1.8869396465  W2        12606           0.0000000000
     37819     12607  TIP3      OH2           -21.0933566405       32.4499877139      -12.8810696465  W2        12607           0.0000000000
     37820     12607  TIP3      H1            -21.3705966405       31.7219177139      -12.3249596465  W2        12607           0.0000000000
     37821     12607  TIP3      H2            -20.1660566405       32.5691877139      -12.6758096465  W2        12607           0.0000000000
     37822     12608  TIP3      OH2           -33.7299666405       36.4378977139       -3.8700796465  W2        12608           0.0000000000
     37823     12608  TIP3      H1            -33.5129366405       35.5061377139       -3.9011096465  W2        12608           0.0000000000
     37824     12608  TIP3      H2            -33.4836166405       36.7123977139       -2.9867996465  W2        12608           0.0000000000
     37825     12609  TIP3      OH2           -27.8685066405       34.8893977139      -16.6608596465  W2        12609           0.0000000000
     37826     12609  TIP3      H1            -27.6295266405       34.1412077139      -17.2079696465  W2        12609           0.0000000000
     37827     12609  TIP3      H2            -28.1373766405       34.5015677139      -15.8280796465  W2        12609           0.0000000000
     37828     12610  TIP3      OH2           -28.9314466405       34.4597777139      -14.2045996465  W2        12610           0.0000000000
     37829     12610  TIP3      H1            -28.7846466405       33.9397577139      -13.4145096465  W2        12610           0.0000000000
     37830     12610  TIP3      H2            -28.9342766405       35.3665377139      -13.8980096465  W2        12610           0.0000000000
     37831     12611  TIP3      OH2           -32.4783366405       31.7121077139      -13.6940596465  W2        12611           0.0000000000
     37832     12611  TIP3      H1            -33.1644066405       32.0643577139      -13.1270896465  W2        12611           0.0000000000
     37833     12611  TIP3      H2            -31.9555466405       32.4750677139      -13.9406296465  W2        12611           0.0000000000
     37834     12612  TIP3      OH2           -24.6468266405       24.3744877139       -3.4151596465  W2        12612           0.0000000000
     37835     12612  TIP3      H1            -23.9480366405       24.4483577139       -2.7651896465  W2        12612           0.0000000000
     37836     12612  TIP3      H2            -25.0276866405       23.5099877139       -3.2608696465  W2        12612           0.0000000000
     37837     12613  TIP3      OH2           -23.8623366405       24.0266577139      -12.3179296465  W2        12613           0.0000000000
     37838     12613  TIP3      H1            -23.6425066405       24.4981977139      -13.1213896465  W2        12613           0.0000000000
     37839     12613  TIP3      H2            -23.3039366405       24.4209177139      -11.6478696465  W2        12613           0.0000000000
     37840     12614  TIP3      OH2           -26.1937266405       36.1571377139      -13.4551796465  W2        12614           0.0000000000
     37841     12614  TIP3      H1            -27.0101166405       36.6541077139      -13.4027496465  W2        12614           0.0000000000
     37842     12614  TIP3      H2            -25.6640966405       36.6324877139      -14.0952996465  W2        12614           0.0000000000
     37843     12615  TIP3      OH2           -26.6623466405       25.7545377139      -11.4830896465  W2        12615           0.0000000000
     37844     12615  TIP3      H1            -25.8500866405       26.2588577139      -11.4369196465  W2        12615           0.0000000000
     37845     12615  TIP3      H2            -26.9070466405       25.6095077139      -10.5691296465  W2        12615           0.0000000000
     37846     12616  TIP3      OH2           -26.1267066405       26.7408077139       -2.2984296465  W2        12616           0.0000000000
     37847     12616  TIP3      H1            -26.0076766405       27.3143477139       -1.5413896465  W2        12616           0.0000000000
     37848     12616  TIP3      H2            -25.4712466405       26.0527477139       -2.1836496465  W2        12616           0.0000000000
     37849     12617  TIP3      OH2           -25.7786766405       22.8358377139      -10.5449796465  W2        12617           0.0000000000
     37850     12617  TIP3      H1            -26.1253266405       23.4528977139       -9.9005496465  W2        12617           0.0000000000
     37851     12617  TIP3      H2            -25.1199866405       23.3364077139      -11.0264296465  W2        12617           0.0000000000
     37852     12618  TIP3      OH2           -28.8554166405       37.2008577139      -13.4734896465  W2        12618           0.0000000000
     37853     12618  TIP3      H1            -28.6945466405       38.0006077139      -13.9742296465  W2        12618           0.0000000000
     37854     12618  TIP3      H2            -29.0526366405       37.5074577139      -12.5884296465  W2        12618           0.0000000000
     37855     12619  TIP3      OH2           -30.1209766405       23.8987777139      -13.8577296465  W2        12619           0.0000000000
     37856     12619  TIP3      H1            -30.2044966405       24.7870877139      -13.5110896465  W2        12619           0.0000000000
     37857     12619  TIP3      H2            -29.2309466405       23.6334477139      -13.6260496465  W2        12619           0.0000000000
     37858     12620  TIP3      OH2           -19.9221266405       24.6478377139       -1.4634596465  W2        12620           0.0000000000
     37859     12620  TIP3      H1            -20.8385466405       24.9100077139       -1.5510896465  W2        12620           0.0000000000
     37860     12620  TIP3      H2            -19.5866266405       24.6447377139       -2.3599296465  W2        12620           0.0000000000
     37861     12621  TIP3      OH2           -21.3200266405       28.3979377139       -7.3677296465  W2        12621           0.0000000000
     37862     12621  TIP3      H1            -22.1175866405       27.9829577139       -7.6962296465  W2        12621           0.0000000000
     37863     12621  TIP3      H2            -20.8749166405       27.7073077139       -6.8766796465  W2        12621           0.0000000000
     37864     12622  TIP3      OH2           -31.8624466405       34.3259977139      -14.7972796465  W2        12622           0.0000000000
     37865     12622  TIP3      H1            -31.2702966405       35.0254777139      -14.5210396465  W2        12622           0.0000000000
     37866     12622  TIP3      H2            -31.4031466405       33.8929477139      -15.5168196465  W2        12622           0.0000000000
     37867     12623  TIP3      OH2           -33.5465266405       26.9902977139      -15.6813396465  W2        12623           0.0000000000
     37868     12623  TIP3      H1            -33.5912666405       27.9296077139      -15.5026396465  W2        12623           0.0000000000
     37869     12623  TIP3      H2            -34.4342066405       26.7547877139      -15.9511296465  W2        12623           0.0000000000
     37870     12624  TIP3      OH2           -20.2335666405       37.6541877139       -5.7453796465  W2        12624           0.0000000000
     37871     12624  TIP3      H1            -20.3891366405       38.3326277139       -6.4024496465  W2        12624           0.0000000000
     37872     12624  TIP3      H2            -19.3009266405       37.7261177139       -5.5423196465  W2        12624           0.0000000000
     37873     12625  TIP3      OH2           -32.7383266405       21.7719577139       -7.0082396465  W2        12625           0.0000000000
     37874     12625  TIP3      H1            -32.9673466405       21.8312077139       -7.9357396465  W2        12625           0.0000000000
     37875     12625  TIP3      H2            -33.1809866405       20.9805077139       -6.7018296465  W2        12625           0.0000000000
     37876     12626  TIP3      OH2           -33.8079966405       35.7126677139      -10.8476596465  W2        12626           0.0000000000
     37877     12626  TIP3      H1            -34.6401366405       36.1849377139      -10.8205196465  W2        12626           0.0000000000
     37878     12626  TIP3      H2            -33.2621666405       36.2224277139      -11.4463496465  W2        12626           0.0000000000
     37879     12627  TIP3      OH2           -34.5196266405       38.3250377139        0.4821403535  W2        12627           0.0000000000
     37880     12627  TIP3      H1            -33.9794066405       38.1084377139        1.2420603535  W2        12627           0.0000000000
     37881     12627  TIP3      H2            -35.0008266405       37.5196377139        0.2923903535  W2        12627           0.0000000000
     37882     12628  TIP3      OH2           -29.9222866405       37.2444777139        2.1025603535  W2        12628           0.0000000000
     37883     12628  TIP3      H1            -29.1545666405       36.7855577139        2.4434803535  W2        12628           0.0000000000
     37884     12628  TIP3      H2            -29.9436666405       37.0184577139        1.1726803535  W2        12628           0.0000000000
     37885     12629  TIP3      OH2           -25.8303266405       36.7525377139      -16.5222596465  W2        12629           0.0000000000
     37886     12629  TIP3      H1            -26.4742266405       36.1213977139      -16.2008896465  W2        12629           0.0000000000
     37887     12629  TIP3      H2            -25.0684966405       36.2213377139      -16.7539096465  W2        12629           0.0000000000
     37888     12630  TIP3      OH2           -23.3454166405       35.6245877139        0.8317103535  W2        12630           0.0000000000
     37889     12630  TIP3      H1            -23.6964666405       34.7678877139        1.0747503535  W2        12630           0.0000000000
     37890     12630  TIP3      H2            -22.6190966405       35.7672577139        1.4386103535  W2        12630           0.0000000000
     37891     12631  TIP3      OH2           -21.2260366405       36.5695277139      -16.2884596465  W2        12631           0.0000000000
     37892     12631  TIP3      H1            -20.9429966405       35.7750477139      -15.8357696465  W2        12631           0.0000000000
     37893     12631  TIP3      H2            -20.4862466405       36.8026277139      -16.8493496465  W2        12631           0.0000000000
     37894     12632  TIP3      OH2           -34.6126766405       32.1354477139        1.4365703535  W2        12632           0.0000000000
     37895     12632  TIP3      H1            -34.4686266405       31.2335177139        1.1502403535  W2        12632           0.0000000000
     37896     12632  TIP3      H2            -35.3849366405       32.4216577139        0.9488003535  W2        12632           0.0000000000
     37897     12633  TIP3      OH2           -30.2713066405       32.4790177139      -16.4309696465  W2        12633           0.0000000000
     37898     12633  TIP3      H1            -30.2068966405       31.6849777139      -15.9003296465  W2        12633           0.0000000000
     37899     12633  TIP3      H2            -29.6183866405       32.3602977139      -17.1207696465  W2        12633           0.0000000000
     37900     12634  TIP3      OH2           -27.9570666405       32.1052577139        0.8692103535  W2        12634           0.0000000000
     37901     12634  TIP3      H1            -28.2856866405       32.3760677139        0.0119503535  W2        12634           0.0000000000
     37902     12634  TIP3      H2            -27.8052466405       31.1642377139        0.7817103535  W2        12634           0.0000000000
     37903     12635  TIP3      OH2           -24.9189666405       33.5261877139      -16.6951696465  W2        12635           0.0000000000
     37904     12635  TIP3      H1            -25.1875566405       33.7063977139      -15.7942796465  W2        12635           0.0000000000
     37905     12635  TIP3      H2            -25.1254066405       32.6008077139      -16.8265896465  W2        12635           0.0000000000
     37906     12636  TIP3      OH2           -22.2225466405       32.0209877139       -1.7475596465  W2        12636           0.0000000000
     37907     12636  TIP3      H1            -21.4770666405       32.6093577139       -1.8671596465  W2        12636           0.0000000000
     37908     12636  TIP3      H2            -22.9798666405       32.6029577139       -1.6842496465  W2        12636           0.0000000000
     37909     12637  TIP3      OH2           -33.7800266405       29.3357777139        0.8565003535  W2        12637           0.0000000000
     37910     12637  TIP3      H1            -33.3719066405       28.4784377139        0.7355603535  W2        12637           0.0000000000
     37911     12637  TIP3      H2            -34.0402666405       29.3499077139        1.7775303535  W2        12637           0.0000000000
     37912     12638  TIP3      OH2           -29.1219266405       30.4516377139      -14.1251696465  W2        12638           0.0000000000
     37913     12638  TIP3      H1            -29.5817266405       29.9674677139      -13.4393196465  W2        12638           0.0000000000
     37914     12638  TIP3      H2            -28.8670566405       29.7831777139      -14.7611196465  W2        12638           0.0000000000
     37915     12639  TIP3      OH2           -29.8329966405       28.3443477139       -1.7692096465  W2        12639           0.0000000000
     37916     12639  TIP3      H1            -30.4513866405       29.0190077139       -1.4887396465  W2        12639           0.0000000000
     37917     12639  TIP3      H2            -29.4888766405       28.6657377139       -2.6025896465  W2        12639           0.0000000000
     37918     12640  TIP3      OH2           -28.0508866405       28.6948177139      -15.8628496465  W2        12640           0.0000000000
     37919     12640  TIP3      H1            -28.2313866405       28.5399377139      -16.7900196465  W2        12640           0.0000000000
     37920     12640  TIP3      H2            -27.1008366405       28.8026877139      -15.8180596465  W2        12640           0.0000000000
     37921     12641  TIP3      OH2           -24.8131766405       30.8158777139        1.5082703535  W2        12641           0.0000000000
     37922     12641  TIP3      H1            -23.8600566405       30.8997877139        1.4808703535  W2        12641           0.0000000000
     37923     12641  TIP3      H2            -24.9737166405       30.1040577139        2.1277603535  W2        12641           0.0000000000
     37924     12642  TIP3      OH2           -18.6610566405       31.0492377139      -16.4170396465  W2        12642           0.0000000000
     37925     12642  TIP3      H1            -18.9345766405       30.6247877139      -17.2302096465  W2        12642           0.0000000000
     37926     12642  TIP3      H2            -18.6216466405       31.9806877139      -16.6339996465  W2        12642           0.0000000000
     37927     12643  TIP3      OH2           -29.4936266405       25.6994277139       -0.6868996465  W2        12643           0.0000000000
     37928     12643  TIP3      H1            -29.3435366405       24.9705577139       -1.2889296465  W2        12643           0.0000000000
     37929     12643  TIP3      H2            -29.4913866405       26.4765977139       -1.2456796465  W2        12643           0.0000000000
     37930     12644  TIP3      OH2           -29.0810566405       24.0690077139       -3.1941596465  W2        12644           0.0000000000
     37931     12644  TIP3      H1            -28.5453066405       24.5206777139       -3.8462296465  W2        12644           0.0000000000
     37932     12644  TIP3      H2            -29.9330966405       23.9609877139       -3.6167496465  W2        12644           0.0000000000
     37933     12645  TIP3      OH2           -27.4992166405       29.5086277139       -2.9546396465  W2        12645           0.0000000000
     37934     12645  TIP3      H1            -26.7487366405       29.3523777139       -3.5278596465  W2        12645           0.0000000000
     37935     12645  TIP3      H2            -27.8383866405       30.3602877139       -3.2300896465  W2        12645           0.0000000000
     37936     12646  TIP3      OH2           -23.0835966405       27.3238077139        2.0738903535  W2        12646           0.0000000000
     37937     12646  TIP3      H1            -22.8914666405       26.3927477139        1.9623403535  W2        12646           0.0000000000
     37938     12646  TIP3      H2            -22.2259666405       27.7487577139        2.0634303535  W2        12646           0.0000000000
     37939     12647  TIP3      OH2           -21.7668766405       30.1123277139        0.1511603535  W2        12647           0.0000000000
     37940     12647  TIP3      H1            -22.0483766405       30.8217877139       -0.4264596465  W2        12647           0.0000000000
     37941     12647  TIP3      H2            -20.8244466405       30.0396277139        0.0002803535  W2        12647           0.0000000000
     37942     12648  TIP3      OH2           -31.0149966405       26.8977777139        1.2246603535  W2        12648           0.0000000000
     37943     12648  TIP3      H1            -31.7820966405       26.3652577139        1.0144203535  W2        12648           0.0000000000
     37944     12648  TIP3      H2            -30.3360966405       26.5878177139        0.6252903535  W2        12648           0.0000000000
     37945     12649  TIP3      OH2           -28.2755066405       21.5255777139       -2.7627996465  W2        12649           0.0000000000
     37946     12649  TIP3      H1            -28.3735466405       22.4718977139       -2.8681796465  W2        12649           0.0000000000
     37947     12649  TIP3      H2            -29.0178866405       21.1529577139       -3.2384496465  W2        12649           0.0000000000
     37948     12650  TIP3      OH2           -27.0114566405       25.8471177139        0.8010403535  W2        12650           0.0000000000
     37949     12650  TIP3      H1            -27.2469166405       25.6277877139        1.7025303535  W2        12650           0.0000000000
     37950     12650  TIP3      H2            -27.7947666405       25.6402377139        0.2912903535  W2        12650           0.0000000000
     37951     12651  TIP3      OH2           -24.2957966405       24.9744677139       -0.1236096465  W2        12651           0.0000000000
     37952     12651  TIP3      H1            -25.2432566405       25.0064377139        0.0087203535  W2        12651           0.0000000000
     37953     12651  TIP3      H2            -23.9831266405       24.3491777139        0.5302103535  W2        12651           0.0000000000
     37954     12652  TIP3      OH2           -22.6616466405       23.6085777139        1.8815803535  W2        12652           0.0000000000
     37955     12652  TIP3      H1            -22.7584666405       22.6563077139        1.8757703535  W2        12652           0.0000000000
     37956     12652  TIP3      H2            -22.9833366405       23.8772577139        2.7421303535  W2        12652           0.0000000000
     37957     12653  TIP3      OH2           -32.8347166405       24.8181577139        0.9291303535  W2        12653           0.0000000000
     37958     12653  TIP3      H1            -32.6229766405       24.1117677139        0.3188803535  W2        12653           0.0000000000
     37959     12653  TIP3      H2            -32.9459666405       24.3807577139        1.7732503535  W2        12653           0.0000000000
     37960     12654  TIP3      OH2           -28.0536966405       20.8193177139       -0.0915196465  W2        12654           0.0000000000
     37961     12654  TIP3      H1            -27.3418566405       20.1795377139       -0.1056096465  W2        12654           0.0000000000
     37962     12654  TIP3      H2            -28.1546566405       21.0861477139       -1.0052096465  W2        12654           0.0000000000
     37963     12655  TIP3      OH2           -27.6999466405       22.5021577139        1.9621103535  W2        12655           0.0000000000
     37964     12655  TIP3      H1            -27.8317266405       22.0265377139        1.1419603535  W2        12655           0.0000000000
     37965     12655  TIP3      H2            -28.2992066405       23.2465177139        1.9068203535  W2        12655           0.0000000000
     37966     12656  TIP3      OH2           -28.1537166405       39.3851877139      -14.8614896465  W2        12656           0.0000000000
     37967     12656  TIP3      H1            -27.2206466405       39.5430577139      -14.7176496465  W2        12656           0.0000000000
     37968     12656  TIP3      H2            -28.4178366405       40.0604877139      -15.4863396465  W2        12656           0.0000000000
     37969     12657  TIP3      OH2           -34.5852266405       34.0215677139      -15.3786796465  W2        12657           0.0000000000
     37970     12657  TIP3      H1            -33.6713066405       34.1004577139      -15.1052896465  W2        12657           0.0000000000
     37971     12657  TIP3      H2            -34.5779166405       33.3345277139      -16.0451196465  W2        12657           0.0000000000
     37972     12658  TIP3      OH2           -35.9361666405       39.4144177139      -10.3012896465  W2        12658           0.0000000000
     37973     12658  TIP3      H1            -36.5834566405       38.9525877139      -10.8341696465  W2        12658           0.0000000000
     37974     12658  TIP3      H2            -35.5817066405       38.7427477139       -9.7186696465  W2        12658           0.0000000000
     37975     12659  TIP3      OH2           -35.0662466405       37.4951177139       -8.4966696465  W2        12659           0.0000000000
     37976     12659  TIP3      H1            -35.4005666405       36.6148477139       -8.3246496465  W2        12659           0.0000000000
     37977     12659  TIP3      H2            -34.8440066405       37.8406177139       -7.6321096465  W2        12659           0.0000000000
     37978     12660  TIP3      OH2           -17.5177666405       38.3047577139       -5.5161896465  W2        12660           0.0000000000
     37979     12660  TIP3      H1            -17.5390966405       38.4895977139       -4.5772496465  W2        12660           0.0000000000
     37980     12660  TIP3      H2            -16.8271466405       38.8731577139       -5.8570496465  W2        12660           0.0000000000
     37981     12661  TIP3      OH2           -17.9544766405       37.8718677139       -2.5942796465  W2        12661           0.0000000000
     37982     12661  TIP3      H1            -18.4416066405       37.1362777139       -2.9655396465  W2        12661           0.0000000000
     37983     12661  TIP3      H2            -17.4052066405       37.4782577139       -1.9163396465  W2        12661           0.0000000000
     37984     12662  TIP3      OH2           -19.5037466405       33.6616777139        2.0437503535  W2        12662           0.0000000000
     37985     12662  TIP3      H1            -20.3696366405       33.5566477139        2.4379803535  W2        12662           0.0000000000
     37986     12662  TIP3      H2            -19.1271566405       34.4200077139        2.4902203535  W2        12662           0.0000000000
     37987     12663  TIP3      OH2           -18.2027766405       31.9180477139      -12.4419996465  W2        12663           0.0000000000
     37988     12663  TIP3      H1            -17.3526366405       32.3391377139      -12.3148396465  W2        12663           0.0000000000
     37989     12663  TIP3      H2            -18.1972666405       31.1780577139      -11.8348596465  W2        12663           0.0000000000
     37990     12664  TIP3      OH2           -17.8082166405       29.9717877139      -10.6184296465  W2        12664           0.0000000000
     37991     12664  TIP3      H1            -18.5347566405       29.4920477139      -10.2206696465  W2        12664           0.0000000000
     37992     12664  TIP3      H2            -17.2268866405       30.1772577139       -9.8862696465  W2        12664           0.0000000000
     37993     12665  TIP3      OH2           -18.0490966405       32.7565377139       -5.6706696465  W2        12665           0.0000000000
     37994     12665  TIP3      H1            -17.2156766405       32.3785377139       -5.9513096465  W2        12665           0.0000000000
     37995     12665  TIP3      H2            -17.9370666405       33.6996577139       -5.7897596465  W2        12665           0.0000000000
     37996     12666  TIP3      OH2           -19.5628666405       35.6342877139       -3.3638296465  W2        12666           0.0000000000
     37997     12666  TIP3      H1            -20.2103366405       35.9594377139       -2.7383096465  W2        12666           0.0000000000
     37998     12666  TIP3      H2            -20.0804666405       35.1940577139       -4.0379996465  W2        12666           0.0000000000
     37999     12667  TIP3      OH2           -17.5399066405       29.8726377139      -14.2272996465  W2        12667           0.0000000000
     38000     12667  TIP3      H1            -18.0617966405       30.2290477139      -14.9462096465  W2        12667           0.0000000000
     38001     12667  TIP3      H2            -17.5729866405       30.5474177139      -13.5492096465  W2        12667           0.0000000000
     38002     12668  TIP3      OH2           -19.1910066405       27.1121977139      -15.6765896465  W2        12668           0.0000000000
     38003     12668  TIP3      H1            -19.0945666405       27.7788977139      -16.3566196465  W2        12668           0.0000000000
     38004     12668  TIP3      H2            -19.3310466405       26.2968277139      -16.1580396465  W2        12668           0.0000000000
     38005     12669  TIP3      OH2           -20.0215366405       28.4924377139      -10.0555596465  W2        12669           0.0000000000
     38006     12669  TIP3      H1            -20.1716566405       27.5472977139      -10.0757796465  W2        12669           0.0000000000
     38007     12669  TIP3      H2            -20.3750866405       28.7735777139       -9.2116496465  W2        12669           0.0000000000
     38008     12670  TIP3      OH2           -34.9862966405       30.5706577139       -6.0451796465  W2        12670           0.0000000000
     38009     12670  TIP3      H1            -34.8020066405       30.4888277139       -6.9808896465  W2        12670           0.0000000000
     38010     12670  TIP3      H2            -34.1370066405       30.4463577139       -5.6215396465  W2        12670           0.0000000000
     38011     12671  TIP3      OH2           -19.1652466405       30.4627677139       -0.4167296465  W2        12671           0.0000000000
     38012     12671  TIP3      H1            -18.5825166405       29.7279977139       -0.2250096465  W2        12671           0.0000000000
     38013     12671  TIP3      H2            -18.6013166405       31.2347977139       -0.3701496465  W2        12671           0.0000000000
     38014     12672  TIP3      OH2           -17.6685366405       28.3653477139        0.2678103535  W2        12672           0.0000000000
     38015     12672  TIP3      H1            -18.5318666405       27.9865577139        0.1022803535  W2        12672           0.0000000000
     38016     12672  TIP3      H2            -17.0641666405       27.6268277139        0.1933903535  W2        12672           0.0000000000
     38017     12673  TIP3      OH2           -19.9436266405       24.5201777139      -16.5590396465  W2        12673           0.0000000000
     38018     12673  TIP3      H1            -19.3330466405       24.1488577139      -15.9222196465  W2        12673           0.0000000000
     38019     12673  TIP3      H2            -20.7804766405       24.0988677139      -16.3630396465  W2        12673           0.0000000000
     38020     12674  TIP3      OH2           -20.3110566405       26.0750177139      -11.5930496465  W2        12674           0.0000000000
     38021     12674  TIP3      H1            -20.0313466405       25.1680577139      -11.4688796465  W2        12674           0.0000000000
     38022     12674  TIP3      H2            -19.5518866405       26.5091677139      -11.9821296465  W2        12674           0.0000000000
     38023     12675  TIP3      OH2           -19.6992266405       26.6567577139       -6.1571596465  W2        12675           0.0000000000
     38024     12675  TIP3      H1            -18.7664266405       26.8687477139       -6.1915596465  W2        12675           0.0000000000
     38025     12675  TIP3      H2            -19.9344766405       26.7579677139       -5.2348596465  W2        12675           0.0000000000
     38026     12676  TIP3      OH2           -19.6700366405       27.3932877139       -3.3812196465  W2        12676           0.0000000000
     38027     12676  TIP3      H1            -20.5129066405       27.6613277139       -3.0152396465  W2        12676           0.0000000000
     38028     12676  TIP3      H2            -19.2276066405       28.2154777139       -3.5921096465  W2        12676           0.0000000000
     38029     12677  TIP3      OH2           -35.3888166405       25.8411577139        0.0957003535  W2        12677           0.0000000000
     38030     12677  TIP3      H1            -34.4693266405       25.7189877139        0.3320103535  W2        12677           0.0000000000
     38031     12677  TIP3      H2            -35.8383666405       25.0911277139        0.4850503535  W2        12677           0.0000000000
     38032     12678  TIP3      OH2           -17.3868766405       21.3733077139        1.9722803535  W2        12678           0.0000000000
     38033     12678  TIP3      H1            -17.0371766405       20.7196577139        1.3667503535  W2        12678           0.0000000000
     38034     12678  TIP3      H2            -17.2399266405       22.2107177139        1.5325403535  W2        12678           0.0000000000
     38035     12679  TIP3      OH2           -19.6975766405       23.3379477139      -11.5448496465  W2        12679           0.0000000000
     38036     12679  TIP3      H1            -19.5150766405       22.8890977139      -10.7193496465  W2        12679           0.0000000000
     38037     12679  TIP3      H2            -20.2972866405       22.7533877139      -12.0083896465  W2        12679           0.0000000000
     38038     12680  TIP3      OH2           -34.1675666405       24.1533177139       -7.0130096465  W2        12680           0.0000000000
     38039     12680  TIP3      H1            -33.7224066405       23.3615677139       -6.7110396465  W2        12680           0.0000000000
     38040     12680  TIP3      H2            -33.7012666405       24.8698377139       -6.5824496465  W2        12680           0.0000000000
     38041     12681  TIP3      OH2           -35.8635366405       27.1526177139       -5.9439896465  W2        12681           0.0000000000
     38042     12681  TIP3      H1            -35.3715566405       26.9316677139       -6.7347896465  W2        12681           0.0000000000
     38043     12681  TIP3      H2            -35.5014466405       27.9929577139       -5.6630396465  W2        12681           0.0000000000
     38044     12682  TIP3      OH2           -17.8671566405       23.4827677139        0.3214103535  W2        12682           0.0000000000
     38045     12682  TIP3      H1            -18.7845866405       23.7534777139        0.2857603535  W2        12682           0.0000000000
     38046     12682  TIP3      H2            -17.7442166405       22.9476077139       -0.4626196465  W2        12682           0.0000000000
     38047     12683  TIP3      OH2           -17.8309566405       23.4057577139      -15.0168196465  W2        12683           0.0000000000
     38048     12683  TIP3      H1            -17.4186966405       22.6843277139      -15.4920196465  W2        12683           0.0000000000
     38049     12683  TIP3      H2            -17.1493066405       24.0752177139      -14.9583896465  W2        12683           0.0000000000
     38050     12684  TIP3      OH2           -35.5498866405       23.4105277139      -11.8897496465  W2        12684           0.0000000000
     38051     12684  TIP3      H1            -36.4750466405       23.6191877139      -12.0191996465  W2        12684           0.0000000000
     38052     12684  TIP3      H2            -35.0958966405       23.8946077139      -12.5795196465  W2        12684           0.0000000000
     38053     12685  TIP3      OH2           -20.7791666405       38.3946977139       -9.9440096465  W2        12685           0.0000000000
     38054     12685  TIP3      H1            -20.1268766405       38.0469077139      -10.5520996465  W2        12685           0.0000000000
     38055     12685  TIP3      H2            -20.2687866405       38.8830177139       -9.2980396465  W2        12685           0.0000000000
     38056     12686  TIP3      OH2           -35.5863466405       22.1484277139       -3.5454996465  W2        12686           0.0000000000
     38057     12686  TIP3      H1            -36.2512966405       21.9024577139       -2.9024096465  W2        12686           0.0000000000
     38058     12686  TIP3      H2            -36.0292166405       22.7704677139       -4.1226996465  W2        12686           0.0000000000
     38059     12687  TIP3      OH2           -33.3944166405       35.3238377139        0.5990803535  W2        12687           0.0000000000
     38060     12687  TIP3      H1            -34.2151666405       35.4984877139        0.1385503535  W2        12687           0.0000000000
     38061     12687  TIP3      H2            -33.6466366405       35.2503077139        1.5195203535  W2        12687           0.0000000000
     38062     12688  TIP3      OH2           -30.4401266405       36.2979577139       -3.1425196465  W2        12688           0.0000000000
     38063     12688  TIP3      H1            -30.8650166405       37.1078077139       -3.4250596465  W2        12688           0.0000000000
     38064     12688  TIP3      H2            -29.5358466405       36.3833677139       -3.4445396465  W2        12688           0.0000000000
     38065     12689  TIP3      OH2           -26.1289866405       37.6969577139       -0.1831496465  W2        12689           0.0000000000
     38066     12689  TIP3      H1            -25.9442366405       37.3635677139        0.6948803535  W2        12689           0.0000000000
     38067     12689  TIP3      H2            -25.2825366405       38.0068177139       -0.5052296465  W2        12689           0.0000000000
     38068     12690  TIP3      OH2           -23.7839466405       38.9828477139       -0.9390096465  W2        12690           0.0000000000
     38069     12690  TIP3      H1            -23.1070566405       38.3500777139       -1.1790896465  W2        12690           0.0000000000
     38070     12690  TIP3      H2            -23.4620666405       39.3838977139       -0.1316796465  W2        12690           0.0000000000
     38071     12691  TIP3      OH2           -18.8665666405       21.5723977139       -1.8595096465  W2        12691           0.0000000000
     38072     12691  TIP3      H1            -19.6792166405       21.8974277139       -2.2470396465  W2        12691           0.0000000000
     38073     12691  TIP3      H2            -18.6337166405       20.8122477139       -2.3925996465  W2        12691           0.0000000000
     38074     12692  TIP3      OH2           -33.0384566405       39.5543477139       -3.0949896465  W2        12692           0.0000000000
     38075     12692  TIP3      H1            -33.7588166405       39.9944477139       -3.5462196465  W2        12692           0.0000000000
     38076     12692  TIP3      H2            -33.4040566405       39.3038177139       -2.2465896465  W2        12692           0.0000000000
     38077     12693  TIP3      OH2           -30.5711966405       39.1547377139       -4.0652696465  W2        12693           0.0000000000
     38078     12693  TIP3      H1            -31.4359766405       39.2265877139       -3.6612596465  W2        12693           0.0000000000
     38079     12693  TIP3      H2            -30.6262966405       39.7014677139       -4.8490196465  W2        12693           0.0000000000
     38080     12694  TIP3      OH2           -25.8606366405       39.0426277139       -4.8896696465  W2        12694           0.0000000000
     38081     12694  TIP3      H1            -26.3172366405       39.5715977139       -5.5438296465  W2        12694           0.0000000000
     38082     12694  TIP3      H2            -25.6978366405       39.6457677139       -4.1644396465  W2        12694           0.0000000000
     38083     12695  TIP3      OH2           -23.5330066405       37.9205877139       -3.9446396465  W2        12695           0.0000000000
     38084     12695  TIP3      H1            -24.4376366405       38.0856077139       -4.2104296465  W2        12695           0.0000000000
     38085     12695  TIP3      H2            -23.1041466405       38.7738077139       -4.0102996465  W2        12695           0.0000000000
     38086     12696  TIP3      OH2           -20.9288166405       39.4904977139       -3.6498596465  W2        12696           0.0000000000
     38087     12696  TIP3      H1            -21.1106166405       40.4063877139       -3.8603696465  W2        12696           0.0000000000
     38088     12696  TIP3      H2            -20.7520366405       39.0802077139       -4.4963996465  W2        12696           0.0000000000
     38089     12697  TIP3      OH2           -33.6236466405       38.1775977139       -6.1848096465  W2        12697           0.0000000000
     38090     12697  TIP3      H1            -33.6420466405       37.7521077139       -5.3275796465  W2        12697           0.0000000000
     38091     12697  TIP3      H2            -32.8188566405       37.8590977139       -6.5935896465  W2        12697           0.0000000000
     38092     12698  TIP3      OH2           -31.4823366405       36.8874677139       -7.5298196465  W2        12698           0.0000000000
     38093     12698  TIP3      H1            -31.7012666405       35.9712077139       -7.3602196465  W2        12698           0.0000000000
     38094     12698  TIP3      H2            -30.6581166405       37.0275077139       -7.0636796465  W2        12698           0.0000000000
     38095     12699  TIP3      OH2           -28.9450866405       37.3573977139       -6.6810196465  W2        12699           0.0000000000
     38096     12699  TIP3      H1            -28.7325166405       36.4692977139       -6.9679296465  W2        12699           0.0000000000
     38097     12699  TIP3      H2            -28.8805766405       37.3231677139       -5.7266196465  W2        12699           0.0000000000
     38098     12700  TIP3      OH2           -25.4367166405       23.0214577139       -7.5366896465  W2        12700           0.0000000000
     38099     12700  TIP3      H1            -26.1110366405       22.3920177139       -7.2811096465  W2        12700           0.0000000000
     38100     12700  TIP3      H2            -24.8727966405       22.5373477139       -8.1398996465  W2        12700           0.0000000000
     38101     12701  TIP3      OH2           -20.2939966405       21.1288577139       -7.4239796465  W2        12701           0.0000000000
     38102     12701  TIP3      H1            -19.6902366405       21.6763977139       -7.9258796465  W2        12701           0.0000000000
     38103     12701  TIP3      H2            -21.1637966405       21.4478977139       -7.6645696465  W2        12701           0.0000000000
     38104     12702  TIP3      OH2           -18.5669566405       22.2677277139       -9.0908896465  W2        12702           0.0000000000
     38105     12702  TIP3      H1            -17.9552066405       21.7532977139       -9.6175296465  W2        12702           0.0000000000
     38106     12702  TIP3      H2            -18.1846166405       23.1449377139       -9.0674496465  W2        12702           0.0000000000
     38107     12703  TIP3      OH2           -33.1099666405       21.6554877139       -9.7146996465  W2        12703           0.0000000000
     38108     12703  TIP3      H1            -33.8869866405       21.4209777139      -10.2221096465  W2        12703           0.0000000000
     38109     12703  TIP3      H2            -32.5796066405       20.8586977139       -9.7058996465  W2        12703           0.0000000000
     38110     12704  TIP3      OH2           -34.2736266405       21.4532977139      -13.9110896465  W2        12704           0.0000000000
     38111     12704  TIP3      H1            -33.8345566405       22.0643477139      -14.5027396465  W2        12704           0.0000000000
     38112     12704  TIP3      H2            -34.9073866405       21.9917077139      -13.4370896465  W2        12704           0.0000000000
     38113     12705  TIP3      OH2           -28.5307066405       21.5821977139       -9.9013896465  W2        12705           0.0000000000
     38114     12705  TIP3      H1            -27.6563666405       21.9706277139       -9.9309596465  W2        12705           0.0000000000
     38115     12705  TIP3      H2            -28.6666266405       21.3669777139       -8.9786696465  W2        12705           0.0000000000
     38116     12706  TIP3      OH2           -22.9738666405       21.6121777139       -8.2522196465  W2        12706           0.0000000000
     38117     12706  TIP3      H1            -22.8977066405       21.7073377139       -9.2016196465  W2        12706           0.0000000000
     38118     12706  TIP3      H2            -23.2489466405       20.7044677139       -8.1233096465  W2        12706           0.0000000000
     38119     12707  TIP3      OH2           -21.6206066405       21.6379577139      -12.5597196465  W2        12707           0.0000000000
     38120     12707  TIP3      H1            -22.3234966405       22.2528777139      -12.7695796465  W2        12707           0.0000000000
     38121     12707  TIP3      H2            -22.0654666405       20.8006277139      -12.4286296465  W2        12707           0.0000000000
     38122     12708  TIP3      OH2           -34.3726766405       37.4015177139      -13.0135796465  W2        12708           0.0000000000
     38123     12708  TIP3      H1            -35.0576866405       37.3634077139      -13.6810696465  W2        12708           0.0000000000
     38124     12708  TIP3      H2            -34.3689566405       38.3142777139      -12.7253696465  W2        12708           0.0000000000
     38125     12709  TIP3      OH2           -32.4127166405       23.3694477139      -15.4686796465  W2        12709           0.0000000000
     38126     12709  TIP3      H1            -31.9213766405       22.7396877139      -15.9961296465  W2        12709           0.0000000000
     38127     12709  TIP3      H2            -31.7890866405       23.6653877139      -14.8055596465  W2        12709           0.0000000000
     38128     12710  TIP3      OH2           -27.3867066405       23.6625977139      -13.0116296465  W2        12710           0.0000000000
     38129     12710  TIP3      H1            -27.2085766405       23.0159177139      -12.3287696465  W2        12710           0.0000000000
     38130     12710  TIP3      H2            -27.4400866405       24.4963677139      -12.5445196465  W2        12710           0.0000000000
     38131     12711  TIP3      OH2           -25.5083266405       38.6110077139      -14.6159596465  W2        12711           0.0000000000
     38132     12711  TIP3      H1            -24.6423066405       38.9777477139      -14.7941396465  W2        12711           0.0000000000
     38133     12711  TIP3      H2            -25.7550466405       38.1718077139      -15.4298796465  W2        12711           0.0000000000
     38134     12712  TIP3      OH2           -18.7993666405       38.1740377139      -11.9368496465  W2        12712           0.0000000000
     38135     12712  TIP3      H1            -18.9936566405       37.4262477139      -12.5018896465  W2        12712           0.0000000000
     38136     12712  TIP3      H2            -18.8383566405       38.9320477139      -12.5200596465  W2        12712           0.0000000000
     38137     12713  TIP3      OH2           -33.1521666405       22.1696777139       -0.1970796465  W2        12713           0.0000000000
     38138     12713  TIP3      H1            -33.5183466405       21.4039377139        0.2453903535  W2        12713           0.0000000000
     38139     12713  TIP3      H2            -32.2393166405       22.1986977139        0.0894303535  W2        12713           0.0000000000
     38140     12714  TIP3      OH2           -31.1790866405       21.5201177139        1.3386303535  W2        12714           0.0000000000
     38141     12714  TIP3      H1            -30.2807266405       21.2461377139        1.1539703535  W2        12714           0.0000000000
     38142     12714  TIP3      H2            -31.5657766405       20.7777177139        1.8028903535  W2        12714           0.0000000000
     38143     12715  TIP3      OH2           -32.5545566405       38.3215977139      -15.9883696465  W2        12715           0.0000000000
     38144     12715  TIP3      H1            -32.8220966405       38.6078877139      -15.1150596465  W2        12715           0.0000000000
     38145     12715  TIP3      H2            -31.7832966405       37.7755177139      -15.8361196465  W2        12715           0.0000000000
     38146     12716  TIP3      OH2           -22.7578566405       20.8526477139        1.5209103535  W2        12716           0.0000000000
     38147     12716  TIP3      H1            -22.6811366405       20.4267177139        2.3746803535  W2        12716           0.0000000000
     38148     12716  TIP3      H2            -21.8641966405       20.8661177139        1.1782603535  W2        12716           0.0000000000
     38149     12717  TIP3      OH2           -19.5817466405       36.9252777139        0.2133303535  W2        12717           0.0000000000
     38150     12717  TIP3      H1            -20.3635566405       36.7390777139       -0.3066096465  W2        12717           0.0000000000
     38151     12717  TIP3      H2            -19.6537566405       37.8547077139        0.4305803535  W2        12717           0.0000000000
     38152     12718  TIP3      OH2            -5.1757066405       30.8117177139       -9.7559496465  W2        12718           0.0000000000
     38153     12718  TIP3      H1             -5.0865966405       31.7555377139       -9.8882396465  W2        12718           0.0000000000
     38154     12718  TIP3      H2             -5.8139466405       30.5363577139      -10.4140096465  W2        12718           0.0000000000
     38155     12719  TIP3      OH2            -6.2425766405       30.0667877139       -6.3371296465  W2        12719           0.0000000000
     38156     12719  TIP3      H1             -6.2808266405       29.4204177139       -5.6321696465  W2        12719           0.0000000000
     38157     12719  TIP3      H2             -6.5649266405       29.6002277139       -7.1082596465  W2        12719           0.0000000000
     38158     12720  TIP3      OH2           -13.8740766405       29.6809977139       -4.7441396465  W2        12720           0.0000000000
     38159     12720  TIP3      H1            -13.8328666405       29.0553277139       -4.0208996465  W2        12720           0.0000000000
     38160     12720  TIP3      H2            -13.1713066405       30.3048577139       -4.5620996465  W2        12720           0.0000000000
     38161     12721  TIP3      OH2            -2.5365566405       33.0058277139       -8.0356196465  W2        12721           0.0000000000
     38162     12721  TIP3      H1             -2.9772866405       32.2854277139       -7.5850596465  W2        12721           0.0000000000
     38163     12721  TIP3      H2             -2.5495866405       33.7265477139       -7.4058496465  W2        12721           0.0000000000
     38164     12722  TIP3      OH2           -12.9507666405       34.1308877139       -6.2092296465  W2        12722           0.0000000000
     38165     12722  TIP3      H1            -13.3202466405       33.3289377139       -6.5787996465  W2        12722           0.0000000000
     38166     12722  TIP3      H2            -12.0096566405       33.9623777139       -6.1628896465  W2        12722           0.0000000000
     38167     12723  TIP3      OH2           -16.3407166405       27.7911477139      -10.8163496465  W2        12723           0.0000000000
     38168     12723  TIP3      H1            -16.7883766405       28.6370177139      -10.8346996465  W2        12723           0.0000000000
     38169     12723  TIP3      H2            -16.9015966405       27.2115677139      -11.3318396465  W2        12723           0.0000000000
     38170     12724  TIP3      OH2           -15.6301066405       29.9531077139       -8.6905496465  W2        12724           0.0000000000
     38171     12724  TIP3      H1            -15.4167566405       29.1832677139       -8.1632496465  W2        12724           0.0000000000
     38172     12724  TIP3      H2            -14.8923466405       30.0427777139       -9.2937896465  W2        12724           0.0000000000
     38173     12725  TIP3      OH2            -5.4250066405       38.1099977139       -7.8235796465  W2        12725           0.0000000000
     38174     12725  TIP3      H1             -4.8053666405       37.4334677139       -8.0966596465  W2        12725           0.0000000000
     38175     12725  TIP3      H2             -5.6332666405       37.8920777139       -6.9150896465  W2        12725           0.0000000000
     38176     12726  TIP3      OH2            -7.8531366405       32.4989277139       -5.9310296465  W2        12726           0.0000000000
     38177     12726  TIP3      H1             -7.5493466405       31.8130677139       -6.5256196465  W2        12726           0.0000000000
     38178     12726  TIP3      H2             -7.1317366405       32.6177977139       -5.3132296465  W2        12726           0.0000000000
     38179     12727  TIP3      OH2             0.8098433595       24.1004577139       -5.0704096465  W2        12727           0.0000000000
     38180     12727  TIP3      H1              0.8590633595       24.7105777139       -4.3344996465  W2        12727           0.0000000000
     38181     12727  TIP3      H2              1.2353533595       24.5615477139       -5.7932996465  W2        12727           0.0000000000
     38182     12728  TIP3      OH2            -4.7124366405       26.8931677139       -5.6035496465  W2        12728           0.0000000000
     38183     12728  TIP3      H1             -4.5698466405       25.9468677139       -5.5833896465  W2        12728           0.0000000000
     38184     12728  TIP3      H2             -4.8185366405       27.1001477139       -6.5320596465  W2        12728           0.0000000000
     38185     12729  TIP3      OH2           -11.5576066405       24.9948077139       -8.3310696465  W2        12729           0.0000000000
     38186     12729  TIP3      H1            -11.5144966405       25.8546577139       -8.7494396465  W2        12729           0.0000000000
     38187     12729  TIP3      H2            -12.0151966405       24.4422777139       -8.9647496465  W2        12729           0.0000000000
     38188     12730  TIP3      OH2            -3.8353366405       25.1253677139       -9.9302396465  W2        12730           0.0000000000
     38189     12730  TIP3      H1             -3.1889066405       24.7966877139       -9.3054796465  W2        12730           0.0000000000
     38190     12730  TIP3      H2             -3.3253966405       25.6432677139      -10.5530996465  W2        12730           0.0000000000
     38191     12731  TIP3      OH2           -14.9374566405       27.3913877139       -7.5689296465  W2        12731           0.0000000000
     38192     12731  TIP3      H1            -14.2837966405       26.8415577139       -7.1369196465  W2        12731           0.0000000000
     38193     12731  TIP3      H2            -14.9135266405       27.1172877139       -8.4857296465  W2        12731           0.0000000000
     38194     12732  TIP3      OH2            -9.7810066405       28.9415177139       -8.3537796465  W2        12732           0.0000000000
     38195     12732  TIP3      H1             -9.1649066405       28.4150577139       -7.8443796465  W2        12732           0.0000000000
     38196     12732  TIP3      H2            -10.3671266405       28.3013877139       -8.7574196465  W2        12732           0.0000000000
     38197     12733  TIP3      OH2             1.2013033595       25.5783777139       -2.8344296465  W2        12733           0.0000000000
     38198     12733  TIP3      H1              0.5127633595       26.2364477139       -2.9297696465  W2        12733           0.0000000000
     38199     12733  TIP3      H2              1.2167633595       25.3811677139       -1.8978896465  W2        12733           0.0000000000
     38200     12734  TIP3      OH2           -12.7474166405       23.9126477139       -4.2569896465  W2        12734           0.0000000000
     38201     12734  TIP3      H1            -12.9662466405       24.4427077139       -5.0233896465  W2        12734           0.0000000000
     38202     12734  TIP3      H2            -13.4153266405       24.1391977139       -3.6098496465  W2        12734           0.0000000000
     38203     12735  TIP3      OH2            -5.3784366405       33.4127577139      -10.7130796465  W2        12735           0.0000000000
     38204     12735  TIP3      H1             -5.6739266405       33.0899877139      -11.5643896465  W2        12735           0.0000000000
     38205     12735  TIP3      H2             -5.7026566405       34.3124277139      -10.6718196465  W2        12735           0.0000000000
     38206     12736  TIP3      OH2           -10.1782766405       31.5882177139       -3.9696196465  W2        12736           0.0000000000
     38207     12736  TIP3      H1            -10.9183666405       32.1863677139       -3.8660996465  W2        12736           0.0000000000
     38208     12736  TIP3      H2             -9.4643266405       32.1421777139       -4.2852596465  W2        12736           0.0000000000
     38209     12737  TIP3      OH2            -2.0714966405       24.4162977139       -7.9496496465  W2        12737           0.0000000000
     38210     12737  TIP3      H1             -2.2866966405       23.6506377139       -7.4170496465  W2        12737           0.0000000000
     38211     12737  TIP3      H2             -1.4157566405       24.8887577139       -7.4367996465  W2        12737           0.0000000000
     38212     12738  TIP3      OH2           -13.1536866405       25.8048277139       -6.3047696465  W2        12738           0.0000000000
     38213     12738  TIP3      H1            -12.5400566405       26.4375877139       -5.9315296465  W2        12738           0.0000000000
     38214     12738  TIP3      H2            -12.6416166405       25.3323277139       -6.9610796465  W2        12738           0.0000000000
     38215     12739  TIP3      OH2           -11.7708466405       33.5525177139       -3.1824696465  W2        12739           0.0000000000
     38216     12739  TIP3      H1            -11.7760866405       34.4318677139       -3.5605396465  W2        12739           0.0000000000
     38217     12739  TIP3      H2            -12.6244366405       33.4689277139       -2.7574796465  W2        12739           0.0000000000
     38218     12740  TIP3      OH2           -15.6497566405       33.2233077139      -12.4005396465  W2        12740           0.0000000000
     38219     12740  TIP3      H1            -15.9216666405       33.4524077139      -13.2892496465  W2        12740           0.0000000000
     38220     12740  TIP3      H2            -15.6041866405       34.0611877139      -11.9400096465  W2        12740           0.0000000000
     38221     12741  TIP3      OH2            -2.0247866405       34.8448977139       -5.6876896465  W2        12741           0.0000000000
     38222     12741  TIP3      H1             -2.9664166405       34.9032877139       -5.5259996465  W2        12741           0.0000000000
     38223     12741  TIP3      H2             -1.7481766405       35.7509477139       -5.8247196465  W2        12741           0.0000000000
     38224     12742  TIP3      OH2            -1.7240866405       23.1314277139       -4.2702996465  W2        12742           0.0000000000
     38225     12742  TIP3      H1             -2.4601666405       23.7421377139       -4.3081696465  W2        12742           0.0000000000
     38226     12742  TIP3      H2             -1.0406866405       23.5463277139       -4.7966596465  W2        12742           0.0000000000
     38227     12743  TIP3      OH2            -8.7209466405       21.2181577139       -6.8044996465  W2        12743           0.0000000000
     38228     12743  TIP3      H1             -8.8385266405       20.2697577139       -6.8586696465  W2        12743           0.0000000000
     38229     12743  TIP3      H2             -9.5759366405       21.5507677139       -6.5313896465  W2        12743           0.0000000000
     38230     12744  TIP3      OH2            -3.7726666405       36.6262477139       -9.0625296465  W2        12744           0.0000000000
     38231     12744  TIP3      H1             -3.3474366405       35.9190377139       -9.5475696465  W2        12744           0.0000000000
     38232     12744  TIP3      H2             -3.4556666405       37.4275177139       -9.4793096465  W2        12744           0.0000000000
     38233     12745  TIP3      OH2            -2.6130166405       34.5270977139      -10.5538696465  W2        12745           0.0000000000
     38234     12745  TIP3      H1             -2.8705366405       33.8371077139      -11.1652796465  W2        12745           0.0000000000
     38235     12745  TIP3      H2             -2.5419366405       34.0842177139       -9.7082796465  W2        12745           0.0000000000
     38236     12746  TIP3      OH2            -0.9269966405       33.0937677139       -2.0765196465  W2        12746           0.0000000000
     38237     12746  TIP3      H1             -0.7873666405       32.5020177139       -2.8158196465  W2        12746           0.0000000000
     38238     12746  TIP3      H2             -0.7597166405       33.9663577139       -2.4326396465  W2        12746           0.0000000000
     38239     12747  TIP3      OH2            -6.4544566405       30.0557177139      -12.3039196465  W2        12747           0.0000000000
     38240     12747  TIP3      H1             -7.1659066405       30.5906877139      -12.6558696465  W2        12747           0.0000000000
     38241     12747  TIP3      H2             -5.7634966405       30.1109277139      -12.9640296465  W2        12747           0.0000000000
     38242     12748  TIP3      OH2            -6.4005366405       28.5131477139      -15.2654196465  W2        12748           0.0000000000
     38243     12748  TIP3      H1             -5.6995466405       28.5358377139      -14.6140196465  W2        12748           0.0000000000
     38244     12748  TIP3      H2             -6.0982466405       27.8851177139      -15.9214896465  W2        12748           0.0000000000
     38245     12749  TIP3      OH2             0.9149333595       29.4335677139       -4.0104796465  W2        12749           0.0000000000
     38246     12749  TIP3      H1              0.2623433595       30.1281277139       -3.9213896465  W2        12749           0.0000000000
     38247     12749  TIP3      H2              1.3799633595       29.6436577139       -4.8203196465  W2        12749           0.0000000000
     38248     12750  TIP3      OH2            -3.0486866405       30.2650477139      -11.3523296465  W2        12750           0.0000000000
     38249     12750  TIP3      H1             -3.7805866405       30.4934177139      -10.7792696465  W2        12750           0.0000000000
     38250     12750  TIP3      H2             -2.6014666405       29.5513177139      -10.8975796465  W2        12750           0.0000000000
     38251     12751  TIP3      OH2            -3.1513366405       28.4393077139       -2.2846296465  W2        12751           0.0000000000
     38252     12751  TIP3      H1             -3.0714266405       29.2027477139       -1.7127796465  W2        12751           0.0000000000
     38253     12751  TIP3      H2             -3.7525666405       28.7185477139       -2.9751196465  W2        12751           0.0000000000
     38254     12752  TIP3      OH2           -11.4033166405       30.8956677139       -9.4698296465  W2        12752           0.0000000000
     38255     12752  TIP3      H1            -11.7337966405       30.5250077139      -10.2881296465  W2        12752           0.0000000000
     38256     12752  TIP3      H2            -10.8149066405       30.2250677139       -9.1229996465  W2        12752           0.0000000000
     38257     12753  TIP3      OH2           -10.0365666405       34.3237277139       -6.7886096465  W2        12753           0.0000000000
     38258     12753  TIP3      H1            -10.1314366405       33.7450377139       -7.5451496465  W2        12753           0.0000000000
     38259     12753  TIP3      H2             -9.3072066405       33.9522977139       -6.2923296465  W2        12753           0.0000000000
     38260     12754  TIP3      OH2           -11.0367666405       29.6642277139       -5.8363296465  W2        12754           0.0000000000
     38261     12754  TIP3      H1            -10.4715166405       29.7856477139       -6.5992096465  W2        12754           0.0000000000
     38262     12754  TIP3      H2            -10.7178766405       30.3017277139       -5.1974796465  W2        12754           0.0000000000
     38263     12755  TIP3      OH2            -4.7275466405       35.1674177139       -5.1022796465  W2        12755           0.0000000000
     38264     12755  TIP3      H1             -4.9678866405       35.8297277139       -4.4543596465  W2        12755           0.0000000000
     38265     12755  TIP3      H2             -4.9257266405       34.3329377139       -4.6773196465  W2        12755           0.0000000000
     38266     12756  TIP3      OH2           -10.1566966405       34.0634977139       -1.1191396465  W2        12756           0.0000000000
     38267     12756  TIP3      H1            -10.4679466405       34.8458177139       -0.6638196465  W2        12756           0.0000000000
     38268     12756  TIP3      H2            -10.8066766405       33.9104077139       -1.8049396465  W2        12756           0.0000000000
     38269     12757  TIP3      OH2            -4.1777366405       29.4273377139      -13.6672096465  W2        12757           0.0000000000
     38270     12757  TIP3      H1             -3.5981866405       29.5773677139      -12.9203196465  W2        12757           0.0000000000
     38271     12757  TIP3      H2             -3.7637366405       29.8980777139      -14.3905696465  W2        12757           0.0000000000
     38272     12758  TIP3      OH2           -13.2367066405       30.2616077139       -1.8905696465  W2        12758           0.0000000000
     38273     12758  TIP3      H1            -13.1663866405       30.9122877139       -1.1920696465  W2        12758           0.0000000000
     38274     12758  TIP3      H2            -14.1274866405       30.3643577139       -2.2254796465  W2        12758           0.0000000000
     38275     12759  TIP3      OH2            -6.4512466405       36.1641877139      -10.2318996465  W2        12759           0.0000000000
     38276     12759  TIP3      H1             -5.9774866405       36.4598177139       -9.4544796465  W2        12759           0.0000000000
     38277     12759  TIP3      H2             -7.0143166405       36.9023477139      -10.4649396465  W2        12759           0.0000000000
     38278     12760  TIP3      OH2           -11.9171066405       36.1349977139       -0.3557596465  W2        12760           0.0000000000
     38279     12760  TIP3      H1            -11.9095766405       35.9989677139       -1.3032096465  W2        12760           0.0000000000
     38280     12760  TIP3      H2            -12.8330666405       36.0178077139       -0.1037596465  W2        12760           0.0000000000
     38281     12761  TIP3      OH2            -0.4788966405       21.1773777139      -13.8542396465  W2        12761           0.0000000000
     38282     12761  TIP3      H1             -1.3788266405       21.3162777139      -13.5591796465  W2        12761           0.0000000000
     38283     12761  TIP3      H2             -0.2270566405       22.0088377139      -14.2560696465  W2        12761           0.0000000000
     38284     12762  TIP3      OH2           -12.4130466405       29.9650977139      -11.8805496465  W2        12762           0.0000000000
     38285     12762  TIP3      H1            -12.7049166405       30.7332677139      -12.3714196465  W2        12762           0.0000000000
     38286     12762  TIP3      H2            -13.0875266405       29.3057177139      -12.0434096465  W2        12762           0.0000000000
     38287     12763  TIP3      OH2             0.7102433595       35.5436177139      -15.4778496465  W2        12763           0.0000000000
     38288     12763  TIP3      H1              0.7835933595       36.4826377139      -15.3073196465  W2        12763           0.0000000000
     38289     12763  TIP3      H2              1.6157533595       35.2384777139      -15.5341196465  W2        12763           0.0000000000
     38290     12764  TIP3      OH2           -16.3200366405       32.3280177139       -3.0655696465  W2        12764           0.0000000000
     38291     12764  TIP3      H1            -16.8211966405       32.2999577139       -3.8805996465  W2        12764           0.0000000000
     38292     12764  TIP3      H2            -16.3146666405       31.4223377139       -2.7558396465  W2        12764           0.0000000000
     38293     12765  TIP3      OH2           -16.5697666405       35.1083977139       -6.1815496465  W2        12765           0.0000000000
     38294     12765  TIP3      H1            -15.6237066405       34.9640977139       -6.2005996465  W2        12765           0.0000000000
     38295     12765  TIP3      H2            -16.6821366405       35.8926777139       -5.6444296465  W2        12765           0.0000000000
     38296     12766  TIP3      OH2             1.6280833595       35.7743677139       -0.4991796465  W2        12766           0.0000000000
     38297     12766  TIP3      H1              1.5787633595       34.8191777139       -0.5364196465  W2        12766           0.0000000000
     38298     12766  TIP3      H2              0.8013133595       36.0418977139       -0.0977996465  W2        12766           0.0000000000
     38299     12767  TIP3      OH2            -7.3935166405       35.3482877139       -1.6230396465  W2        12767           0.0000000000
     38300     12767  TIP3      H1             -7.3060566405       36.1747477139       -1.1481296465  W2        12767           0.0000000000
     38301     12767  TIP3      H2             -8.2570066405       35.0186677139       -1.3741096465  W2        12767           0.0000000000
     38302     12768  TIP3      OH2            -6.9789366405       39.1206577139      -11.8169796465  W2        12768           0.0000000000
     38303     12768  TIP3      H1             -7.0543366405       38.9993777139      -12.7634596465  W2        12768           0.0000000000
     38304     12768  TIP3      H2             -6.9460666405       40.0699277139      -11.6985196465  W2        12768           0.0000000000
     38305     12769  TIP3      OH2           -13.3255566405       37.9093577139      -10.0360796465  W2        12769           0.0000000000
     38306     12769  TIP3      H1            -13.1735166405       37.5613977139       -9.1574296465  W2        12769           0.0000000000
     38307     12769  TIP3      H2            -14.1765166405       37.5530877139      -10.2913596465  W2        12769           0.0000000000
     38308     12770  TIP3      OH2            -3.8773366405       38.2746777139      -14.8147396465  W2        12770           0.0000000000
     38309     12770  TIP3      H1             -3.5024966405       37.5302877139      -15.2854796465  W2        12770           0.0000000000
     38310     12770  TIP3      H2             -3.8729666405       38.0047377139      -13.8964096465  W2        12770           0.0000000000
     38311     12771  TIP3      OH2            -4.2085266405       38.2003877139      -12.0655196465  W2        12771           0.0000000000
     38312     12771  TIP3      H1             -5.1435466405       38.3005777139      -11.8868196465  W2        12771           0.0000000000
     38313     12771  TIP3      H2             -3.9283366405       37.4909877139      -11.4871996465  W2        12771           0.0000000000
     38314     12772  TIP3      OH2            -1.2199366405       27.2676177139       -0.0189596465  W2        12772           0.0000000000
     38315     12772  TIP3      H1             -1.6272566405       27.7481777139       -0.7396296465  W2        12772           0.0000000000
     38316     12772  TIP3      H2             -1.1793666405       26.3622177139       -0.3268796465  W2        12772           0.0000000000
     38317     12773  TIP3      OH2           -14.0709866405       33.6515577139       -2.0222896465  W2        12773           0.0000000000
     38318     12773  TIP3      H1            -13.8548566405       33.2901177139       -1.1627096465  W2        12773           0.0000000000
     38319     12773  TIP3      H2            -14.9265166405       33.2769377139       -2.2319396465  W2        12773           0.0000000000
     38320     12774  TIP3      OH2           -11.4521866405       22.1216077139       -6.0268696465  W2        12774           0.0000000000
     38321     12774  TIP3      H1            -12.3138166405       22.0344277139       -6.4345796465  W2        12774           0.0000000000
     38322     12774  TIP3      H2            -11.4746166405       22.9776177139       -5.5991096465  W2        12774           0.0000000000
     38323     12775  TIP3      OH2            -6.7894066405       21.8436477139       -2.6521696465  W2        12775           0.0000000000
     38324     12775  TIP3      H1             -6.3690966405       21.4283577139       -1.8991096465  W2        12775           0.0000000000
     38325     12775  TIP3      H2             -7.7224466405       21.6649777139       -2.5349696465  W2        12775           0.0000000000
     38326     12776  TIP3      OH2            -3.4629166405       25.5991677139       -1.7987196465  W2        12776           0.0000000000
     38327     12776  TIP3      H1             -3.9769666405       25.4733877139       -1.0011196465  W2        12776           0.0000000000
     38328     12776  TIP3      H2             -3.6184466405       26.5114777139       -2.0430996465  W2        12776           0.0000000000
     38329     12777  TIP3      OH2            -2.7004266405       30.4601677139      -16.0374196465  W2        12777           0.0000000000
     38330     12777  TIP3      H1             -2.6583466405       30.2375577139      -16.9674196465  W2        12777           0.0000000000
     38331     12777  TIP3      H2             -1.8512166405       30.8588777139      -15.8474296465  W2        12777           0.0000000000
     38332     12778  TIP3      OH2            -7.1276766405       24.3359877139      -15.3670896465  W2        12778           0.0000000000
     38333     12778  TIP3      H1             -7.3811966405       24.3551477139      -14.4442796465  W2        12778           0.0000000000
     38334     12778  TIP3      H2             -7.3844666405       23.4645277139      -15.6684696465  W2        12778           0.0000000000
     38335     12779  TIP3      OH2           -11.3611766405       27.0870577139       -4.9318496465  W2        12779           0.0000000000
     38336     12779  TIP3      H1            -12.0029666405       27.0467877139       -4.2228396465  W2        12779           0.0000000000
     38337     12779  TIP3      H2            -11.3239766405       28.0135277139       -5.1695496465  W2        12779           0.0000000000
     38338     12780  TIP3      OH2           -11.3642666405       27.3080677139      -10.0198496465  W2        12780           0.0000000000
     38339     12780  TIP3      H1            -12.2569766405       26.9676777139      -10.0784696465  W2        12780           0.0000000000
     38340     12780  TIP3      H2            -10.9136066405       26.9311577139      -10.7755296465  W2        12780           0.0000000000
     38341     12781  TIP3      OH2            -5.8287166405       27.7240977139      -11.2027696465  W2        12781           0.0000000000
     38342     12781  TIP3      H1             -6.2376866405       28.5389577139      -11.4942896465  W2        12781           0.0000000000
     38343     12781  TIP3      H2             -5.1080966405       27.5841077139      -11.8170596465  W2        12781           0.0000000000
     38344     12782  TIP3      OH2            -6.7265566405       27.8997377139        0.2853003535  W2        12782           0.0000000000
     38345     12782  TIP3      H1             -7.2891766405       27.1948977139        0.6060803535  W2        12782           0.0000000000
     38346     12782  TIP3      H2             -5.9002166405       27.7789277139        0.7530603535  W2        12782           0.0000000000
     38347     12783  TIP3      OH2            -4.8239466405       27.1701377139       -8.3887996465  W2        12783           0.0000000000
     38348     12783  TIP3      H1             -5.0194966405       27.7758177139       -9.1037396465  W2        12783           0.0000000000
     38349     12783  TIP3      H2             -4.6426866405       26.3366577139       -8.8231696465  W2        12783           0.0000000000
     38350     12784  TIP3      OH2           -13.6111266405       27.4074077139       -3.0646496465  W2        12784           0.0000000000
     38351     12784  TIP3      H1            -13.6491866405       27.8075677139       -2.1959396465  W2        12784           0.0000000000
     38352     12784  TIP3      H2            -14.1020166405       26.5906477139       -2.9743596465  W2        12784           0.0000000000
     38353     12785  TIP3      OH2           -10.2453866405       24.7816377139      -16.2660496465  W2        12785           0.0000000000
     38354     12785  TIP3      H1            -10.6763166405       24.3366477139      -15.5363096465  W2        12785           0.0000000000
     38355     12785  TIP3      H2            -10.9635166405       25.1532677139      -16.7782996465  W2        12785           0.0000000000
     38356     12786  TIP3      OH2           -17.0030466405       24.5235877139       -9.2141796465  W2        12786           0.0000000000
     38357     12786  TIP3      H1            -16.3722766405       24.4947977139       -8.4947896465  W2        12786           0.0000000000
     38358     12786  TIP3      H2            -16.5536166405       24.0984577139       -9.9445896465  W2        12786           0.0000000000
     38359     12787  TIP3      OH2           -15.7288366405       25.2697877139      -13.7901396465  W2        12787           0.0000000000
     38360     12787  TIP3      H1            -15.2546666405       25.8607777139      -14.3750496465  W2        12787           0.0000000000
     38361     12787  TIP3      H2            -16.4461966405       25.8000777139      -13.4431296465  W2        12787           0.0000000000
     38362     12788  TIP3      OH2            -5.5600266405       28.8082677139       -3.7175596465  W2        12788           0.0000000000
     38363     12788  TIP3      H1             -5.2365466405       28.1772377139       -4.3605096465  W2        12788           0.0000000000
     38364     12788  TIP3      H2             -6.0000966405       28.2734877139       -3.0568196465  W2        12788           0.0000000000
     38365     12789  TIP3      OH2            -8.7827366405       24.7358177139       -8.9334396465  W2        12789           0.0000000000
     38366     12789  TIP3      H1             -9.6936266405       24.7924977139       -8.6448396465  W2        12789           0.0000000000
     38367     12789  TIP3      H2             -8.2774466405       24.6753677139       -8.1227196465  W2        12789           0.0000000000
     38368     12790  TIP3      OH2           -13.9543966405       26.3644477139      -10.1066796465  W2        12790           0.0000000000
     38369     12790  TIP3      H1            -14.8435966405       26.4639977139      -10.4467196465  W2        12790           0.0000000000
     38370     12790  TIP3      H2            -13.6579066405       25.5227477139      -10.4528896465  W2        12790           0.0000000000
     38371     12791  TIP3      OH2           -10.3012166405       26.3647077139      -12.4502196465  W2        12791           0.0000000000
     38372     12791  TIP3      H1             -9.3696666405       26.4937077139      -12.2719096465  W2        12791           0.0000000000
     38373     12791  TIP3      H2            -10.5161866405       27.0341377139      -13.0997496465  W2        12791           0.0000000000
     38374     12792  TIP3      OH2            -4.3775466405       23.9704477139       -5.6692596465  W2        12792           0.0000000000
     38375     12792  TIP3      H1             -5.0543866405       24.1017577139       -5.0052896465  W2        12792           0.0000000000
     38376     12792  TIP3      H2             -4.8630566405       23.8153977139       -6.4794896465  W2        12792           0.0000000000
     38377     12793  TIP3      OH2           -11.6271966405       27.5589277139      -14.8836096465  W2        12793           0.0000000000
     38378     12793  TIP3      H1            -12.1696866405       27.1793077139      -15.5748496465  W2        12793           0.0000000000
     38379     12793  TIP3      H2            -10.7937066405       27.7533977139      -15.3121996465  W2        12793           0.0000000000
     38380     12794  TIP3      OH2            -1.0900366405       39.6419877139        0.6075003535  W2        12794           0.0000000000
     38381     12794  TIP3      H1             -0.8901666405       40.0661777139       -0.2269696465  W2        12794           0.0000000000
     38382     12794  TIP3      H2             -0.4346666405       39.9858077139        1.2145403535  W2        12794           0.0000000000
     38383     12795  TIP3      OH2           -13.4920566405       32.1161177139        0.2155503535  W2        12795           0.0000000000
     38384     12795  TIP3      H1            -12.7598166405       32.3707077139        0.7770003535  W2        12795           0.0000000000
     38385     12795  TIP3      H2            -14.2721866405       32.3206577139        0.7310903535  W2        12795           0.0000000000
     38386     12796  TIP3      OH2            -7.4627666405       27.5231177139       -7.0464796465  W2        12796           0.0000000000
     38387     12796  TIP3      H1             -6.8984266405       26.9767777139       -7.5935196465  W2        12796           0.0000000000
     38388     12796  TIP3      H2             -7.6104266405       27.0013077139       -6.2577196465  W2        12796           0.0000000000
     38389     12797  TIP3      OH2           -12.4607966405       23.6597277139      -10.6279996465  W2        12797           0.0000000000
     38390     12797  TIP3      H1            -12.7778466405       22.7572577139      -10.6634596465  W2        12797           0.0000000000
     38391     12797  TIP3      H2            -11.6793866405       23.6614677139      -11.1808396465  W2        12797           0.0000000000
     38392     12798  TIP3      OH2            -8.8361766405       25.9117277139       -4.6324396465  W2        12798           0.0000000000
     38393     12798  TIP3      H1             -9.6716466405       26.3656777139       -4.5221996465  W2        12798           0.0000000000
     38394     12798  TIP3      H2             -8.3121166405       26.1875777139       -3.8804496465  W2        12798           0.0000000000
     38395     12799  TIP3      OH2            -8.2919166405       32.1244977139      -12.9477996465  W2        12799           0.0000000000
     38396     12799  TIP3      H1             -9.0368166405       31.6170277139      -13.2700096465  W2        12799           0.0000000000
     38397     12799  TIP3      H2             -8.4261966405       32.1732977139      -12.0013196465  W2        12799           0.0000000000
     38398     12800  TIP3      OH2            -1.1420266405       31.2573177139       -4.1610396465  W2        12800           0.0000000000
     38399     12800  TIP3      H1             -0.5001466405       31.7139477139       -4.7048196465  W2        12800           0.0000000000
     38400     12800  TIP3      H2             -1.9723366405       31.3705577139       -4.6236296465  W2        12800           0.0000000000
     38401     12801  TIP3      OH2            -4.3942366405       24.9384877139      -14.7485396465  W2        12801           0.0000000000
     38402     12801  TIP3      H1             -5.3328166405       25.0500477139      -14.8996596465  W2        12801           0.0000000000
     38403     12801  TIP3      H2             -4.0970266405       25.7951777139      -14.4419696465  W2        12801           0.0000000000
     38404     12802  TIP3      OH2            -6.7727066405       32.3088277139       -1.7108896465  W2        12802           0.0000000000
     38405     12802  TIP3      H1             -7.1180966405       31.9270677139       -0.9039296465  W2        12802           0.0000000000
     38406     12802  TIP3      H2             -6.9726966405       33.2421877139       -1.6395996465  W2        12802           0.0000000000
     38407     12803  TIP3      OH2            -3.6758866405       26.8057577139      -13.0877996465  W2        12803           0.0000000000
     38408     12803  TIP3      H1             -2.7839866405       26.6682577139      -12.7686796465  W2        12803           0.0000000000
     38409     12803  TIP3      H2             -3.6195266405       27.5963677139      -13.6244496465  W2        12803           0.0000000000
     38410     12804  TIP3      OH2           -13.1670866405       31.4194977139       -7.1780096465  W2        12804           0.0000000000
     38411     12804  TIP3      H1            -12.4223666405       31.4170677139       -7.7793596465  W2        12804           0.0000000000
     38412     12804  TIP3      H2            -13.0894266405       30.5958777139       -6.6964996465  W2        12804           0.0000000000
     38413     12805  TIP3      OH2            -6.1665066405       33.5829277139      -13.9223396465  W2        12805           0.0000000000
     38414     12805  TIP3      H1             -6.4616666405       34.4097177139      -13.5408596465  W2        12805           0.0000000000
     38415     12805  TIP3      H2             -6.8695066405       32.9636177139      -13.7261996465  W2        12805           0.0000000000
     38416     12806  TIP3      OH2           -16.1591166405       29.8801877139       -1.8631596465  W2        12806           0.0000000000
     38417     12806  TIP3      H1            -15.9362566405       29.4621477139       -1.0314096465  W2        12806           0.0000000000
     38418     12806  TIP3      H2            -16.7611066405       29.2676877139       -2.2858796465  W2        12806           0.0000000000
     38419     12807  TIP3      OH2            -9.1426266405       29.3971777139        0.3498103535  W2        12807           0.0000000000
     38420     12807  TIP3      H1             -9.4385466405       29.2314777139       -0.5452796465  W2        12807           0.0000000000
     38421     12807  TIP3      H2             -8.2111066405       29.1772077139        0.3392003535  W2        12807           0.0000000000
     38422     12808  TIP3      OH2            -4.5223466405       34.7703777139       -1.7603896465  W2        12808           0.0000000000
     38423     12808  TIP3      H1             -5.4229166405       34.9536377139       -2.0279996465  W2        12808           0.0000000000
     38424     12808  TIP3      H2             -4.4882366405       35.0293077139       -0.8395096465  W2        12808           0.0000000000
     38425     12809  TIP3      OH2             1.2089833595       27.0151677139      -13.3931296465  W2        12809           0.0000000000
     38426     12809  TIP3      H1              0.6546133595       26.6189677139      -14.0653796465  W2        12809           0.0000000000
     38427     12809  TIP3      H2              1.3093433595       27.9256877139      -13.6707996465  W2        12809           0.0000000000
     38428     12810  TIP3      OH2             1.1721833595       32.8153377139       -0.5559796465  W2        12810           0.0000000000
     38429     12810  TIP3      H1              0.3210333595       33.0537177139       -0.9233396465  W2        12810           0.0000000000
     38430     12810  TIP3      H2              1.7625233595       32.7986577139       -1.3092696465  W2        12810           0.0000000000
     38431     12811  TIP3      OH2            -0.4958466405       35.8012077139      -12.9279196465  W2        12811           0.0000000000
     38432     12811  TIP3      H1             -0.8687366405       34.9755877139      -12.6188596465  W2        12811           0.0000000000
     38433     12811  TIP3      H2             -0.2184966405       35.6181477139      -13.8255796465  W2        12811           0.0000000000
     38434     12812  TIP3      OH2            -3.3354566405       30.6091577139       -5.9067296465  W2        12812           0.0000000000
     38435     12812  TIP3      H1             -4.2637666405       30.3773477139       -5.9337996465  W2        12812           0.0000000000
     38436     12812  TIP3      H2             -2.8843466405       29.8321377139       -6.2368496465  W2        12812           0.0000000000
     38437     12813  TIP3      OH2           -10.7921466405       34.9373177139       -9.7738596465  W2        12813           0.0000000000
     38438     12813  TIP3      H1            -10.2649266405       35.7107577139       -9.9739796465  W2        12813           0.0000000000
     38439     12813  TIP3      H2            -11.6722966405       35.1622377139      -10.0754596465  W2        12813           0.0000000000
     38440     12814  TIP3      OH2           -15.0373766405       29.7997277139      -15.1866196465  W2        12814           0.0000000000
     38441     12814  TIP3      H1            -14.4213866405       30.4264477139      -14.8071396465  W2        12814           0.0000000000
     38442     12814  TIP3      H2            -15.8991166405       30.1157077139      -14.9149696465  W2        12814           0.0000000000
     38443     12815  TIP3      OH2            -9.3649166405       32.6003077139      -10.1974296465  W2        12815           0.0000000000
     38444     12815  TIP3      H1             -9.6059166405       33.5257477139      -10.1558996465  W2        12815           0.0000000000
     38445     12815  TIP3      H2            -10.1055566405       32.1414377139       -9.8010396465  W2        12815           0.0000000000
     38446     12816  TIP3      OH2            -8.8502566405       36.7496677139       -3.8823196465  W2        12816           0.0000000000
     38447     12816  TIP3      H1             -8.4877866405       37.6042277139       -4.1158796465  W2        12816           0.0000000000
     38448     12816  TIP3      H2             -8.3187366405       36.4578277139       -3.1416896465  W2        12816           0.0000000000
     38449     12817  TIP3      OH2           -10.6818366405       37.6220677139      -10.6522096465  W2        12817           0.0000000000
     38450     12817  TIP3      H1            -11.6317866405       37.7278077139      -10.6008796465  W2        12817           0.0000000000
     38451     12817  TIP3      H2            -10.3300266405       38.4428077139      -10.3074596465  W2        12817           0.0000000000
     38452     12818  TIP3      OH2            -5.3061766405       32.8487377139       -4.1817596465  W2        12818           0.0000000000
     38453     12818  TIP3      H1             -5.7320466405       32.6209077139       -3.3553596465  W2        12818           0.0000000000
     38454     12818  TIP3      H2             -4.7255966405       32.1099177139       -4.3642296465  W2        12818           0.0000000000
     38455     12819  TIP3      OH2            -3.1032866405       33.7777877139      -15.1078596465  W2        12819           0.0000000000
     38456     12819  TIP3      H1             -2.7499766405       33.3977677139      -14.3035096465  W2        12819           0.0000000000
     38457     12819  TIP3      H2             -4.0519366405       33.6842677139      -15.0209296465  W2        12819           0.0000000000
     38458     12820  TIP3      OH2            -2.6477566405       37.4006877139       -1.7122796465  W2        12820           0.0000000000
     38459     12820  TIP3      H1             -3.2494366405       36.8449777139       -2.2076496465  W2        12820           0.0000000000
     38460     12820  TIP3      H2             -2.3663866405       38.0676677139       -2.3385396465  W2        12820           0.0000000000
     38461     12821  TIP3      OH2             1.4001533595       38.2570377139      -14.9068396465  W2        12821           0.0000000000
     38462     12821  TIP3      H1              2.1439433595       38.8430877139      -15.0466796465  W2        12821           0.0000000000
     38463     12821  TIP3      H2              0.7059633595       38.8256177139      -14.5735996465  W2        12821           0.0000000000
     38464     12822  TIP3      OH2           -14.5251666405       24.6334577139       -2.3050196465  W2        12822           0.0000000000
     38465     12822  TIP3      H1            -15.4179366405       24.9719977139       -2.3726196465  W2        12822           0.0000000000
     38466     12822  TIP3      H2            -14.6238866405       23.7780677139       -1.8869396465  W2        12822           0.0000000000
     38467     12823  TIP3      OH2            -2.2373566405       32.4499877139      -12.8810696465  W2        12823           0.0000000000
     38468     12823  TIP3      H1             -2.5145966405       31.7219177139      -12.3249596465  W2        12823           0.0000000000
     38469     12823  TIP3      H2             -1.3100566405       32.5691877139      -12.6758096465  W2        12823           0.0000000000
     38470     12824  TIP3      OH2           -14.8739666405       36.4378977139       -3.8700796465  W2        12824           0.0000000000
     38471     12824  TIP3      H1            -14.6569366405       35.5061377139       -3.9011096465  W2        12824           0.0000000000
     38472     12824  TIP3      H2            -14.6276166405       36.7123977139       -2.9867996465  W2        12824           0.0000000000
     38473     12825  TIP3      OH2            -9.0125066405       34.8893977139      -16.6608596465  W2        12825           0.0000000000
     38474     12825  TIP3      H1             -8.7735266405       34.1412077139      -17.2079696465  W2        12825           0.0000000000
     38475     12825  TIP3      H2             -9.2813766405       34.5015677139      -15.8280796465  W2        12825           0.0000000000
     38476     12826  TIP3      OH2           -10.0754466405       34.4597777139      -14.2045996465  W2        12826           0.0000000000
     38477     12826  TIP3      H1             -9.9286466405       33.9397577139      -13.4145096465  W2        12826           0.0000000000
     38478     12826  TIP3      H2            -10.0782766405       35.3665377139      -13.8980096465  W2        12826           0.0000000000
     38479     12827  TIP3      OH2           -13.6223366405       31.7121077139      -13.6940596465  W2        12827           0.0000000000
     38480     12827  TIP3      H1            -14.3084066405       32.0643577139      -13.1270896465  W2        12827           0.0000000000
     38481     12827  TIP3      H2            -13.0995466405       32.4750677139      -13.9406296465  W2        12827           0.0000000000
     38482     12828  TIP3      OH2            -5.7908266405       24.3744877139       -3.4151596465  W2        12828           0.0000000000
     38483     12828  TIP3      H1             -5.0920366405       24.4483577139       -2.7651896465  W2        12828           0.0000000000
     38484     12828  TIP3      H2             -6.1716866405       23.5099877139       -3.2608696465  W2        12828           0.0000000000
     38485     12829  TIP3      OH2            -5.0063366405       24.0266577139      -12.3179296465  W2        12829           0.0000000000
     38486     12829  TIP3      H1             -4.7865066405       24.4981977139      -13.1213896465  W2        12829           0.0000000000
     38487     12829  TIP3      H2             -4.4479366405       24.4209177139      -11.6478696465  W2        12829           0.0000000000
     38488     12830  TIP3      OH2            -7.3377266405       36.1571377139      -13.4551796465  W2        12830           0.0000000000
     38489     12830  TIP3      H1             -8.1541166405       36.6541077139      -13.4027496465  W2        12830           0.0000000000
     38490     12830  TIP3      H2             -6.8080966405       36.6324877139      -14.0952996465  W2        12830           0.0000000000
     38491     12831  TIP3      OH2            -7.8063466405       25.7545377139      -11.4830896465  W2        12831           0.0000000000
     38492     12831  TIP3      H1             -6.9940866405       26.2588577139      -11.4369196465  W2        12831           0.0000000000
     38493     12831  TIP3      H2             -8.0510466405       25.6095077139      -10.5691296465  W2        12831           0.0000000000
     38494     12832  TIP3      OH2            -7.2707066405       26.7408077139       -2.2984296465  W2        12832           0.0000000000
     38495     12832  TIP3      H1             -7.1516766405       27.3143477139       -1.5413896465  W2        12832           0.0000000000
     38496     12832  TIP3      H2             -6.6152466405       26.0527477139       -2.1836496465  W2        12832           0.0000000000
     38497     12833  TIP3      OH2            -6.9226766405       22.8358377139      -10.5449796465  W2        12833           0.0000000000
     38498     12833  TIP3      H1             -7.2693266405       23.4528977139       -9.9005496465  W2        12833           0.0000000000
     38499     12833  TIP3      H2             -6.2639866405       23.3364077139      -11.0264296465  W2        12833           0.0000000000
     38500     12834  TIP3      OH2            -9.9994166405       37.2008577139      -13.4734896465  W2        12834           0.0000000000
     38501     12834  TIP3      H1             -9.8385466405       38.0006077139      -13.9742296465  W2        12834           0.0000000000
     38502     12834  TIP3      H2            -10.1966366405       37.5074577139      -12.5884296465  W2        12834           0.0000000000
     38503     12835  TIP3      OH2           -11.2649766405       23.8987777139      -13.8577296465  W2        12835           0.0000000000
     38504     12835  TIP3      H1            -11.3484966405       24.7870877139      -13.5110896465  W2        12835           0.0000000000
     38505     12835  TIP3      H2            -10.3749466405       23.6334477139      -13.6260496465  W2        12835           0.0000000000
     38506     12836  TIP3      OH2            -1.0661266405       24.6478377139       -1.4634596465  W2        12836           0.0000000000
     38507     12836  TIP3      H1             -1.9825466405       24.9100077139       -1.5510896465  W2        12836           0.0000000000
     38508     12836  TIP3      H2             -0.7306266405       24.6447377139       -2.3599296465  W2        12836           0.0000000000
     38509     12837  TIP3      OH2            -2.4640266405       28.3979377139       -7.3677296465  W2        12837           0.0000000000
     38510     12837  TIP3      H1             -3.2615866405       27.9829577139       -7.6962296465  W2        12837           0.0000000000
     38511     12837  TIP3      H2             -2.0189166405       27.7073077139       -6.8766796465  W2        12837           0.0000000000
     38512     12838  TIP3      OH2           -13.0064466405       34.3259977139      -14.7972796465  W2        12838           0.0000000000
     38513     12838  TIP3      H1            -12.4142966405       35.0254777139      -14.5210396465  W2        12838           0.0000000000
     38514     12838  TIP3      H2            -12.5471466405       33.8929477139      -15.5168196465  W2        12838           0.0000000000
     38515     12839  TIP3      OH2           -14.6905266405       26.9902977139      -15.6813396465  W2        12839           0.0000000000
     38516     12839  TIP3      H1            -14.7352666405       27.9296077139      -15.5026396465  W2        12839           0.0000000000
     38517     12839  TIP3      H2            -15.5782066405       26.7547877139      -15.9511296465  W2        12839           0.0000000000
     38518     12840  TIP3      OH2            -1.3775666405       37.6541877139       -5.7453796465  W2        12840           0.0000000000
     38519     12840  TIP3      H1             -1.5331366405       38.3326277139       -6.4024496465  W2        12840           0.0000000000
     38520     12840  TIP3      H2             -0.4449266405       37.7261177139       -5.5423196465  W2        12840           0.0000000000
     38521     12841  TIP3      OH2           -13.8823266405       21.7719577139       -7.0082396465  W2        12841           0.0000000000
     38522     12841  TIP3      H1            -14.1113466405       21.8312077139       -7.9357396465  W2        12841           0.0000000000
     38523     12841  TIP3      H2            -14.3249866405       20.9805077139       -6.7018296465  W2        12841           0.0000000000
     38524     12842  TIP3      OH2           -14.9519966405       35.7126677139      -10.8476596465  W2        12842           0.0000000000
     38525     12842  TIP3      H1            -15.7841366405       36.1849377139      -10.8205196465  W2        12842           0.0000000000
     38526     12842  TIP3      H2            -14.4061666405       36.2224277139      -11.4463496465  W2        12842           0.0000000000
     38527     12843  TIP3      OH2           -15.6636266405       38.3250377139        0.4821403535  W2        12843           0.0000000000
     38528     12843  TIP3      H1            -15.1234066405       38.1084377139        1.2420603535  W2        12843           0.0000000000
     38529     12843  TIP3      H2            -16.1448266405       37.5196377139        0.2923903535  W2        12843           0.0000000000
     38530     12844  TIP3      OH2           -11.0662866405       37.2444777139        2.1025603535  W2        12844           0.0000000000
     38531     12844  TIP3      H1            -10.2985666405       36.7855577139        2.4434803535  W2        12844           0.0000000000
     38532     12844  TIP3      H2            -11.0876666405       37.0184577139        1.1726803535  W2        12844           0.0000000000
     38533     12845  TIP3      OH2            -6.9743266405       36.7525377139      -16.5222596465  W2        12845           0.0000000000
     38534     12845  TIP3      H1             -7.6182266405       36.1213977139      -16.2008896465  W2        12845           0.0000000000
     38535     12845  TIP3      H2             -6.2124966405       36.2213377139      -16.7539096465  W2        12845           0.0000000000
     38536     12846  TIP3      OH2            -4.4894166405       35.6245877139        0.8317103535  W2        12846           0.0000000000
     38537     12846  TIP3      H1             -4.8404666405       34.7678877139        1.0747503535  W2        12846           0.0000000000
     38538     12846  TIP3      H2             -3.7630966405       35.7672577139        1.4386103535  W2        12846           0.0000000000
     38539     12847  TIP3      OH2            -2.3700366405       36.5695277139      -16.2884596465  W2        12847           0.0000000000
     38540     12847  TIP3      H1             -2.0869966405       35.7750477139      -15.8357696465  W2        12847           0.0000000000
     38541     12847  TIP3      H2             -1.6302466405       36.8026277139      -16.8493496465  W2        12847           0.0000000000
     38542     12848  TIP3      OH2           -15.7566766405       32.1354477139        1.4365703535  W2        12848           0.0000000000
     38543     12848  TIP3      H1            -15.6126266405       31.2335177139        1.1502403535  W2        12848           0.0000000000
     38544     12848  TIP3      H2            -16.5289366405       32.4216577139        0.9488003535  W2        12848           0.0000000000
     38545     12849  TIP3      OH2           -11.4153066405       32.4790177139      -16.4309696465  W2        12849           0.0000000000
     38546     12849  TIP3      H1            -11.3508966405       31.6849777139      -15.9003296465  W2        12849           0.0000000000
     38547     12849  TIP3      H2            -10.7623866405       32.3602977139      -17.1207696465  W2        12849           0.0000000000
     38548     12850  TIP3      OH2            -9.1010666405       32.1052577139        0.8692103535  W2        12850           0.0000000000
     38549     12850  TIP3      H1             -9.4296866405       32.3760677139        0.0119503535  W2        12850           0.0000000000
     38550     12850  TIP3      H2             -8.9492466405       31.1642377139        0.7817103535  W2        12850           0.0000000000
     38551     12851  TIP3      OH2            -6.0629666405       33.5261877139      -16.6951696465  W2        12851           0.0000000000
     38552     12851  TIP3      H1             -6.3315566405       33.7063977139      -15.7942796465  W2        12851           0.0000000000
     38553     12851  TIP3      H2             -6.2694066405       32.6008077139      -16.8265896465  W2        12851           0.0000000000
     38554     12852  TIP3      OH2            -3.3665466405       32.0209877139       -1.7475596465  W2        12852           0.0000000000
     38555     12852  TIP3      H1             -2.6210666405       32.6093577139       -1.8671596465  W2        12852           0.0000000000
     38556     12852  TIP3      H2             -4.1238666405       32.6029577139       -1.6842496465  W2        12852           0.0000000000
     38557     12853  TIP3      OH2           -14.9240266405       29.3357777139        0.8565003535  W2        12853           0.0000000000
     38558     12853  TIP3      H1            -14.5159066405       28.4784377139        0.7355603535  W2        12853           0.0000000000
     38559     12853  TIP3      H2            -15.1842666405       29.3499077139        1.7775303535  W2        12853           0.0000000000
     38560     12854  TIP3      OH2           -10.2659266405       30.4516377139      -14.1251696465  W2        12854           0.0000000000
     38561     12854  TIP3      H1            -10.7257266405       29.9674677139      -13.4393196465  W2        12854           0.0000000000
     38562     12854  TIP3      H2            -10.0110566405       29.7831777139      -14.7611196465  W2        12854           0.0000000000
     38563     12855  TIP3      OH2           -10.9769966405       28.3443477139       -1.7692096465  W2        12855           0.0000000000
     38564     12855  TIP3      H1            -11.5953866405       29.0190077139       -1.4887396465  W2        12855           0.0000000000
     38565     12855  TIP3      H2            -10.6328766405       28.6657377139       -2.6025896465  W2        12855           0.0000000000
     38566     12856  TIP3      OH2            -9.1948866405       28.6948177139      -15.8628496465  W2        12856           0.0000000000
     38567     12856  TIP3      H1             -9.3753866405       28.5399377139      -16.7900196465  W2        12856           0.0000000000
     38568     12856  TIP3      H2             -8.2448366405       28.8026877139      -15.8180596465  W2        12856           0.0000000000
     38569     12857  TIP3      OH2            -5.9571766405       30.8158777139        1.5082703535  W2        12857           0.0000000000
     38570     12857  TIP3      H1             -5.0040566405       30.8997877139        1.4808703535  W2        12857           0.0000000000
     38571     12857  TIP3      H2             -6.1177166405       30.1040577139        2.1277603535  W2        12857           0.0000000000
     38572     12858  TIP3      OH2             0.1949433595       31.0492377139      -16.4170396465  W2        12858           0.0000000000
     38573     12858  TIP3      H1             -0.0785766405       30.6247877139      -17.2302096465  W2        12858           0.0000000000
     38574     12858  TIP3      H2              0.2343533595       31.9806877139      -16.6339996465  W2        12858           0.0000000000
     38575     12859  TIP3      OH2           -10.6376266405       25.6994277139       -0.6868996465  W2        12859           0.0000000000
     38576     12859  TIP3      H1            -10.4875366405       24.9705577139       -1.2889296465  W2        12859           0.0000000000
     38577     12859  TIP3      H2            -10.6353866405       26.4765977139       -1.2456796465  W2        12859           0.0000000000
     38578     12860  TIP3      OH2           -10.2250566405       24.0690077139       -3.1941596465  W2        12860           0.0000000000
     38579     12860  TIP3      H1             -9.6893066405       24.5206777139       -3.8462296465  W2        12860           0.0000000000
     38580     12860  TIP3      H2            -11.0770966405       23.9609877139       -3.6167496465  W2        12860           0.0000000000
     38581     12861  TIP3      OH2            -8.6432166405       29.5086277139       -2.9546396465  W2        12861           0.0000000000
     38582     12861  TIP3      H1             -7.8927366405       29.3523777139       -3.5278596465  W2        12861           0.0000000000
     38583     12861  TIP3      H2             -8.9823866405       30.3602877139       -3.2300896465  W2        12861           0.0000000000
     38584     12862  TIP3      OH2            -4.2275966405       27.3238077139        2.0738903535  W2        12862           0.0000000000
     38585     12862  TIP3      H1             -4.0354666405       26.3927477139        1.9623403535  W2        12862           0.0000000000
     38586     12862  TIP3      H2             -3.3699666405       27.7487577139        2.0634303535  W2        12862           0.0000000000
     38587     12863  TIP3      OH2            -2.9108766405       30.1123277139        0.1511603535  W2        12863           0.0000000000
     38588     12863  TIP3      H1             -3.1923766405       30.8217877139       -0.4264596465  W2        12863           0.0000000000
     38589     12863  TIP3      H2             -1.9684466405       30.0396277139        0.0002803535  W2        12863           0.0000000000
     38590     12864  TIP3      OH2           -12.1589966405       26.8977777139        1.2246603535  W2        12864           0.0000000000
     38591     12864  TIP3      H1            -12.9260966405       26.3652577139        1.0144203535  W2        12864           0.0000000000
     38592     12864  TIP3      H2            -11.4800966405       26.5878177139        0.6252903535  W2        12864           0.0000000000
     38593     12865  TIP3      OH2            -9.4195066405       21.5255777139       -2.7627996465  W2        12865           0.0000000000
     38594     12865  TIP3      H1             -9.5175466405       22.4718977139       -2.8681796465  W2        12865           0.0000000000
     38595     12865  TIP3      H2            -10.1618866405       21.1529577139       -3.2384496465  W2        12865           0.0000000000
     38596     12866  TIP3      OH2            -8.1554566405       25.8471177139        0.8010403535  W2        12866           0.0000000000
     38597     12866  TIP3      H1             -8.3909166405       25.6277877139        1.7025303535  W2        12866           0.0000000000
     38598     12866  TIP3      H2             -8.9387666405       25.6402377139        0.2912903535  W2        12866           0.0000000000
     38599     12867  TIP3      OH2            -5.4397966405       24.9744677139       -0.1236096465  W2        12867           0.0000000000
     38600     12867  TIP3      H1             -6.3872566405       25.0064377139        0.0087203535  W2        12867           0.0000000000
     38601     12867  TIP3      H2             -5.1271266405       24.3491777139        0.5302103535  W2        12867           0.0000000000
     38602     12868  TIP3      OH2            -3.8056466405       23.6085777139        1.8815803535  W2        12868           0.0000000000
     38603     12868  TIP3      H1             -3.9024666405       22.6563077139        1.8757703535  W2        12868           0.0000000000
     38604     12868  TIP3      H2             -4.1273366405       23.8772577139        2.7421303535  W2        12868           0.0000000000
     38605     12869  TIP3      OH2           -13.9787166405       24.8181577139        0.9291303535  W2        12869           0.0000000000
     38606     12869  TIP3      H1            -13.7669766405       24.1117677139        0.3188803535  W2        12869           0.0000000000
     38607     12869  TIP3      H2            -14.0899666405       24.3807577139        1.7732503535  W2        12869           0.0000000000
     38608     12870  TIP3      OH2            -9.1976966405       20.8193177139       -0.0915196465  W2        12870           0.0000000000
     38609     12870  TIP3      H1             -8.4858566405       20.1795377139       -0.1056096465  W2        12870           0.0000000000
     38610     12870  TIP3      H2             -9.2986566405       21.0861477139       -1.0052096465  W2        12870           0.0000000000
     38611     12871  TIP3      OH2            -8.8439466405       22.5021577139        1.9621103535  W2        12871           0.0000000000
     38612     12871  TIP3      H1             -8.9757266405       22.0265377139        1.1419603535  W2        12871           0.0000000000
     38613     12871  TIP3      H2             -9.4432066405       23.2465177139        1.9068203535  W2        12871           0.0000000000
     38614     12872  TIP3      OH2            -9.2977166405       39.3851877139      -14.8614896465  W2        12872           0.0000000000
     38615     12872  TIP3      H1             -8.3646466405       39.5430577139      -14.7176496465  W2        12872           0.0000000000
     38616     12872  TIP3      H2             -9.5618366405       40.0604877139      -15.4863396465  W2        12872           0.0000000000
     38617     12873  TIP3      OH2           -15.7292266405       34.0215677139      -15.3786796465  W2        12873           0.0000000000
     38618     12873  TIP3      H1            -14.8153066405       34.1004577139      -15.1052896465  W2        12873           0.0000000000
     38619     12873  TIP3      H2            -15.7219166405       33.3345277139      -16.0451196465  W2        12873           0.0000000000
     38620     12874  TIP3      OH2           -17.0801666405       39.4144177139      -10.3012896465  W2        12874           0.0000000000
     38621     12874  TIP3      H1            -17.7274566405       38.9525877139      -10.8341696465  W2        12874           0.0000000000
     38622     12874  TIP3      H2            -16.7257066405       38.7427477139       -9.7186696465  W2        12874           0.0000000000
     38623     12875  TIP3      OH2           -16.2102466405       37.4951177139       -8.4966696465  W2        12875           0.0000000000
     38624     12875  TIP3      H1            -16.5445666405       36.6148477139       -8.3246496465  W2        12875           0.0000000000
     38625     12875  TIP3      H2            -15.9880066405       37.8406177139       -7.6321096465  W2        12875           0.0000000000
     38626     12876  TIP3      OH2             1.3382333595       38.3047577139       -5.5161896465  W2        12876           0.0000000000
     38627     12876  TIP3      H1              1.3169033595       38.4895977139       -4.5772496465  W2        12876           0.0000000000
     38628     12876  TIP3      H2              2.0288533595       38.8731577139       -5.8570496465  W2        12876           0.0000000000
     38629     12877  TIP3      OH2             0.9015233595       37.8718677139       -2.5942796465  W2        12877           0.0000000000
     38630     12877  TIP3      H1              0.4143933595       37.1362777139       -2.9655396465  W2        12877           0.0000000000
     38631     12877  TIP3      H2              1.4507933595       37.4782577139       -1.9163396465  W2        12877           0.0000000000
     38632     12878  TIP3      OH2            -0.6477466405       33.6616777139        2.0437503535  W2        12878           0.0000000000
     38633     12878  TIP3      H1             -1.5136366405       33.5566477139        2.4379803535  W2        12878           0.0000000000
     38634     12878  TIP3      H2             -0.2711566405       34.4200077139        2.4902203535  W2        12878           0.0000000000
     38635     12879  TIP3      OH2             0.6532233595       31.9180477139      -12.4419996465  W2        12879           0.0000000000
     38636     12879  TIP3      H1              1.5033633595       32.3391377139      -12.3148396465  W2        12879           0.0000000000
     38637     12879  TIP3      H2              0.6587333595       31.1780577139      -11.8348596465  W2        12879           0.0000000000
     38638     12880  TIP3      OH2             1.0477833595       29.9717877139      -10.6184296465  W2        12880           0.0000000000
     38639     12880  TIP3      H1              0.3212433595       29.4920477139      -10.2206696465  W2        12880           0.0000000000
     38640     12880  TIP3      H2              1.6291133595       30.1772577139       -9.8862696465  W2        12880           0.0000000000
     38641     12881  TIP3      OH2             0.8069033595       32.7565377139       -5.6706696465  W2        12881           0.0000000000
     38642     12881  TIP3      H1              1.6403233595       32.3785377139       -5.9513096465  W2        12881           0.0000000000
     38643     12881  TIP3      H2              0.9189333595       33.6996577139       -5.7897596465  W2        12881           0.0000000000
     38644     12882  TIP3      OH2            -0.7068666405       35.6342877139       -3.3638296465  W2        12882           0.0000000000
     38645     12882  TIP3      H1             -1.3543366405       35.9594377139       -2.7383096465  W2        12882           0.0000000000
     38646     12882  TIP3      H2             -1.2244666405       35.1940577139       -4.0379996465  W2        12882           0.0000000000
     38647     12883  TIP3      OH2             1.3160933595       29.8726377139      -14.2272996465  W2        12883           0.0000000000
     38648     12883  TIP3      H1              0.7942033595       30.2290477139      -14.9462096465  W2        12883           0.0000000000
     38649     12883  TIP3      H2              1.2830133595       30.5474177139      -13.5492096465  W2        12883           0.0000000000
     38650     12884  TIP3      OH2            -0.3350066405       27.1121977139      -15.6765896465  W2        12884           0.0000000000
     38651     12884  TIP3      H1             -0.2385666405       27.7788977139      -16.3566196465  W2        12884           0.0000000000
     38652     12884  TIP3      H2             -0.4750466405       26.2968277139      -16.1580396465  W2        12884           0.0000000000
     38653     12885  TIP3      OH2            -1.1655366405       28.4924377139      -10.0555596465  W2        12885           0.0000000000
     38654     12885  TIP3      H1             -1.3156566405       27.5472977139      -10.0757796465  W2        12885           0.0000000000
     38655     12885  TIP3      H2             -1.5190866405       28.7735777139       -9.2116496465  W2        12885           0.0000000000
     38656     12886  TIP3      OH2           -16.1302966405       30.5706577139       -6.0451796465  W2        12886           0.0000000000
     38657     12886  TIP3      H1            -15.9460066405       30.4888277139       -6.9808896465  W2        12886           0.0000000000
     38658     12886  TIP3      H2            -15.2810066405       30.4463577139       -5.6215396465  W2        12886           0.0000000000
     38659     12887  TIP3      OH2            -0.3092466405       30.4627677139       -0.4167296465  W2        12887           0.0000000000
     38660     12887  TIP3      H1              0.2734833595       29.7279977139       -0.2250096465  W2        12887           0.0000000000
     38661     12887  TIP3      H2              0.2546833595       31.2347977139       -0.3701496465  W2        12887           0.0000000000
     38662     12888  TIP3      OH2             1.1874633595       28.3653477139        0.2678103535  W2        12888           0.0000000000
     38663     12888  TIP3      H1              0.3241333595       27.9865577139        0.1022803535  W2        12888           0.0000000000
     38664     12888  TIP3      H2              1.7918333595       27.6268277139        0.1933903535  W2        12888           0.0000000000
     38665     12889  TIP3      OH2            -1.0876266405       24.5201777139      -16.5590396465  W2        12889           0.0000000000
     38666     12889  TIP3      H1             -0.4770466405       24.1488577139      -15.9222196465  W2        12889           0.0000000000
     38667     12889  TIP3      H2             -1.9244766405       24.0988677139      -16.3630396465  W2        12889           0.0000000000
     38668     12890  TIP3      OH2            -1.4550566405       26.0750177139      -11.5930496465  W2        12890           0.0000000000
     38669     12890  TIP3      H1             -1.1753466405       25.1680577139      -11.4688796465  W2        12890           0.0000000000
     38670     12890  TIP3      H2             -0.6958866405       26.5091677139      -11.9821296465  W2        12890           0.0000000000
     38671     12891  TIP3      OH2            -0.8432266405       26.6567577139       -6.1571596465  W2        12891           0.0000000000
     38672     12891  TIP3      H1              0.0895733595       26.8687477139       -6.1915596465  W2        12891           0.0000000000
     38673     12891  TIP3      H2             -1.0784766405       26.7579677139       -5.2348596465  W2        12891           0.0000000000
     38674     12892  TIP3      OH2            -0.8140366405       27.3932877139       -3.3812196465  W2        12892           0.0000000000
     38675     12892  TIP3      H1             -1.6569066405       27.6613277139       -3.0152396465  W2        12892           0.0000000000
     38676     12892  TIP3      H2             -0.3716066405       28.2154777139       -3.5921096465  W2        12892           0.0000000000
     38677     12893  TIP3      OH2           -16.5328166405       25.8411577139        0.0957003535  W2        12893           0.0000000000
     38678     12893  TIP3      H1            -15.6133266405       25.7189877139        0.3320103535  W2        12893           0.0000000000
     38679     12893  TIP3      H2            -16.9823666405       25.0911277139        0.4850503535  W2        12893           0.0000000000
     38680     12894  TIP3      OH2             1.4691233595       21.3733077139        1.9722803535  W2        12894           0.0000000000
     38681     12894  TIP3      H1              1.8188233595       20.7196577139        1.3667503535  W2        12894           0.0000000000
     38682     12894  TIP3      H2              1.6160733595       22.2107177139        1.5325403535  W2        12894           0.0000000000
     38683     12895  TIP3      OH2            -0.8415766405       23.3379477139      -11.5448496465  W2        12895           0.0000000000
     38684     12895  TIP3      H1             -0.6590766405       22.8890977139      -10.7193496465  W2        12895           0.0000000000
     38685     12895  TIP3      H2             -1.4412866405       22.7533877139      -12.0083896465  W2        12895           0.0000000000
     38686     12896  TIP3      OH2           -15.3115666405       24.1533177139       -7.0130096465  W2        12896           0.0000000000
     38687     12896  TIP3      H1            -14.8664066405       23.3615677139       -6.7110396465  W2        12896           0.0000000000
     38688     12896  TIP3      H2            -14.8452666405       24.8698377139       -6.5824496465  W2        12896           0.0000000000
     38689     12897  TIP3      OH2           -17.0075366405       27.1526177139       -5.9439896465  W2        12897           0.0000000000
     38690     12897  TIP3      H1            -16.5155566405       26.9316677139       -6.7347896465  W2        12897           0.0000000000
     38691     12897  TIP3      H2            -16.6454466405       27.9929577139       -5.6630396465  W2        12897           0.0000000000
     38692     12898  TIP3      OH2             0.9888433595       23.4827677139        0.3214103535  W2        12898           0.0000000000
     38693     12898  TIP3      H1              0.0714133595       23.7534777139        0.2857603535  W2        12898           0.0000000000
     38694     12898  TIP3      H2              1.1117833595       22.9476077139       -0.4626196465  W2        12898           0.0000000000
     38695     12899  TIP3      OH2             1.0250433595       23.4057577139      -15.0168196465  W2        12899           0.0000000000
     38696     12899  TIP3      H1              1.4373033595       22.6843277139      -15.4920196465  W2        12899           0.0000000000
     38697     12899  TIP3      H2              1.7066933595       24.0752177139      -14.9583896465  W2        12899           0.0000000000
     38698     12900  TIP3      OH2           -16.6938866405       23.4105277139      -11.8897496465  W2        12900           0.0000000000
     38699     12900  TIP3      H1            -17.6190466405       23.6191877139      -12.0191996465  W2        12900           0.0000000000
     38700     12900  TIP3      H2            -16.2398966405       23.8946077139      -12.5795196465  W2        12900           0.0000000000
     38701     12901  TIP3      OH2            -1.9231666405       38.3946977139       -9.9440096465  W2        12901           0.0000000000
     38702     12901  TIP3      H1             -1.2708766405       38.0469077139      -10.5520996465  W2        12901           0.0000000000
     38703     12901  TIP3      H2             -1.4127866405       38.8830177139       -9.2980396465  W2        12901           0.0000000000
     38704     12902  TIP3      OH2           -16.7303466405       22.1484277139       -3.5454996465  W2        12902           0.0000000000
     38705     12902  TIP3      H1            -17.3952966405       21.9024577139       -2.9024096465  W2        12902           0.0000000000
     38706     12902  TIP3      H2            -17.1732166405       22.7704677139       -4.1226996465  W2        12902           0.0000000000
     38707     12903  TIP3      OH2           -14.5384166405       35.3238377139        0.5990803535  W2        12903           0.0000000000
     38708     12903  TIP3      H1            -15.3591666405       35.4984877139        0.1385503535  W2        12903           0.0000000000
     38709     12903  TIP3      H2            -14.7906366405       35.2503077139        1.5195203535  W2        12903           0.0000000000
     38710     12904  TIP3      OH2           -11.5841266405       36.2979577139       -3.1425196465  W2        12904           0.0000000000
     38711     12904  TIP3      H1            -12.0090166405       37.1078077139       -3.4250596465  W2        12904           0.0000000000
     38712     12904  TIP3      H2            -10.6798466405       36.3833677139       -3.4445396465  W2        12904           0.0000000000
     38713     12905  TIP3      OH2            -7.2729866405       37.6969577139       -0.1831496465  W2        12905           0.0000000000
     38714     12905  TIP3      H1             -7.0882366405       37.3635677139        0.6948803535  W2        12905           0.0000000000
     38715     12905  TIP3      H2             -6.4265366405       38.0068177139       -0.5052296465  W2        12905           0.0000000000
     38716     12906  TIP3      OH2            -4.9279466405       38.9828477139       -0.9390096465  W2        12906           0.0000000000
     38717     12906  TIP3      H1             -4.2510566405       38.3500777139       -1.1790896465  W2        12906           0.0000000000
     38718     12906  TIP3      H2             -4.6060666405       39.3838977139       -0.1316796465  W2        12906           0.0000000000
     38719     12907  TIP3      OH2            -0.0105666405       21.5723977139       -1.8595096465  W2        12907           0.0000000000
     38720     12907  TIP3      H1             -0.8232166405       21.8974277139       -2.2470396465  W2        12907           0.0000000000
     38721     12907  TIP3      H2              0.2222833595       20.8122477139       -2.3925996465  W2        12907           0.0000000000
     38722     12908  TIP3      OH2           -14.1824566405       39.5543477139       -3.0949896465  W2        12908           0.0000000000
     38723     12908  TIP3      H1            -14.9028166405       39.9944477139       -3.5462196465  W2        12908           0.0000000000
     38724     12908  TIP3      H2            -14.5480566405       39.3038177139       -2.2465896465  W2        12908           0.0000000000
     38725     12909  TIP3      OH2           -11.7151966405       39.1547377139       -4.0652696465  W2        12909           0.0000000000
     38726     12909  TIP3      H1            -12.5799766405       39.2265877139       -3.6612596465  W2        12909           0.0000000000
     38727     12909  TIP3      H2            -11.7702966405       39.7014677139       -4.8490196465  W2        12909           0.0000000000
     38728     12910  TIP3      OH2            -7.0046366405       39.0426277139       -4.8896696465  W2        12910           0.0000000000
     38729     12910  TIP3      H1             -7.4612366405       39.5715977139       -5.5438296465  W2        12910           0.0000000000
     38730     12910  TIP3      H2             -6.8418366405       39.6457677139       -4.1644396465  W2        12910           0.0000000000
     38731     12911  TIP3      OH2            -4.6770066405       37.9205877139       -3.9446396465  W2        12911           0.0000000000
     38732     12911  TIP3      H1             -5.5816366405       38.0856077139       -4.2104296465  W2        12911           0.0000000000
     38733     12911  TIP3      H2             -4.2481466405       38.7738077139       -4.0102996465  W2        12911           0.0000000000
     38734     12912  TIP3      OH2            -2.0728166405       39.4904977139       -3.6498596465  W2        12912           0.0000000000
     38735     12912  TIP3      H1             -2.2546166405       40.4063877139       -3.8603696465  W2        12912           0.0000000000
     38736     12912  TIP3      H2             -1.8960366405       39.0802077139       -4.4963996465  W2        12912           0.0000000000
     38737     12913  TIP3      OH2           -14.7676466405       38.1775977139       -6.1848096465  W2        12913           0.0000000000
     38738     12913  TIP3      H1            -14.7860466405       37.7521077139       -5.3275796465  W2        12913           0.0000000000
     38739     12913  TIP3      H2            -13.9628566405       37.8590977139       -6.5935896465  W2        12913           0.0000000000
     38740     12914  TIP3      OH2           -12.6263366405       36.8874677139       -7.5298196465  W2        12914           0.0000000000
     38741     12914  TIP3      H1            -12.8452666405       35.9712077139       -7.3602196465  W2        12914           0.0000000000
     38742     12914  TIP3      H2            -11.8021166405       37.0275077139       -7.0636796465  W2        12914           0.0000000000
     38743     12915  TIP3      OH2           -10.0890866405       37.3573977139       -6.6810196465  W2        12915           0.0000000000
     38744     12915  TIP3      H1             -9.8765166405       36.4692977139       -6.9679296465  W2        12915           0.0000000000
     38745     12915  TIP3      H2            -10.0245766405       37.3231677139       -5.7266196465  W2        12915           0.0000000000
     38746     12916  TIP3      OH2            -6.5807166405       23.0214577139       -7.5366896465  W2        12916           0.0000000000
     38747     12916  TIP3      H1             -7.2550366405       22.3920177139       -7.2811096465  W2        12916           0.0000000000
     38748     12916  TIP3      H2             -6.0167966405       22.5373477139       -8.1398996465  W2        12916           0.0000000000
     38749     12917  TIP3      OH2            -1.4379966405       21.1288577139       -7.4239796465  W2        12917           0.0000000000
     38750     12917  TIP3      H1             -0.8342366405       21.6763977139       -7.9258796465  W2        12917           0.0000000000
     38751     12917  TIP3      H2             -2.3077966405       21.4478977139       -7.6645696465  W2        12917           0.0000000000
     38752     12918  TIP3      OH2             0.2890433595       22.2677277139       -9.0908896465  W2        12918           0.0000000000
     38753     12918  TIP3      H1              0.9007933595       21.7532977139       -9.6175296465  W2        12918           0.0000000000
     38754     12918  TIP3      H2              0.6713833595       23.1449377139       -9.0674496465  W2        12918           0.0000000000
     38755     12919  TIP3      OH2           -14.2539666405       21.6554877139       -9.7146996465  W2        12919           0.0000000000
     38756     12919  TIP3      H1            -15.0309866405       21.4209777139      -10.2221096465  W2        12919           0.0000000000
     38757     12919  TIP3      H2            -13.7236066405       20.8586977139       -9.7058996465  W2        12919           0.0000000000
     38758     12920  TIP3      OH2           -15.4176266405       21.4532977139      -13.9110896465  W2        12920           0.0000000000
     38759     12920  TIP3      H1            -14.9785566405       22.0643477139      -14.5027396465  W2        12920           0.0000000000
     38760     12920  TIP3      H2            -16.0513866405       21.9917077139      -13.4370896465  W2        12920           0.0000000000
     38761     12921  TIP3      OH2            -9.6747066405       21.5821977139       -9.9013896465  W2        12921           0.0000000000
     38762     12921  TIP3      H1             -8.8003666405       21.9706277139       -9.9309596465  W2        12921           0.0000000000
     38763     12921  TIP3      H2             -9.8106266405       21.3669777139       -8.9786696465  W2        12921           0.0000000000
     38764     12922  TIP3      OH2            -4.1178666405       21.6121777139       -8.2522196465  W2        12922           0.0000000000
     38765     12922  TIP3      H1             -4.0417066405       21.7073377139       -9.2016196465  W2        12922           0.0000000000
     38766     12922  TIP3      H2             -4.3929466405       20.7044677139       -8.1233096465  W2        12922           0.0000000000
     38767     12923  TIP3      OH2            -2.7646066405       21.6379577139      -12.5597196465  W2        12923           0.0000000000
     38768     12923  TIP3      H1             -3.4674966405       22.2528777139      -12.7695796465  W2        12923           0.0000000000
     38769     12923  TIP3      H2             -3.2094666405       20.8006277139      -12.4286296465  W2        12923           0.0000000000
     38770     12924  TIP3      OH2           -15.5166766405       37.4015177139      -13.0135796465  W2        12924           0.0000000000
     38771     12924  TIP3      H1            -16.2016866405       37.3634077139      -13.6810696465  W2        12924           0.0000000000
     38772     12924  TIP3      H2            -15.5129566405       38.3142777139      -12.7253696465  W2        12924           0.0000000000
     38773     12925  TIP3      OH2           -13.5567166405       23.3694477139      -15.4686796465  W2        12925           0.0000000000
     38774     12925  TIP3      H1            -13.0653766405       22.7396877139      -15.9961296465  W2        12925           0.0000000000
     38775     12925  TIP3      H2            -12.9330866405       23.6653877139      -14.8055596465  W2        12925           0.0000000000
     38776     12926  TIP3      OH2            -8.5307066405       23.6625977139      -13.0116296465  W2        12926           0.0000000000
     38777     12926  TIP3      H1             -8.3525766405       23.0159177139      -12.3287696465  W2        12926           0.0000000000
     38778     12926  TIP3      H2             -8.5840866405       24.4963677139      -12.5445196465  W2        12926           0.0000000000
     38779     12927  TIP3      OH2            -6.6523266405       38.6110077139      -14.6159596465  W2        12927           0.0000000000
     38780     12927  TIP3      H1             -5.7863066405       38.9777477139      -14.7941396465  W2        12927           0.0000000000
     38781     12927  TIP3      H2             -6.8990466405       38.1718077139      -15.4298796465  W2        12927           0.0000000000
     38782     12928  TIP3      OH2             0.0566333595       38.1740377139      -11.9368496465  W2        12928           0.0000000000
     38783     12928  TIP3      H1             -0.1376566405       37.4262477139      -12.5018896465  W2        12928           0.0000000000
     38784     12928  TIP3      H2              0.0176433595       38.9320477139      -12.5200596465  W2        12928           0.0000000000
     38785     12929  TIP3      OH2           -14.2961666405       22.1696777139       -0.1970796465  W2        12929           0.0000000000
     38786     12929  TIP3      H1            -14.6623466405       21.4039377139        0.2453903535  W2        12929           0.0000000000
     38787     12929  TIP3      H2            -13.3833166405       22.1986977139        0.0894303535  W2        12929           0.0000000000
     38788     12930  TIP3      OH2           -12.3230866405       21.5201177139        1.3386303535  W2        12930           0.0000000000
     38789     12930  TIP3      H1            -11.4247266405       21.2461377139        1.1539703535  W2        12930           0.0000000000
     38790     12930  TIP3      H2            -12.7097766405       20.7777177139        1.8028903535  W2        12930           0.0000000000
     38791     12931  TIP3      OH2           -13.6985566405       38.3215977139      -15.9883696465  W2        12931           0.0000000000
     38792     12931  TIP3      H1            -13.9660966405       38.6078877139      -15.1150596465  W2        12931           0.0000000000
     38793     12931  TIP3      H2            -12.9272966405       37.7755177139      -15.8361196465  W2        12931           0.0000000000
     38794     12932  TIP3      OH2            -3.9018566405       20.8526477139        1.5209103535  W2        12932           0.0000000000
     38795     12932  TIP3      H1             -3.8251366405       20.4267177139        2.3746803535  W2        12932           0.0000000000
     38796     12932  TIP3      H2             -3.0081966405       20.8661177139        1.1782603535  W2        12932           0.0000000000
     38797     12933  TIP3      OH2            -0.7257466405       36.9252777139        0.2133303535  W2        12933           0.0000000000
     38798     12933  TIP3      H1             -1.5075566405       36.7390777139       -0.3066096465  W2        12933           0.0000000000
     38799     12933  TIP3      H2             -0.7977566405       37.8547077139        0.4305803535  W2        12933           0.0000000000
     38800     12934  TIP3      OH2            13.6802933595       30.8117177139       -9.7559496465  W2        12934           0.0000000000
     38801     12934  TIP3      H1             13.7694033595       31.7555377139       -9.8882396465  W2        12934           0.0000000000
     38802     12934  TIP3      H2             13.0420533595       30.5363577139      -10.4140096465  W2        12934           0.0000000000
     38803     12935  TIP3      OH2            12.6134233595       30.0667877139       -6.3371296465  W2        12935           0.0000000000
     38804     12935  TIP3      H1             12.5751733595       29.4204177139       -5.6321696465  W2        12935           0.0000000000
     38805     12935  TIP3      H2             12.2910733595       29.6002277139       -7.1082596465  W2        12935           0.0000000000
     38806     12936  TIP3      OH2             4.9819233595       29.6809977139       -4.7441396465  W2        12936           0.0000000000
     38807     12936  TIP3      H1              5.0231333595       29.0553277139       -4.0208996465  W2        12936           0.0000000000
     38808     12936  TIP3      H2              5.6846933595       30.3048577139       -4.5620996465  W2        12936           0.0000000000
     38809     12937  TIP3      OH2            16.3194433595       33.0058277139       -8.0356196465  W2        12937           0.0000000000
     38810     12937  TIP3      H1             15.8787133595       32.2854277139       -7.5850596465  W2        12937           0.0000000000
     38811     12937  TIP3      H2             16.3064133595       33.7265477139       -7.4058496465  W2        12937           0.0000000000
     38812     12938  TIP3      OH2             5.9052333595       34.1308877139       -6.2092296465  W2        12938           0.0000000000
     38813     12938  TIP3      H1              5.5357533595       33.3289377139       -6.5787996465  W2        12938           0.0000000000
     38814     12938  TIP3      H2              6.8463433595       33.9623777139       -6.1628896465  W2        12938           0.0000000000
     38815     12939  TIP3      OH2             2.5152833595       27.7911477139      -10.8163496465  W2        12939           0.0000000000
     38816     12939  TIP3      H1              2.0676233595       28.6370177139      -10.8346996465  W2        12939           0.0000000000
     38817     12939  TIP3      H2              1.9544033595       27.2115677139      -11.3318396465  W2        12939           0.0000000000
     38818     12940  TIP3      OH2             3.2258933595       29.9531077139       -8.6905496465  W2        12940           0.0000000000
     38819     12940  TIP3      H1              3.4392433595       29.1832677139       -8.1632496465  W2        12940           0.0000000000
     38820     12940  TIP3      H2              3.9636533595       30.0427777139       -9.2937896465  W2        12940           0.0000000000
     38821     12941  TIP3      OH2            13.4309933595       38.1099977139       -7.8235796465  W2        12941           0.0000000000
     38822     12941  TIP3      H1             14.0506333595       37.4334677139       -8.0966596465  W2        12941           0.0000000000
     38823     12941  TIP3      H2             13.2227333595       37.8920777139       -6.9150896465  W2        12941           0.0000000000
     38824     12942  TIP3      OH2            11.0028633595       32.4989277139       -5.9310296465  W2        12942           0.0000000000
     38825     12942  TIP3      H1             11.3066533595       31.8130677139       -6.5256196465  W2        12942           0.0000000000
     38826     12942  TIP3      H2             11.7242633595       32.6177977139       -5.3132296465  W2        12942           0.0000000000
     38827     12943  TIP3      OH2            19.6658433595       24.1004577139       -5.0704096465  W2        12943           0.0000000000
     38828     12943  TIP3      H1             19.7150633595       24.7105777139       -4.3344996465  W2        12943           0.0000000000
     38829     12943  TIP3      H2             20.0913533595       24.5615477139       -5.7932996465  W2        12943           0.0000000000
     38830     12944  TIP3      OH2            14.1435633595       26.8931677139       -5.6035496465  W2        12944           0.0000000000
     38831     12944  TIP3      H1             14.2861533595       25.9468677139       -5.5833896465  W2        12944           0.0000000000
     38832     12944  TIP3      H2             14.0374633595       27.1001477139       -6.5320596465  W2        12944           0.0000000000
     38833     12945  TIP3      OH2             7.2983933595       24.9948077139       -8.3310696465  W2        12945           0.0000000000
     38834     12945  TIP3      H1              7.3415033595       25.8546577139       -8.7494396465  W2        12945           0.0000000000
     38835     12945  TIP3      H2              6.8408033595       24.4422777139       -8.9647496465  W2        12945           0.0000000000
     38836     12946  TIP3      OH2            15.0206633595       25.1253677139       -9.9302396465  W2        12946           0.0000000000
     38837     12946  TIP3      H1             15.6670933595       24.7966877139       -9.3054796465  W2        12946           0.0000000000
     38838     12946  TIP3      H2             15.5306033595       25.6432677139      -10.5530996465  W2        12946           0.0000000000
     38839     12947  TIP3      OH2             3.9185433595       27.3913877139       -7.5689296465  W2        12947           0.0000000000
     38840     12947  TIP3      H1              4.5722033595       26.8415577139       -7.1369196465  W2        12947           0.0000000000
     38841     12947  TIP3      H2              3.9424733595       27.1172877139       -8.4857296465  W2        12947           0.0000000000
     38842     12948  TIP3      OH2             9.0749933595       28.9415177139       -8.3537796465  W2        12948           0.0000000000
     38843     12948  TIP3      H1              9.6910933595       28.4150577139       -7.8443796465  W2        12948           0.0000000000
     38844     12948  TIP3      H2              8.4888733595       28.3013877139       -8.7574196465  W2        12948           0.0000000000
     38845     12949  TIP3      OH2            20.0573033595       25.5783777139       -2.8344296465  W2        12949           0.0000000000
     38846     12949  TIP3      H1             19.3687633595       26.2364477139       -2.9297696465  W2        12949           0.0000000000
     38847     12949  TIP3      H2             20.0727633595       25.3811677139       -1.8978896465  W2        12949           0.0000000000
     38848     12950  TIP3      OH2             6.1085833595       23.9126477139       -4.2569896465  W2        12950           0.0000000000
     38849     12950  TIP3      H1              5.8897533595       24.4427077139       -5.0233896465  W2        12950           0.0000000000
     38850     12950  TIP3      H2              5.4406733595       24.1391977139       -3.6098496465  W2        12950           0.0000000000
     38851     12951  TIP3      OH2            13.4775633595       33.4127577139      -10.7130796465  W2        12951           0.0000000000
     38852     12951  TIP3      H1             13.1820733595       33.0899877139      -11.5643896465  W2        12951           0.0000000000
     38853     12951  TIP3      H2             13.1533433595       34.3124277139      -10.6718196465  W2        12951           0.0000000000
     38854     12952  TIP3      OH2             8.6777233595       31.5882177139       -3.9696196465  W2        12952           0.0000000000
     38855     12952  TIP3      H1              7.9376333595       32.1863677139       -3.8660996465  W2        12952           0.0000000000
     38856     12952  TIP3      H2              9.3916733595       32.1421777139       -4.2852596465  W2        12952           0.0000000000
     38857     12953  TIP3      OH2            16.7845033595       24.4162977139       -7.9496496465  W2        12953           0.0000000000
     38858     12953  TIP3      H1             16.5693033595       23.6506377139       -7.4170496465  W2        12953           0.0000000000
     38859     12953  TIP3      H2             17.4402433595       24.8887577139       -7.4367996465  W2        12953           0.0000000000
     38860     12954  TIP3      OH2             5.7023133595       25.8048277139       -6.3047696465  W2        12954           0.0000000000
     38861     12954  TIP3      H1              6.3159433595       26.4375877139       -5.9315296465  W2        12954           0.0000000000
     38862     12954  TIP3      H2              6.2143833595       25.3323277139       -6.9610796465  W2        12954           0.0000000000
     38863     12955  TIP3      OH2             7.0851533595       33.5525177139       -3.1824696465  W2        12955           0.0000000000
     38864     12955  TIP3      H1              7.0799133595       34.4318677139       -3.5605396465  W2        12955           0.0000000000
     38865     12955  TIP3      H2              6.2315633595       33.4689277139       -2.7574796465  W2        12955           0.0000000000
     38866     12956  TIP3      OH2             3.2062433595       33.2233077139      -12.4005396465  W2        12956           0.0000000000
     38867     12956  TIP3      H1              2.9343333595       33.4524077139      -13.2892496465  W2        12956           0.0000000000
     38868     12956  TIP3      H2              3.2518133595       34.0611877139      -11.9400096465  W2        12956           0.0000000000
     38869     12957  TIP3      OH2            16.8312133595       34.8448977139       -5.6876896465  W2        12957           0.0000000000
     38870     12957  TIP3      H1             15.8895833595       34.9032877139       -5.5259996465  W2        12957           0.0000000000
     38871     12957  TIP3      H2             17.1078233595       35.7509477139       -5.8247196465  W2        12957           0.0000000000
     38872     12958  TIP3      OH2            17.1319133595       23.1314277139       -4.2702996465  W2        12958           0.0000000000
     38873     12958  TIP3      H1             16.3958333595       23.7421377139       -4.3081696465  W2        12958           0.0000000000
     38874     12958  TIP3      H2             17.8153133595       23.5463277139       -4.7966596465  W2        12958           0.0000000000
     38875     12959  TIP3      OH2            10.1350533595       21.2181577139       -6.8044996465  W2        12959           0.0000000000
     38876     12959  TIP3      H1             10.0174733595       20.2697577139       -6.8586696465  W2        12959           0.0000000000
     38877     12959  TIP3      H2              9.2800633595       21.5507677139       -6.5313896465  W2        12959           0.0000000000
     38878     12960  TIP3      OH2            15.0833333595       36.6262477139       -9.0625296465  W2        12960           0.0000000000
     38879     12960  TIP3      H1             15.5085633595       35.9190377139       -9.5475696465  W2        12960           0.0000000000
     38880     12960  TIP3      H2             15.4003333595       37.4275177139       -9.4793096465  W2        12960           0.0000000000
     38881     12961  TIP3      OH2            16.2429833595       34.5270977139      -10.5538696465  W2        12961           0.0000000000
     38882     12961  TIP3      H1             15.9854633595       33.8371077139      -11.1652796465  W2        12961           0.0000000000
     38883     12961  TIP3      H2             16.3140633595       34.0842177139       -9.7082796465  W2        12961           0.0000000000
     38884     12962  TIP3      OH2            17.9290033595       33.0937677139       -2.0765196465  W2        12962           0.0000000000
     38885     12962  TIP3      H1             18.0686333595       32.5020177139       -2.8158196465  W2        12962           0.0000000000
     38886     12962  TIP3      H2             18.0962833595       33.9663577139       -2.4326396465  W2        12962           0.0000000000
     38887     12963  TIP3      OH2            12.4015433595       30.0557177139      -12.3039196465  W2        12963           0.0000000000
     38888     12963  TIP3      H1             11.6900933595       30.5906877139      -12.6558696465  W2        12963           0.0000000000
     38889     12963  TIP3      H2             13.0925033595       30.1109277139      -12.9640296465  W2        12963           0.0000000000
     38890     12964  TIP3      OH2            12.4554633595       28.5131477139      -15.2654196465  W2        12964           0.0000000000
     38891     12964  TIP3      H1             13.1564533595       28.5358377139      -14.6140196465  W2        12964           0.0000000000
     38892     12964  TIP3      H2             12.7577533595       27.8851177139      -15.9214896465  W2        12964           0.0000000000
     38893     12965  TIP3      OH2            19.7709333595       29.4335677139       -4.0104796465  W2        12965           0.0000000000
     38894     12965  TIP3      H1             19.1183433595       30.1281277139       -3.9213896465  W2        12965           0.0000000000
     38895     12965  TIP3      H2             20.2359633595       29.6436577139       -4.8203196465  W2        12965           0.0000000000
     38896     12966  TIP3      OH2            15.8073133595       30.2650477139      -11.3523296465  W2        12966           0.0000000000
     38897     12966  TIP3      H1             15.0754133595       30.4934177139      -10.7792696465  W2        12966           0.0000000000
     38898     12966  TIP3      H2             16.2545333595       29.5513177139      -10.8975796465  W2        12966           0.0000000000
     38899     12967  TIP3      OH2            15.7046633595       28.4393077139       -2.2846296465  W2        12967           0.0000000000
     38900     12967  TIP3      H1             15.7845733595       29.2027477139       -1.7127796465  W2        12967           0.0000000000
     38901     12967  TIP3      H2             15.1034333595       28.7185477139       -2.9751196465  W2        12967           0.0000000000
     38902     12968  TIP3      OH2             7.4526833595       30.8956677139       -9.4698296465  W2        12968           0.0000000000
     38903     12968  TIP3      H1              7.1222033595       30.5250077139      -10.2881296465  W2        12968           0.0000000000
     38904     12968  TIP3      H2              8.0410933595       30.2250677139       -9.1229996465  W2        12968           0.0000000000
     38905     12969  TIP3      OH2             8.8194333595       34.3237277139       -6.7886096465  W2        12969           0.0000000000
     38906     12969  TIP3      H1              8.7245633595       33.7450377139       -7.5451496465  W2        12969           0.0000000000
     38907     12969  TIP3      H2              9.5487933595       33.9522977139       -6.2923296465  W2        12969           0.0000000000
     38908     12970  TIP3      OH2             7.8192333595       29.6642277139       -5.8363296465  W2        12970           0.0000000000
     38909     12970  TIP3      H1              8.3844833595       29.7856477139       -6.5992096465  W2        12970           0.0000000000
     38910     12970  TIP3      H2              8.1381233595       30.3017277139       -5.1974796465  W2        12970           0.0000000000
     38911     12971  TIP3      OH2            14.1284533595       35.1674177139       -5.1022796465  W2        12971           0.0000000000
     38912     12971  TIP3      H1             13.8881133595       35.8297277139       -4.4543596465  W2        12971           0.0000000000
     38913     12971  TIP3      H2             13.9302733595       34.3329377139       -4.6773196465  W2        12971           0.0000000000
     38914     12972  TIP3      OH2             8.6993033595       34.0634977139       -1.1191396465  W2        12972           0.0000000000
     38915     12972  TIP3      H1              8.3880533595       34.8458177139       -0.6638196465  W2        12972           0.0000000000
     38916     12972  TIP3      H2              8.0493233595       33.9104077139       -1.8049396465  W2        12972           0.0000000000
     38917     12973  TIP3      OH2            14.6782633595       29.4273377139      -13.6672096465  W2        12973           0.0000000000
     38918     12973  TIP3      H1             15.2578133595       29.5773677139      -12.9203196465  W2        12973           0.0000000000
     38919     12973  TIP3      H2             15.0922633595       29.8980777139      -14.3905696465  W2        12973           0.0000000000
     38920     12974  TIP3      OH2             5.6192933595       30.2616077139       -1.8905696465  W2        12974           0.0000000000
     38921     12974  TIP3      H1              5.6896133595       30.9122877139       -1.1920696465  W2        12974           0.0000000000
     38922     12974  TIP3      H2              4.7285133595       30.3643577139       -2.2254796465  W2        12974           0.0000000000
     38923     12975  TIP3      OH2            12.4047533595       36.1641877139      -10.2318996465  W2        12975           0.0000000000
     38924     12975  TIP3      H1             12.8785133595       36.4598177139       -9.4544796465  W2        12975           0.0000000000
     38925     12975  TIP3      H2             11.8416833595       36.9023477139      -10.4649396465  W2        12975           0.0000000000
     38926     12976  TIP3      OH2             6.9388933595       36.1349977139       -0.3557596465  W2        12976           0.0000000000
     38927     12976  TIP3      H1              6.9464233595       35.9989677139       -1.3032096465  W2        12976           0.0000000000
     38928     12976  TIP3      H2              6.0229333595       36.0178077139       -0.1037596465  W2        12976           0.0000000000
     38929     12977  TIP3      OH2            18.3771033595       21.1773777139      -13.8542396465  W2        12977           0.0000000000
     38930     12977  TIP3      H1             17.4771733595       21.3162777139      -13.5591796465  W2        12977           0.0000000000
     38931     12977  TIP3      H2             18.6289433595       22.0088377139      -14.2560696465  W2        12977           0.0000000000
     38932     12978  TIP3      OH2             6.4429533595       29.9650977139      -11.8805496465  W2        12978           0.0000000000
     38933     12978  TIP3      H1              6.1510833595       30.7332677139      -12.3714196465  W2        12978           0.0000000000
     38934     12978  TIP3      H2              5.7684733595       29.3057177139      -12.0434096465  W2        12978           0.0000000000
     38935     12979  TIP3      OH2            19.5662433595       35.5436177139      -15.4778496465  W2        12979           0.0000000000
     38936     12979  TIP3      H1             19.6395933595       36.4826377139      -15.3073196465  W2        12979           0.0000000000
     38937     12979  TIP3      H2             20.4717533595       35.2384777139      -15.5341196465  W2        12979           0.0000000000
     38938     12980  TIP3      OH2             2.5359633595       32.3280177139       -3.0655696465  W2        12980           0.0000000000
     38939     12980  TIP3      H1              2.0348033595       32.2999577139       -3.8805996465  W2        12980           0.0000000000
     38940     12980  TIP3      H2              2.5413333595       31.4223377139       -2.7558396465  W2        12980           0.0000000000
     38941     12981  TIP3      OH2             2.2862333595       35.1083977139       -6.1815496465  W2        12981           0.0000000000
     38942     12981  TIP3      H1              3.2322933595       34.9640977139       -6.2005996465  W2        12981           0.0000000000
     38943     12981  TIP3      H2              2.1738633595       35.8926777139       -5.6444296465  W2        12981           0.0000000000
     38944     12982  TIP3      OH2            20.4840833595       35.7743677139       -0.4991796465  W2        12982           0.0000000000
     38945     12982  TIP3      H1             20.4347633595       34.8191777139       -0.5364196465  W2        12982           0.0000000000
     38946     12982  TIP3      H2             19.6573133595       36.0418977139       -0.0977996465  W2        12982           0.0000000000
     38947     12983  TIP3      OH2            11.4624833595       35.3482877139       -1.6230396465  W2        12983           0.0000000000
     38948     12983  TIP3      H1             11.5499433595       36.1747477139       -1.1481296465  W2        12983           0.0000000000
     38949     12983  TIP3      H2             10.5989933595       35.0186677139       -1.3741096465  W2        12983           0.0000000000
     38950     12984  TIP3      OH2            11.8770633595       39.1206577139      -11.8169796465  W2        12984           0.0000000000
     38951     12984  TIP3      H1             11.8016633595       38.9993777139      -12.7634596465  W2        12984           0.0000000000
     38952     12984  TIP3      H2             11.9099333595       40.0699277139      -11.6985196465  W2        12984           0.0000000000
     38953     12985  TIP3      OH2             5.5304433595       37.9093577139      -10.0360796465  W2        12985           0.0000000000
     38954     12985  TIP3      H1              5.6824833595       37.5613977139       -9.1574296465  W2        12985           0.0000000000
     38955     12985  TIP3      H2              4.6794833595       37.5530877139      -10.2913596465  W2        12985           0.0000000000
     38956     12986  TIP3      OH2            14.9786633595       38.2746777139      -14.8147396465  W2        12986           0.0000000000
     38957     12986  TIP3      H1             15.3535033595       37.5302877139      -15.2854796465  W2        12986           0.0000000000
     38958     12986  TIP3      H2             14.9830333595       38.0047377139      -13.8964096465  W2        12986           0.0000000000
     38959     12987  TIP3      OH2            14.6474733595       38.2003877139      -12.0655196465  W2        12987           0.0000000000
     38960     12987  TIP3      H1             13.7124533595       38.3005777139      -11.8868196465  W2        12987           0.0000000000
     38961     12987  TIP3      H2             14.9276633595       37.4909877139      -11.4871996465  W2        12987           0.0000000000
     38962     12988  TIP3      OH2            17.6360633595       27.2676177139       -0.0189596465  W2        12988           0.0000000000
     38963     12988  TIP3      H1             17.2287433595       27.7481777139       -0.7396296465  W2        12988           0.0000000000
     38964     12988  TIP3      H2             17.6766333595       26.3622177139       -0.3268796465  W2        12988           0.0000000000
     38965     12989  TIP3      OH2             4.7850133595       33.6515577139       -2.0222896465  W2        12989           0.0000000000
     38966     12989  TIP3      H1              5.0011433595       33.2901177139       -1.1627096465  W2        12989           0.0000000000
     38967     12989  TIP3      H2              3.9294833595       33.2769377139       -2.2319396465  W2        12989           0.0000000000
     38968     12990  TIP3      OH2             7.4038133595       22.1216077139       -6.0268696465  W2        12990           0.0000000000
     38969     12990  TIP3      H1              6.5421833595       22.0344277139       -6.4345796465  W2        12990           0.0000000000
     38970     12990  TIP3      H2              7.3813833595       22.9776177139       -5.5991096465  W2        12990           0.0000000000
     38971     12991  TIP3      OH2            12.0665933595       21.8436477139       -2.6521696465  W2        12991           0.0000000000
     38972     12991  TIP3      H1             12.4869033595       21.4283577139       -1.8991096465  W2        12991           0.0000000000
     38973     12991  TIP3      H2             11.1335533595       21.6649777139       -2.5349696465  W2        12991           0.0000000000
     38974     12992  TIP3      OH2            15.3930833595       25.5991677139       -1.7987196465  W2        12992           0.0000000000
     38975     12992  TIP3      H1             14.8790333595       25.4733877139       -1.0011196465  W2        12992           0.0000000000
     38976     12992  TIP3      H2             15.2375533595       26.5114777139       -2.0430996465  W2        12992           0.0000000000
     38977     12993  TIP3      OH2            16.1555733595       30.4601677139      -16.0374196465  W2        12993           0.0000000000
     38978     12993  TIP3      H1             16.1976533595       30.2375577139      -16.9674196465  W2        12993           0.0000000000
     38979     12993  TIP3      H2             17.0047833595       30.8588777139      -15.8474296465  W2        12993           0.0000000000
     38980     12994  TIP3      OH2            11.7283233595       24.3359877139      -15.3670896465  W2        12994           0.0000000000
     38981     12994  TIP3      H1             11.4748033595       24.3551477139      -14.4442796465  W2        12994           0.0000000000
     38982     12994  TIP3      H2             11.4715333595       23.4645277139      -15.6684696465  W2        12994           0.0000000000
     38983     12995  TIP3      OH2             7.4948233595       27.0870577139       -4.9318496465  W2        12995           0.0000000000
     38984     12995  TIP3      H1              6.8530333595       27.0467877139       -4.2228396465  W2        12995           0.0000000000
     38985     12995  TIP3      H2              7.5320233595       28.0135277139       -5.1695496465  W2        12995           0.0000000000
     38986     12996  TIP3      OH2             7.4917333595       27.3080677139      -10.0198496465  W2        12996           0.0000000000
     38987     12996  TIP3      H1              6.5990233595       26.9676777139      -10.0784696465  W2        12996           0.0000000000
     38988     12996  TIP3      H2              7.9423933595       26.9311577139      -10.7755296465  W2        12996           0.0000000000
     38989     12997  TIP3      OH2            13.0272833595       27.7240977139      -11.2027696465  W2        12997           0.0000000000
     38990     12997  TIP3      H1             12.6183133595       28.5389577139      -11.4942896465  W2        12997           0.0000000000
     38991     12997  TIP3      H2             13.7479033595       27.5841077139      -11.8170596465  W2        12997           0.0000000000
     38992     12998  TIP3      OH2            12.1294433595       27.8997377139        0.2853003535  W2        12998           0.0000000000
     38993     12998  TIP3      H1             11.5668233595       27.1948977139        0.6060803535  W2        12998           0.0000000000
     38994     12998  TIP3      H2             12.9557833595       27.7789277139        0.7530603535  W2        12998           0.0000000000
     38995     12999  TIP3      OH2            14.0320533595       27.1701377139       -8.3887996465  W2        12999           0.0000000000
     38996     12999  TIP3      H1             13.8365033595       27.7758177139       -9.1037396465  W2        12999           0.0000000000
     38997     12999  TIP3      H2             14.2133133595       26.3366577139       -8.8231696465  W2        12999           0.0000000000
     38998     13000  TIP3      OH2             5.2448733595       27.4074077139       -3.0646496465  W2        13000           0.0000000000
     38999     13000  TIP3      H1              5.2068133595       27.8075677139       -2.1959396465  W2        13000           0.0000000000
     39000     13000  TIP3      H2              4.7539833595       26.5906477139       -2.9743596465  W2        13000           0.0000000000
     39001     13001  TIP3      OH2             8.6106133595       24.7816377139      -16.2660496465  W2        13001           0.0000000000
     39002     13001  TIP3      H1              8.1796833595       24.3366477139      -15.5363096465  W2        13001           0.0000000000
     39003     13001  TIP3      H2              7.8924833595       25.1532677139      -16.7782996465  W2        13001           0.0000000000
     39004     13002  TIP3      OH2             1.8529533595       24.5235877139       -9.2141796465  W2        13002           0.0000000000
     39005     13002  TIP3      H1              2.4837233595       24.4947977139       -8.4947896465  W2        13002           0.0000000000
     39006     13002  TIP3      H2              2.3023833595       24.0984577139       -9.9445896465  W2        13002           0.0000000000
     39007     13003  TIP3      OH2             3.1271633595       25.2697877139      -13.7901396465  W2        13003           0.0000000000
     39008     13003  TIP3      H1              3.6013333595       25.8607777139      -14.3750496465  W2        13003           0.0000000000
     39009     13003  TIP3      H2              2.4098033595       25.8000777139      -13.4431296465  W2        13003           0.0000000000
     39010     13004  TIP3      OH2            13.2959733595       28.8082677139       -3.7175596465  W2        13004           0.0000000000
     39011     13004  TIP3      H1             13.6194533595       28.1772377139       -4.3605096465  W2        13004           0.0000000000
     39012     13004  TIP3      H2             12.8559033595       28.2734877139       -3.0568196465  W2        13004           0.0000000000
     39013     13005  TIP3      OH2            10.0732633595       24.7358177139       -8.9334396465  W2        13005           0.0000000000
     39014     13005  TIP3      H1              9.1623733595       24.7924977139       -8.6448396465  W2        13005           0.0000000000
     39015     13005  TIP3      H2             10.5785533595       24.6753677139       -8.1227196465  W2        13005           0.0000000000
     39016     13006  TIP3      OH2             4.9016033595       26.3644477139      -10.1066796465  W2        13006           0.0000000000
     39017     13006  TIP3      H1              4.0124033595       26.4639977139      -10.4467196465  W2        13006           0.0000000000
     39018     13006  TIP3      H2              5.1980933595       25.5227477139      -10.4528896465  W2        13006           0.0000000000
     39019     13007  TIP3      OH2             8.5547833595       26.3647077139      -12.4502196465  W2        13007           0.0000000000
     39020     13007  TIP3      H1              9.4863333595       26.4937077139      -12.2719096465  W2        13007           0.0000000000
     39021     13007  TIP3      H2              8.3398133595       27.0341377139      -13.0997496465  W2        13007           0.0000000000
     39022     13008  TIP3      OH2            14.4784533595       23.9704477139       -5.6692596465  W2        13008           0.0000000000
     39023     13008  TIP3      H1             13.8016133595       24.1017577139       -5.0052896465  W2        13008           0.0000000000
     39024     13008  TIP3      H2             13.9929433595       23.8153977139       -6.4794896465  W2        13008           0.0000000000
     39025     13009  TIP3      OH2             7.2288033595       27.5589277139      -14.8836096465  W2        13009           0.0000000000
     39026     13009  TIP3      H1              6.6863133595       27.1793077139      -15.5748496465  W2        13009           0.0000000000
     39027     13009  TIP3      H2              8.0622933595       27.7533977139      -15.3121996465  W2        13009           0.0000000000
     39028     13010  TIP3      OH2            17.7659633595       39.6419877139        0.6075003535  W2        13010           0.0000000000
     39029     13010  TIP3      H1             17.9658333595       40.0661777139       -0.2269696465  W2        13010           0.0000000000
     39030     13010  TIP3      H2             18.4213333595       39.9858077139        1.2145403535  W2        13010           0.0000000000
     39031     13011  TIP3      OH2             5.3639433595       32.1161177139        0.2155503535  W2        13011           0.0000000000
     39032     13011  TIP3      H1              6.0961833595       32.3707077139        0.7770003535  W2        13011           0.0000000000
     39033     13011  TIP3      H2              4.5838133595       32.3206577139        0.7310903535  W2        13011           0.0000000000
     39034     13012  TIP3      OH2            11.3932333595       27.5231177139       -7.0464796465  W2        13012           0.0000000000
     39035     13012  TIP3      H1             11.9575733595       26.9767777139       -7.5935196465  W2        13012           0.0000000000
     39036     13012  TIP3      H2             11.2455733595       27.0013077139       -6.2577196465  W2        13012           0.0000000000
     39037     13013  TIP3      OH2             6.3952033595       23.6597277139      -10.6279996465  W2        13013           0.0000000000
     39038     13013  TIP3      H1              6.0781533595       22.7572577139      -10.6634596465  W2        13013           0.0000000000
     39039     13013  TIP3      H2              7.1766133595       23.6614677139      -11.1808396465  W2        13013           0.0000000000
     39040     13014  TIP3      OH2            10.0198233595       25.9117277139       -4.6324396465  W2        13014           0.0000000000
     39041     13014  TIP3      H1              9.1843533595       26.3656777139       -4.5221996465  W2        13014           0.0000000000
     39042     13014  TIP3      H2             10.5438833595       26.1875777139       -3.8804496465  W2        13014           0.0000000000
     39043     13015  TIP3      OH2            10.5640833595       32.1244977139      -12.9477996465  W2        13015           0.0000000000
     39044     13015  TIP3      H1              9.8191833595       31.6170277139      -13.2700096465  W2        13015           0.0000000000
     39045     13015  TIP3      H2             10.4298033595       32.1732977139      -12.0013196465  W2        13015           0.0000000000
     39046     13016  TIP3      OH2            17.7139733595       31.2573177139       -4.1610396465  W2        13016           0.0000000000
     39047     13016  TIP3      H1             18.3558533595       31.7139477139       -4.7048196465  W2        13016           0.0000000000
     39048     13016  TIP3      H2             16.8836633595       31.3705577139       -4.6236296465  W2        13016           0.0000000000
     39049     13017  TIP3      OH2            14.4617633595       24.9384877139      -14.7485396465  W2        13017           0.0000000000
     39050     13017  TIP3      H1             13.5231833595       25.0500477139      -14.8996596465  W2        13017           0.0000000000
     39051     13017  TIP3      H2             14.7589733595       25.7951777139      -14.4419696465  W2        13017           0.0000000000
     39052     13018  TIP3      OH2            12.0832933595       32.3088277139       -1.7108896465  W2        13018           0.0000000000
     39053     13018  TIP3      H1             11.7379033595       31.9270677139       -0.9039296465  W2        13018           0.0000000000
     39054     13018  TIP3      H2             11.8833033595       33.2421877139       -1.6395996465  W2        13018           0.0000000000
     39055     13019  TIP3      OH2            15.1801133595       26.8057577139      -13.0877996465  W2        13019           0.0000000000
     39056     13019  TIP3      H1             16.0720133595       26.6682577139      -12.7686796465  W2        13019           0.0000000000
     39057     13019  TIP3      H2             15.2364733595       27.5963677139      -13.6244496465  W2        13019           0.0000000000
     39058     13020  TIP3      OH2             5.6889133595       31.4194977139       -7.1780096465  W2        13020           0.0000000000
     39059     13020  TIP3      H1              6.4336333595       31.4170677139       -7.7793596465  W2        13020           0.0000000000
     39060     13020  TIP3      H2              5.7665733595       30.5958777139       -6.6964996465  W2        13020           0.0000000000
     39061     13021  TIP3      OH2            12.6894933595       33.5829277139      -13.9223396465  W2        13021           0.0000000000
     39062     13021  TIP3      H1             12.3943333595       34.4097177139      -13.5408596465  W2        13021           0.0000000000
     39063     13021  TIP3      H2             11.9864933595       32.9636177139      -13.7261996465  W2        13021           0.0000000000
     39064     13022  TIP3      OH2             2.6968833595       29.8801877139       -1.8631596465  W2        13022           0.0000000000
     39065     13022  TIP3      H1              2.9197433595       29.4621477139       -1.0314096465  W2        13022           0.0000000000
     39066     13022  TIP3      H2              2.0948933595       29.2676877139       -2.2858796465  W2        13022           0.0000000000
     39067     13023  TIP3      OH2             9.7133733595       29.3971777139        0.3498103535  W2        13023           0.0000000000
     39068     13023  TIP3      H1              9.4174533595       29.2314777139       -0.5452796465  W2        13023           0.0000000000
     39069     13023  TIP3      H2             10.6448933595       29.1772077139        0.3392003535  W2        13023           0.0000000000
     39070     13024  TIP3      OH2            14.3336533595       34.7703777139       -1.7603896465  W2        13024           0.0000000000
     39071     13024  TIP3      H1             13.4330833595       34.9536377139       -2.0279996465  W2        13024           0.0000000000
     39072     13024  TIP3      H2             14.3677633595       35.0293077139       -0.8395096465  W2        13024           0.0000000000
     39073     13025  TIP3      OH2            20.0649833595       27.0151677139      -13.3931296465  W2        13025           0.0000000000
     39074     13025  TIP3      H1             19.5106133595       26.6189677139      -14.0653796465  W2        13025           0.0000000000
     39075     13025  TIP3      H2             20.1653433595       27.9256877139      -13.6707996465  W2        13025           0.0000000000
     39076     13026  TIP3      OH2            20.0281833595       32.8153377139       -0.5559796465  W2        13026           0.0000000000
     39077     13026  TIP3      H1             19.1770333595       33.0537177139       -0.9233396465  W2        13026           0.0000000000
     39078     13026  TIP3      H2             20.6185233595       32.7986577139       -1.3092696465  W2        13026           0.0000000000
     39079     13027  TIP3      OH2            18.3601533595       35.8012077139      -12.9279196465  W2        13027           0.0000000000
     39080     13027  TIP3      H1             17.9872633595       34.9755877139      -12.6188596465  W2        13027           0.0000000000
     39081     13027  TIP3      H2             18.6375033595       35.6181477139      -13.8255796465  W2        13027           0.0000000000
     39082     13028  TIP3      OH2            15.5205433595       30.6091577139       -5.9067296465  W2        13028           0.0000000000
     39083     13028  TIP3      H1             14.5922333595       30.3773477139       -5.9337996465  W2        13028           0.0000000000
     39084     13028  TIP3      H2             15.9716533595       29.8321377139       -6.2368496465  W2        13028           0.0000000000
     39085     13029  TIP3      OH2             8.0638533595       34.9373177139       -9.7738596465  W2        13029           0.0000000000
     39086     13029  TIP3      H1              8.5910733595       35.7107577139       -9.9739796465  W2        13029           0.0000000000
     39087     13029  TIP3      H2              7.1837033595       35.1622377139      -10.0754596465  W2        13029           0.0000000000
     39088     13030  TIP3      OH2             3.8186233595       29.7997277139      -15.1866196465  W2        13030           0.0000000000
     39089     13030  TIP3      H1              4.4346133595       30.4264477139      -14.8071396465  W2        13030           0.0000000000
     39090     13030  TIP3      H2              2.9568833595       30.1157077139      -14.9149696465  W2        13030           0.0000000000
     39091     13031  TIP3      OH2             9.4910833595       32.6003077139      -10.1974296465  W2        13031           0.0000000000
     39092     13031  TIP3      H1              9.2500833595       33.5257477139      -10.1558996465  W2        13031           0.0000000000
     39093     13031  TIP3      H2              8.7504433595       32.1414377139       -9.8010396465  W2        13031           0.0000000000
     39094     13032  TIP3      OH2            10.0057433595       36.7496677139       -3.8823196465  W2        13032           0.0000000000
     39095     13032  TIP3      H1             10.3682133595       37.6042277139       -4.1158796465  W2        13032           0.0000000000
     39096     13032  TIP3      H2             10.5372633595       36.4578277139       -3.1416896465  W2        13032           0.0000000000
     39097     13033  TIP3      OH2             8.1741633595       37.6220677139      -10.6522096465  W2        13033           0.0000000000
     39098     13033  TIP3      H1              7.2242133595       37.7278077139      -10.6008796465  W2        13033           0.0000000000
     39099     13033  TIP3      H2              8.5259733595       38.4428077139      -10.3074596465  W2        13033           0.0000000000
     39100     13034  TIP3      OH2            13.5498233595       32.8487377139       -4.1817596465  W2        13034           0.0000000000
     39101     13034  TIP3      H1             13.1239533595       32.6209077139       -3.3553596465  W2        13034           0.0000000000
     39102     13034  TIP3      H2             14.1304033595       32.1099177139       -4.3642296465  W2        13034           0.0000000000
     39103     13035  TIP3      OH2            15.7527133595       33.7777877139      -15.1078596465  W2        13035           0.0000000000
     39104     13035  TIP3      H1             16.1060233595       33.3977677139      -14.3035096465  W2        13035           0.0000000000
     39105     13035  TIP3      H2             14.8040633595       33.6842677139      -15.0209296465  W2        13035           0.0000000000
     39106     13036  TIP3      OH2            16.2082433595       37.4006877139       -1.7122796465  W2        13036           0.0000000000
     39107     13036  TIP3      H1             15.6065633595       36.8449777139       -2.2076496465  W2        13036           0.0000000000
     39108     13036  TIP3      H2             16.4896133595       38.0676677139       -2.3385396465  W2        13036           0.0000000000
     39109     13037  TIP3      OH2            20.2561533595       38.2570377139      -14.9068396465  W2        13037           0.0000000000
     39110     13037  TIP3      H1             20.9999433595       38.8430877139      -15.0466796465  W2        13037           0.0000000000
     39111     13037  TIP3      H2             19.5619633595       38.8256177139      -14.5735996465  W2        13037           0.0000000000
     39112     13038  TIP3      OH2             4.3308333595       24.6334577139       -2.3050196465  W2        13038           0.0000000000
     39113     13038  TIP3      H1              3.4380633595       24.9719977139       -2.3726196465  W2        13038           0.0000000000
     39114     13038  TIP3      H2              4.2321133595       23.7780677139       -1.8869396465  W2        13038           0.0000000000
     39115     13039  TIP3      OH2            16.6186433595       32.4499877139      -12.8810696465  W2        13039           0.0000000000
     39116     13039  TIP3      H1             16.3414033595       31.7219177139      -12.3249596465  W2        13039           0.0000000000
     39117     13039  TIP3      H2             17.5459433595       32.5691877139      -12.6758096465  W2        13039           0.0000000000
     39118     13040  TIP3      OH2             3.9820333595       36.4378977139       -3.8700796465  W2        13040           0.0000000000
     39119     13040  TIP3      H1              4.1990633595       35.5061377139       -3.9011096465  W2        13040           0.0000000000
     39120     13040  TIP3      H2              4.2283833595       36.7123977139       -2.9867996465  W2        13040           0.0000000000
     39121     13041  TIP3      OH2             9.8434933595       34.8893977139      -16.6608596465  W2        13041           0.0000000000
     39122     13041  TIP3      H1             10.0824733595       34.1412077139      -17.2079696465  W2        13041           0.0000000000
     39123     13041  TIP3      H2              9.5746233595       34.5015677139      -15.8280796465  W2        13041           0.0000000000
     39124     13042  TIP3      OH2             8.7805533595       34.4597777139      -14.2045996465  W2        13042           0.0000000000
     39125     13042  TIP3      H1              8.9273533595       33.9397577139      -13.4145096465  W2        13042           0.0000000000
     39126     13042  TIP3      H2              8.7777233595       35.3665377139      -13.8980096465  W2        13042           0.0000000000
     39127     13043  TIP3      OH2             5.2336633595       31.7121077139      -13.6940596465  W2        13043           0.0000000000
     39128     13043  TIP3      H1              4.5475933595       32.0643577139      -13.1270896465  W2        13043           0.0000000000
     39129     13043  TIP3      H2              5.7564533595       32.4750677139      -13.9406296465  W2        13043           0.0000000000
     39130     13044  TIP3      OH2            13.0651733595       24.3744877139       -3.4151596465  W2        13044           0.0000000000
     39131     13044  TIP3      H1             13.7639633595       24.4483577139       -2.7651896465  W2        13044           0.0000000000
     39132     13044  TIP3      H2             12.6843133595       23.5099877139       -3.2608696465  W2        13044           0.0000000000
     39133     13045  TIP3      OH2            13.8496633595       24.0266577139      -12.3179296465  W2        13045           0.0000000000
     39134     13045  TIP3      H1             14.0694933595       24.4981977139      -13.1213896465  W2        13045           0.0000000000
     39135     13045  TIP3      H2             14.4080633595       24.4209177139      -11.6478696465  W2        13045           0.0000000000
     39136     13046  TIP3      OH2            11.5182733595       36.1571377139      -13.4551796465  W2        13046           0.0000000000
     39137     13046  TIP3      H1             10.7018833595       36.6541077139      -13.4027496465  W2        13046           0.0000000000
     39138     13046  TIP3      H2             12.0479033595       36.6324877139      -14.0952996465  W2        13046           0.0000000000
     39139     13047  TIP3      OH2            11.0496533595       25.7545377139      -11.4830896465  W2        13047           0.0000000000
     39140     13047  TIP3      H1             11.8619133595       26.2588577139      -11.4369196465  W2        13047           0.0000000000
     39141     13047  TIP3      H2             10.8049533595       25.6095077139      -10.5691296465  W2        13047           0.0000000000
     39142     13048  TIP3      OH2            11.5852933595       26.7408077139       -2.2984296465  W2        13048           0.0000000000
     39143     13048  TIP3      H1             11.7043233595       27.3143477139       -1.5413896465  W2        13048           0.0000000000
     39144     13048  TIP3      H2             12.2407533595       26.0527477139       -2.1836496465  W2        13048           0.0000000000
     39145     13049  TIP3      OH2            11.9333233595       22.8358377139      -10.5449796465  W2        13049           0.0000000000
     39146     13049  TIP3      H1             11.5866733595       23.4528977139       -9.9005496465  W2        13049           0.0000000000
     39147     13049  TIP3      H2             12.5920133595       23.3364077139      -11.0264296465  W2        13049           0.0000000000
     39148     13050  TIP3      OH2             8.8565833595       37.2008577139      -13.4734896465  W2        13050           0.0000000000
     39149     13050  TIP3      H1              9.0174533595       38.0006077139      -13.9742296465  W2        13050           0.0000000000
     39150     13050  TIP3      H2              8.6593633595       37.5074577139      -12.5884296465  W2        13050           0.0000000000
     39151     13051  TIP3      OH2             7.5910233595       23.8987777139      -13.8577296465  W2        13051           0.0000000000
     39152     13051  TIP3      H1              7.5075033595       24.7870877139      -13.5110896465  W2        13051           0.0000000000
     39153     13051  TIP3      H2              8.4810533595       23.6334477139      -13.6260496465  W2        13051           0.0000000000
     39154     13052  TIP3      OH2            17.7898733595       24.6478377139       -1.4634596465  W2        13052           0.0000000000
     39155     13052  TIP3      H1             16.8734533595       24.9100077139       -1.5510896465  W2        13052           0.0000000000
     39156     13052  TIP3      H2             18.1253733595       24.6447377139       -2.3599296465  W2        13052           0.0000000000
     39157     13053  TIP3      OH2            16.3919733595       28.3979377139       -7.3677296465  W2        13053           0.0000000000
     39158     13053  TIP3      H1             15.5944133595       27.9829577139       -7.6962296465  W2        13053           0.0000000000
     39159     13053  TIP3      H2             16.8370833595       27.7073077139       -6.8766796465  W2        13053           0.0000000000
     39160     13054  TIP3      OH2             5.8495533595       34.3259977139      -14.7972796465  W2        13054           0.0000000000
     39161     13054  TIP3      H1              6.4417033595       35.0254777139      -14.5210396465  W2        13054           0.0000000000
     39162     13054  TIP3      H2              6.3088533595       33.8929477139      -15.5168196465  W2        13054           0.0000000000
     39163     13055  TIP3      OH2             4.1654733595       26.9902977139      -15.6813396465  W2        13055           0.0000000000
     39164     13055  TIP3      H1              4.1207333595       27.9296077139      -15.5026396465  W2        13055           0.0000000000
     39165     13055  TIP3      H2              3.2777933595       26.7547877139      -15.9511296465  W2        13055           0.0000000000
     39166     13056  TIP3      OH2            17.4784333595       37.6541877139       -5.7453796465  W2        13056           0.0000000000
     39167     13056  TIP3      H1             17.3228633595       38.3326277139       -6.4024496465  W2        13056           0.0000000000
     39168     13056  TIP3      H2             18.4110733595       37.7261177139       -5.5423196465  W2        13056           0.0000000000
     39169     13057  TIP3      OH2             4.9736733595       21.7719577139       -7.0082396465  W2        13057           0.0000000000
     39170     13057  TIP3      H1              4.7446533595       21.8312077139       -7.9357396465  W2        13057           0.0000000000
     39171     13057  TIP3      H2              4.5310133595       20.9805077139       -6.7018296465  W2        13057           0.0000000000
     39172     13058  TIP3      OH2             3.9040033595       35.7126677139      -10.8476596465  W2        13058           0.0000000000
     39173     13058  TIP3      H1              3.0718633595       36.1849377139      -10.8205196465  W2        13058           0.0000000000
     39174     13058  TIP3      H2              4.4498333595       36.2224277139      -11.4463496465  W2        13058           0.0000000000
     39175     13059  TIP3      OH2             3.1923733595       38.3250377139        0.4821403535  W2        13059           0.0000000000
     39176     13059  TIP3      H1              3.7325933595       38.1084377139        1.2420603535  W2        13059           0.0000000000
     39177     13059  TIP3      H2              2.7111733595       37.5196377139        0.2923903535  W2        13059           0.0000000000
     39178     13060  TIP3      OH2             7.7897133595       37.2444777139        2.1025603535  W2        13060           0.0000000000
     39179     13060  TIP3      H1              8.5574333595       36.7855577139        2.4434803535  W2        13060           0.0000000000
     39180     13060  TIP3      H2              7.7683333595       37.0184577139        1.1726803535  W2        13060           0.0000000000
     39181     13061  TIP3      OH2            11.8816733595       36.7525377139      -16.5222596465  W2        13061           0.0000000000
     39182     13061  TIP3      H1             11.2377733595       36.1213977139      -16.2008896465  W2        13061           0.0000000000
     39183     13061  TIP3      H2             12.6435033595       36.2213377139      -16.7539096465  W2        13061           0.0000000000
     39184     13062  TIP3      OH2            14.3665833595       35.6245877139        0.8317103535  W2        13062           0.0000000000
     39185     13062  TIP3      H1             14.0155333595       34.7678877139        1.0747503535  W2        13062           0.0000000000
     39186     13062  TIP3      H2             15.0929033595       35.7672577139        1.4386103535  W2        13062           0.0000000000
     39187     13063  TIP3      OH2            16.4859633595       36.5695277139      -16.2884596465  W2        13063           0.0000000000
     39188     13063  TIP3      H1             16.7690033595       35.7750477139      -15.8357696465  W2        13063           0.0000000000
     39189     13063  TIP3      H2             17.2257533595       36.8026277139      -16.8493496465  W2        13063           0.0000000000
     39190     13064  TIP3      OH2             3.0993233595       32.1354477139        1.4365703535  W2        13064           0.0000000000
     39191     13064  TIP3      H1              3.2433733595       31.2335177139        1.1502403535  W2        13064           0.0000000000
     39192     13064  TIP3      H2              2.3270633595       32.4216577139        0.9488003535  W2        13064           0.0000000000
     39193     13065  TIP3      OH2             7.4406933595       32.4790177139      -16.4309696465  W2        13065           0.0000000000
     39194     13065  TIP3      H1              7.5051033595       31.6849777139      -15.9003296465  W2        13065           0.0000000000
     39195     13065  TIP3      H2              8.0936133595       32.3602977139      -17.1207696465  W2        13065           0.0000000000
     39196     13066  TIP3      OH2             9.7549333595       32.1052577139        0.8692103535  W2        13066           0.0000000000
     39197     13066  TIP3      H1              9.4263133595       32.3760677139        0.0119503535  W2        13066           0.0000000000
     39198     13066  TIP3      H2              9.9067533595       31.1642377139        0.7817103535  W2        13066           0.0000000000
     39199     13067  TIP3      OH2            12.7930333595       33.5261877139      -16.6951696465  W2        13067           0.0000000000
     39200     13067  TIP3      H1             12.5244433595       33.7063977139      -15.7942796465  W2        13067           0.0000000000
     39201     13067  TIP3      H2             12.5865933595       32.6008077139      -16.8265896465  W2        13067           0.0000000000
     39202     13068  TIP3      OH2            15.4894533595       32.0209877139       -1.7475596465  W2        13068           0.0000000000
     39203     13068  TIP3      H1             16.2349333595       32.6093577139       -1.8671596465  W2        13068           0.0000000000
     39204     13068  TIP3      H2             14.7321333595       32.6029577139       -1.6842496465  W2        13068           0.0000000000
     39205     13069  TIP3      OH2             3.9319733595       29.3357777139        0.8565003535  W2        13069           0.0000000000
     39206     13069  TIP3      H1              4.3400933595       28.4784377139        0.7355603535  W2        13069           0.0000000000
     39207     13069  TIP3      H2              3.6717333595       29.3499077139        1.7775303535  W2        13069           0.0000000000
     39208     13070  TIP3      OH2             8.5900733595       30.4516377139      -14.1251696465  W2        13070           0.0000000000
     39209     13070  TIP3      H1              8.1302733595       29.9674677139      -13.4393196465  W2        13070           0.0000000000
     39210     13070  TIP3      H2              8.8449433595       29.7831777139      -14.7611196465  W2        13070           0.0000000000
     39211     13071  TIP3      OH2             7.8790033595       28.3443477139       -1.7692096465  W2        13071           0.0000000000
     39212     13071  TIP3      H1              7.2606133595       29.0190077139       -1.4887396465  W2        13071           0.0000000000
     39213     13071  TIP3      H2              8.2231233595       28.6657377139       -2.6025896465  W2        13071           0.0000000000
     39214     13072  TIP3      OH2             9.6611133595       28.6948177139      -15.8628496465  W2        13072           0.0000000000
     39215     13072  TIP3      H1              9.4806133595       28.5399377139      -16.7900196465  W2        13072           0.0000000000
     39216     13072  TIP3      H2             10.6111633595       28.8026877139      -15.8180596465  W2        13072           0.0000000000
     39217     13073  TIP3      OH2            12.8988233595       30.8158777139        1.5082703535  W2        13073           0.0000000000
     39218     13073  TIP3      H1             13.8519433595       30.8997877139        1.4808703535  W2        13073           0.0000000000
     39219     13073  TIP3      H2             12.7382833595       30.1040577139        2.1277603535  W2        13073           0.0000000000
     39220     13074  TIP3      OH2            19.0509433595       31.0492377139      -16.4170396465  W2        13074           0.0000000000
     39221     13074  TIP3      H1             18.7774233595       30.6247877139      -17.2302096465  W2        13074           0.0000000000
     39222     13074  TIP3      H2             19.0903533595       31.9806877139      -16.6339996465  W2        13074           0.0000000000
     39223     13075  TIP3      OH2             8.2183733595       25.6994277139       -0.6868996465  W2        13075           0.0000000000
     39224     13075  TIP3      H1              8.3684633595       24.9705577139       -1.2889296465  W2        13075           0.0000000000
     39225     13075  TIP3      H2              8.2206133595       26.4765977139       -1.2456796465  W2        13075           0.0000000000
     39226     13076  TIP3      OH2             8.6309433595       24.0690077139       -3.1941596465  W2        13076           0.0000000000
     39227     13076  TIP3      H1              9.1666933595       24.5206777139       -3.8462296465  W2        13076           0.0000000000
     39228     13076  TIP3      H2              7.7789033595       23.9609877139       -3.6167496465  W2        13076           0.0000000000
     39229     13077  TIP3      OH2            10.2127833595       29.5086277139       -2.9546396465  W2        13077           0.0000000000
     39230     13077  TIP3      H1             10.9632633595       29.3523777139       -3.5278596465  W2        13077           0.0000000000
     39231     13077  TIP3      H2              9.8736133595       30.3602877139       -3.2300896465  W2        13077           0.0000000000
     39232     13078  TIP3      OH2            14.6284033595       27.3238077139        2.0738903535  W2        13078           0.0000000000
     39233     13078  TIP3      H1             14.8205333595       26.3927477139        1.9623403535  W2        13078           0.0000000000
     39234     13078  TIP3      H2             15.4860333595       27.7487577139        2.0634303535  W2        13078           0.0000000000
     39235     13079  TIP3      OH2            15.9451233595       30.1123277139        0.1511603535  W2        13079           0.0000000000
     39236     13079  TIP3      H1             15.6636233595       30.8217877139       -0.4264596465  W2        13079           0.0000000000
     39237     13079  TIP3      H2             16.8875533595       30.0396277139        0.0002803535  W2        13079           0.0000000000
     39238     13080  TIP3      OH2             6.6970033595       26.8977777139        1.2246603535  W2        13080           0.0000000000
     39239     13080  TIP3      H1              5.9299033595       26.3652577139        1.0144203535  W2        13080           0.0000000000
     39240     13080  TIP3      H2              7.3759033595       26.5878177139        0.6252903535  W2        13080           0.0000000000
     39241     13081  TIP3      OH2             9.4364933595       21.5255777139       -2.7627996465  W2        13081           0.0000000000
     39242     13081  TIP3      H1              9.3384533595       22.4718977139       -2.8681796465  W2        13081           0.0000000000
     39243     13081  TIP3      H2              8.6941133595       21.1529577139       -3.2384496465  W2        13081           0.0000000000
     39244     13082  TIP3      OH2            10.7005433595       25.8471177139        0.8010403535  W2        13082           0.0000000000
     39245     13082  TIP3      H1             10.4650833595       25.6277877139        1.7025303535  W2        13082           0.0000000000
     39246     13082  TIP3      H2              9.9172333595       25.6402377139        0.2912903535  W2        13082           0.0000000000
     39247     13083  TIP3      OH2            13.4162033595       24.9744677139       -0.1236096465  W2        13083           0.0000000000
     39248     13083  TIP3      H1             12.4687433595       25.0064377139        0.0087203535  W2        13083           0.0000000000
     39249     13083  TIP3      H2             13.7288733595       24.3491777139        0.5302103535  W2        13083           0.0000000000
     39250     13084  TIP3      OH2            15.0503533595       23.6085777139        1.8815803535  W2        13084           0.0000000000
     39251     13084  TIP3      H1             14.9535333595       22.6563077139        1.8757703535  W2        13084           0.0000000000
     39252     13084  TIP3      H2             14.7286633595       23.8772577139        2.7421303535  W2        13084           0.0000000000
     39253     13085  TIP3      OH2             4.8772833595       24.8181577139        0.9291303535  W2        13085           0.0000000000
     39254     13085  TIP3      H1              5.0890233595       24.1117677139        0.3188803535  W2        13085           0.0000000000
     39255     13085  TIP3      H2              4.7660333595       24.3807577139        1.7732503535  W2        13085           0.0000000000
     39256     13086  TIP3      OH2             9.6583033595       20.8193177139       -0.0915196465  W2        13086           0.0000000000
     39257     13086  TIP3      H1             10.3701433595       20.1795377139       -0.1056096465  W2        13086           0.0000000000
     39258     13086  TIP3      H2              9.5573433595       21.0861477139       -1.0052096465  W2        13086           0.0000000000
     39259     13087  TIP3      OH2            10.0120533595       22.5021577139        1.9621103535  W2        13087           0.0000000000
     39260     13087  TIP3      H1              9.8802733595       22.0265377139        1.1419603535  W2        13087           0.0000000000
     39261     13087  TIP3      H2              9.4127933595       23.2465177139        1.9068203535  W2        13087           0.0000000000
     39262     13088  TIP3      OH2             9.5582833595       39.3851877139      -14.8614896465  W2        13088           0.0000000000
     39263     13088  TIP3      H1             10.4913533595       39.5430577139      -14.7176496465  W2        13088           0.0000000000
     39264     13088  TIP3      H2              9.2941633595       40.0604877139      -15.4863396465  W2        13088           0.0000000000
     39265     13089  TIP3      OH2             3.1267733595       34.0215677139      -15.3786796465  W2        13089           0.0000000000
     39266     13089  TIP3      H1              4.0406933595       34.1004577139      -15.1052896465  W2        13089           0.0000000000
     39267     13089  TIP3      H2              3.1340833595       33.3345277139      -16.0451196465  W2        13089           0.0000000000
     39268     13090  TIP3      OH2             1.7758333595       39.4144177139      -10.3012896465  W2        13090           0.0000000000
     39269     13090  TIP3      H1              1.1285433595       38.9525877139      -10.8341696465  W2        13090           0.0000000000
     39270     13090  TIP3      H2              2.1302933595       38.7427477139       -9.7186696465  W2        13090           0.0000000000
     39271     13091  TIP3      OH2             2.6457533595       37.4951177139       -8.4966696465  W2        13091           0.0000000000
     39272     13091  TIP3      H1              2.3114333595       36.6148477139       -8.3246496465  W2        13091           0.0000000000
     39273     13091  TIP3      H2              2.8679933595       37.8406177139       -7.6321096465  W2        13091           0.0000000000
     39274     13092  TIP3      OH2            20.1942333595       38.3047577139       -5.5161896465  W2        13092           0.0000000000
     39275     13092  TIP3      H1             20.1729033595       38.4895977139       -4.5772496465  W2        13092           0.0000000000
     39276     13092  TIP3      H2             20.8848533595       38.8731577139       -5.8570496465  W2        13092           0.0000000000
     39277     13093  TIP3      OH2            19.7575233595       37.8718677139       -2.5942796465  W2        13093           0.0000000000
     39278     13093  TIP3      H1             19.2703933595       37.1362777139       -2.9655396465  W2        13093           0.0000000000
     39279     13093  TIP3      H2             20.3067933595       37.4782577139       -1.9163396465  W2        13093           0.0000000000
     39280     13094  TIP3      OH2            18.2082533595       33.6616777139        2.0437503535  W2        13094           0.0000000000
     39281     13094  TIP3      H1             17.3423633595       33.5566477139        2.4379803535  W2        13094           0.0000000000
     39282     13094  TIP3      H2             18.5848433595       34.4200077139        2.4902203535  W2        13094           0.0000000000
     39283     13095  TIP3      OH2            19.5092233595       31.9180477139      -12.4419996465  W2        13095           0.0000000000
     39284     13095  TIP3      H1             20.3593633595       32.3391377139      -12.3148396465  W2        13095           0.0000000000
     39285     13095  TIP3      H2             19.5147333595       31.1780577139      -11.8348596465  W2        13095           0.0000000000
     39286     13096  TIP3      OH2            19.9037833595       29.9717877139      -10.6184296465  W2        13096           0.0000000000
     39287     13096  TIP3      H1             19.1772433595       29.4920477139      -10.2206696465  W2        13096           0.0000000000
     39288     13096  TIP3      H2             20.4851133595       30.1772577139       -9.8862696465  W2        13096           0.0000000000
     39289     13097  TIP3      OH2            19.6629033595       32.7565377139       -5.6706696465  W2        13097           0.0000000000
     39290     13097  TIP3      H1             20.4963233595       32.3785377139       -5.9513096465  W2        13097           0.0000000000
     39291     13097  TIP3      H2             19.7749333595       33.6996577139       -5.7897596465  W2        13097           0.0000000000
     39292     13098  TIP3      OH2            18.1491333595       35.6342877139       -3.3638296465  W2        13098           0.0000000000
     39293     13098  TIP3      H1             17.5016633595       35.9594377139       -2.7383096465  W2        13098           0.0000000000
     39294     13098  TIP3      H2             17.6315333595       35.1940577139       -4.0379996465  W2        13098           0.0000000000
     39295     13099  TIP3      OH2            20.1720933595       29.8726377139      -14.2272996465  W2        13099           0.0000000000
     39296     13099  TIP3      H1             19.6502033595       30.2290477139      -14.9462096465  W2        13099           0.0000000000
     39297     13099  TIP3      H2             20.1390133595       30.5474177139      -13.5492096465  W2        13099           0.0000000000
     39298     13100  TIP3      OH2            18.5209933595       27.1121977139      -15.6765896465  W2        13100           0.0000000000
     39299     13100  TIP3      H1             18.6174333595       27.7788977139      -16.3566196465  W2        13100           0.0000000000
     39300     13100  TIP3      H2             18.3809533595       26.2968277139      -16.1580396465  W2        13100           0.0000000000
     39301     13101  TIP3      OH2            17.6904633595       28.4924377139      -10.0555596465  W2        13101           0.0000000000
     39302     13101  TIP3      H1             17.5403433595       27.5472977139      -10.0757796465  W2        13101           0.0000000000
     39303     13101  TIP3      H2             17.3369133595       28.7735777139       -9.2116496465  W2        13101           0.0000000000
     39304     13102  TIP3      OH2             2.7257033595       30.5706577139       -6.0451796465  W2        13102           0.0000000000
     39305     13102  TIP3      H1              2.9099933595       30.4888277139       -6.9808896465  W2        13102           0.0000000000
     39306     13102  TIP3      H2              3.5749933595       30.4463577139       -5.6215396465  W2        13102           0.0000000000
     39307     13103  TIP3      OH2            18.5467533595       30.4627677139       -0.4167296465  W2        13103           0.0000000000
     39308     13103  TIP3      H1             19.1294833595       29.7279977139       -0.2250096465  W2        13103           0.0000000000
     39309     13103  TIP3      H2             19.1106833595       31.2347977139       -0.3701496465  W2        13103           0.0000000000
     39310     13104  TIP3      OH2            20.0434633595       28.3653477139        0.2678103535  W2        13104           0.0000000000
     39311     13104  TIP3      H1             19.1801333595       27.9865577139        0.1022803535  W2        13104           0.0000000000
     39312     13104  TIP3      H2             20.6478333595       27.6268277139        0.1933903535  W2        13104           0.0000000000
     39313     13105  TIP3      OH2            17.7683733595       24.5201777139      -16.5590396465  W2        13105           0.0000000000
     39314     13105  TIP3      H1             18.3789533595       24.1488577139      -15.9222196465  W2        13105           0.0000000000
     39315     13105  TIP3      H2             16.9315233595       24.0988677139      -16.3630396465  W2        13105           0.0000000000
     39316     13106  TIP3      OH2            17.4009433595       26.0750177139      -11.5930496465  W2        13106           0.0000000000
     39317     13106  TIP3      H1             17.6806533595       25.1680577139      -11.4688796465  W2        13106           0.0000000000
     39318     13106  TIP3      H2             18.1601133595       26.5091677139      -11.9821296465  W2        13106           0.0000000000
     39319     13107  TIP3      OH2            18.0127733595       26.6567577139       -6.1571596465  W2        13107           0.0000000000
     39320     13107  TIP3      H1             18.9455733595       26.8687477139       -6.1915596465  W2        13107           0.0000000000
     39321     13107  TIP3      H2             17.7775233595       26.7579677139       -5.2348596465  W2        13107           0.0000000000
     39322     13108  TIP3      OH2            18.0419633595       27.3932877139       -3.3812196465  W2        13108           0.0000000000
     39323     13108  TIP3      H1             17.1990933595       27.6613277139       -3.0152396465  W2        13108           0.0000000000
     39324     13108  TIP3      H2             18.4843933595       28.2154777139       -3.5921096465  W2        13108           0.0000000000
     39325     13109  TIP3      OH2             2.3231833595       25.8411577139        0.0957003535  W2        13109           0.0000000000
     39326     13109  TIP3      H1              3.2426733595       25.7189877139        0.3320103535  W2        13109           0.0000000000
     39327     13109  TIP3      H2              1.8736333595       25.0911277139        0.4850503535  W2        13109           0.0000000000
     39328     13110  TIP3      OH2            20.3251233595       21.3733077139        1.9722803535  W2        13110           0.0000000000
     39329     13110  TIP3      H1             20.6748233595       20.7196577139        1.3667503535  W2        13110           0.0000000000
     39330     13110  TIP3      H2             20.4720733595       22.2107177139        1.5325403535  W2        13110           0.0000000000
     39331     13111  TIP3      OH2            18.0144233595       23.3379477139      -11.5448496465  W2        13111           0.0000000000
     39332     13111  TIP3      H1             18.1969233595       22.8890977139      -10.7193496465  W2        13111           0.0000000000
     39333     13111  TIP3      H2             17.4147133595       22.7533877139      -12.0083896465  W2        13111           0.0000000000
     39334     13112  TIP3      OH2             3.5444333595       24.1533177139       -7.0130096465  W2        13112           0.0000000000
     39335     13112  TIP3      H1              3.9895933595       23.3615677139       -6.7110396465  W2        13112           0.0000000000
     39336     13112  TIP3      H2              4.0107333595       24.8698377139       -6.5824496465  W2        13112           0.0000000000
     39337     13113  TIP3      OH2             1.8484633595       27.1526177139       -5.9439896465  W2        13113           0.0000000000
     39338     13113  TIP3      H1              2.3404433595       26.9316677139       -6.7347896465  W2        13113           0.0000000000
     39339     13113  TIP3      H2              2.2105533595       27.9929577139       -5.6630396465  W2        13113           0.0000000000
     39340     13114  TIP3      OH2            19.8448433595       23.4827677139        0.3214103535  W2        13114           0.0000000000
     39341     13114  TIP3      H1             18.9274133595       23.7534777139        0.2857603535  W2        13114           0.0000000000
     39342     13114  TIP3      H2             19.9677833595       22.9476077139       -0.4626196465  W2        13114           0.0000000000
     39343     13115  TIP3      OH2            19.8810433595       23.4057577139      -15.0168196465  W2        13115           0.0000000000
     39344     13115  TIP3      H1             20.2933033595       22.6843277139      -15.4920196465  W2        13115           0.0000000000
     39345     13115  TIP3      H2             20.5626933595       24.0752177139      -14.9583896465  W2        13115           0.0000000000
     39346     13116  TIP3      OH2             2.1621133595       23.4105277139      -11.8897496465  W2        13116           0.0000000000
     39347     13116  TIP3      H1              1.2369533595       23.6191877139      -12.0191996465  W2        13116           0.0000000000
     39348     13116  TIP3      H2              2.6161033595       23.8946077139      -12.5795196465  W2        13116           0.0000000000
     39349     13117  TIP3      OH2            16.9328333595       38.3946977139       -9.9440096465  W2        13117           0.0000000000
     39350     13117  TIP3      H1             17.5851233595       38.0469077139      -10.5520996465  W2        13117           0.0000000000
     39351     13117  TIP3      H2             17.4432133595       38.8830177139       -9.2980396465  W2        13117           0.0000000000
     39352     13118  TIP3      OH2             2.1256533595       22.1484277139       -3.5454996465  W2        13118           0.0000000000
     39353     13118  TIP3      H1              1.4607033595       21.9024577139       -2.9024096465  W2        13118           0.0000000000
     39354     13118  TIP3      H2              1.6827833595       22.7704677139       -4.1226996465  W2        13118           0.0000000000
     39355     13119  TIP3      OH2             4.3175833595       35.3238377139        0.5990803535  W2        13119           0.0000000000
     39356     13119  TIP3      H1              3.4968333595       35.4984877139        0.1385503535  W2        13119           0.0000000000
     39357     13119  TIP3      H2              4.0653633595       35.2503077139        1.5195203535  W2        13119           0.0000000000
     39358     13120  TIP3      OH2             7.2718733595       36.2979577139       -3.1425196465  W2        13120           0.0000000000
     39359     13120  TIP3      H1              6.8469833595       37.1078077139       -3.4250596465  W2        13120           0.0000000000
     39360     13120  TIP3      H2              8.1761533595       36.3833677139       -3.4445396465  W2        13120           0.0000000000
     39361     13121  TIP3      OH2            11.5830133595       37.6969577139       -0.1831496465  W2        13121           0.0000000000
     39362     13121  TIP3      H1             11.7677633595       37.3635677139        0.6948803535  W2        13121           0.0000000000
     39363     13121  TIP3      H2             12.4294633595       38.0068177139       -0.5052296465  W2        13121           0.0000000000
     39364     13122  TIP3      OH2            13.9280533595       38.9828477139       -0.9390096465  W2        13122           0.0000000000
     39365     13122  TIP3      H1             14.6049433595       38.3500777139       -1.1790896465  W2        13122           0.0000000000
     39366     13122  TIP3      H2             14.2499333595       39.3838977139       -0.1316796465  W2        13122           0.0000000000
     39367     13123  TIP3      OH2            18.8454333595       21.5723977139       -1.8595096465  W2        13123           0.0000000000
     39368     13123  TIP3      H1             18.0327833595       21.8974277139       -2.2470396465  W2        13123           0.0000000000
     39369     13123  TIP3      H2             19.0782833595       20.8122477139       -2.3925996465  W2        13123           0.0000000000
     39370     13124  TIP3      OH2             4.6735433595       39.5543477139       -3.0949896465  W2        13124           0.0000000000
     39371     13124  TIP3      H1              3.9531833595       39.9944477139       -3.5462196465  W2        13124           0.0000000000
     39372     13124  TIP3      H2              4.3079433595       39.3038177139       -2.2465896465  W2        13124           0.0000000000
     39373     13125  TIP3      OH2             7.1408033595       39.1547377139       -4.0652696465  W2        13125           0.0000000000
     39374     13125  TIP3      H1              6.2760233595       39.2265877139       -3.6612596465  W2        13125           0.0000000000
     39375     13125  TIP3      H2              7.0857033595       39.7014677139       -4.8490196465  W2        13125           0.0000000000
     39376     13126  TIP3      OH2            11.8513633595       39.0426277139       -4.8896696465  W2        13126           0.0000000000
     39377     13126  TIP3      H1             11.3947633595       39.5715977139       -5.5438296465  W2        13126           0.0000000000
     39378     13126  TIP3      H2             12.0141633595       39.6457677139       -4.1644396465  W2        13126           0.0000000000
     39379     13127  TIP3      OH2            14.1789933595       37.9205877139       -3.9446396465  W2        13127           0.0000000000
     39380     13127  TIP3      H1             13.2743633595       38.0856077139       -4.2104296465  W2        13127           0.0000000000
     39381     13127  TIP3      H2             14.6078533595       38.7738077139       -4.0102996465  W2        13127           0.0000000000
     39382     13128  TIP3      OH2            16.7831833595       39.4904977139       -3.6498596465  W2        13128           0.0000000000
     39383     13128  TIP3      H1             16.6013833595       40.4063877139       -3.8603696465  W2        13128           0.0000000000
     39384     13128  TIP3      H2             16.9599633595       39.0802077139       -4.4963996465  W2        13128           0.0000000000
     39385     13129  TIP3      OH2             4.0883533595       38.1775977139       -6.1848096465  W2        13129           0.0000000000
     39386     13129  TIP3      H1              4.0699533595       37.7521077139       -5.3275796465  W2        13129           0.0000000000
     39387     13129  TIP3      H2              4.8931433595       37.8590977139       -6.5935896465  W2        13129           0.0000000000
     39388     13130  TIP3      OH2             6.2296633595       36.8874677139       -7.5298196465  W2        13130           0.0000000000
     39389     13130  TIP3      H1              6.0107333595       35.9712077139       -7.3602196465  W2        13130           0.0000000000
     39390     13130  TIP3      H2              7.0538833595       37.0275077139       -7.0636796465  W2        13130           0.0000000000
     39391     13131  TIP3      OH2             8.7669133595       37.3573977139       -6.6810196465  W2        13131           0.0000000000
     39392     13131  TIP3      H1              8.9794833595       36.4692977139       -6.9679296465  W2        13131           0.0000000000
     39393     13131  TIP3      H2              8.8314233595       37.3231677139       -5.7266196465  W2        13131           0.0000000000
     39394     13132  TIP3      OH2            12.2752833595       23.0214577139       -7.5366896465  W2        13132           0.0000000000
     39395     13132  TIP3      H1             11.6009633595       22.3920177139       -7.2811096465  W2        13132           0.0000000000
     39396     13132  TIP3      H2             12.8392033595       22.5373477139       -8.1398996465  W2        13132           0.0000000000
     39397     13133  TIP3      OH2            17.4180033595       21.1288577139       -7.4239796465  W2        13133           0.0000000000
     39398     13133  TIP3      H1             18.0217633595       21.6763977139       -7.9258796465  W2        13133           0.0000000000
     39399     13133  TIP3      H2             16.5482033595       21.4478977139       -7.6645696465  W2        13133           0.0000000000
     39400     13134  TIP3      OH2            19.1450433595       22.2677277139       -9.0908896465  W2        13134           0.0000000000
     39401     13134  TIP3      H1             19.7567933595       21.7532977139       -9.6175296465  W2        13134           0.0000000000
     39402     13134  TIP3      H2             19.5273833595       23.1449377139       -9.0674496465  W2        13134           0.0000000000
     39403     13135  TIP3      OH2             4.6020333595       21.6554877139       -9.7146996465  W2        13135           0.0000000000
     39404     13135  TIP3      H1              3.8250133595       21.4209777139      -10.2221096465  W2        13135           0.0000000000
     39405     13135  TIP3      H2              5.1323933595       20.8586977139       -9.7058996465  W2        13135           0.0000000000
     39406     13136  TIP3      OH2             3.4383733595       21.4532977139      -13.9110896465  W2        13136           0.0000000000
     39407     13136  TIP3      H1              3.8774433595       22.0643477139      -14.5027396465  W2        13136           0.0000000000
     39408     13136  TIP3      H2              2.8046133595       21.9917077139      -13.4370896465  W2        13136           0.0000000000
     39409     13137  TIP3      OH2             9.1812933595       21.5821977139       -9.9013896465  W2        13137           0.0000000000
     39410     13137  TIP3      H1             10.0556333595       21.9706277139       -9.9309596465  W2        13137           0.0000000000
     39411     13137  TIP3      H2              9.0453733595       21.3669777139       -8.9786696465  W2        13137           0.0000000000
     39412     13138  TIP3      OH2            14.7381333595       21.6121777139       -8.2522196465  W2        13138           0.0000000000
     39413     13138  TIP3      H1             14.8142933595       21.7073377139       -9.2016196465  W2        13138           0.0000000000
     39414     13138  TIP3      H2             14.4630533595       20.7044677139       -8.1233096465  W2        13138           0.0000000000
     39415     13139  TIP3      OH2            16.0913933595       21.6379577139      -12.5597196465  W2        13139           0.0000000000
     39416     13139  TIP3      H1             15.3885033595       22.2528777139      -12.7695796465  W2        13139           0.0000000000
     39417     13139  TIP3      H2             15.6465333595       20.8006277139      -12.4286296465  W2        13139           0.0000000000
     39418     13140  TIP3      OH2             3.3393233595       37.4015177139      -13.0135796465  W2        13140           0.0000000000
     39419     13140  TIP3      H1              2.6543133595       37.3634077139      -13.6810696465  W2        13140           0.0000000000
     39420     13140  TIP3      H2              3.3430433595       38.3142777139      -12.7253696465  W2        13140           0.0000000000
     39421     13141  TIP3      OH2             5.2992833595       23.3694477139      -15.4686796465  W2        13141           0.0000000000
     39422     13141  TIP3      H1              5.7906233595       22.7396877139      -15.9961296465  W2        13141           0.0000000000
     39423     13141  TIP3      H2              5.9229133595       23.6653877139      -14.8055596465  W2        13141           0.0000000000
     39424     13142  TIP3      OH2            10.3252933595       23.6625977139      -13.0116296465  W2        13142           0.0000000000
     39425     13142  TIP3      H1             10.5034233595       23.0159177139      -12.3287696465  W2        13142           0.0000000000
     39426     13142  TIP3      H2             10.2719133595       24.4963677139      -12.5445196465  W2        13142           0.0000000000
     39427     13143  TIP3      OH2            12.2036733595       38.6110077139      -14.6159596465  W2        13143           0.0000000000
     39428     13143  TIP3      H1             13.0696933595       38.9777477139      -14.7941396465  W2        13143           0.0000000000
     39429     13143  TIP3      H2             11.9569533595       38.1718077139      -15.4298796465  W2        13143           0.0000000000
     39430     13144  TIP3      OH2            18.9126333595       38.1740377139      -11.9368496465  W2        13144           0.0000000000
     39431     13144  TIP3      H1             18.7183433595       37.4262477139      -12.5018896465  W2        13144           0.0000000000
     39432     13144  TIP3      H2             18.8736433595       38.9320477139      -12.5200596465  W2        13144           0.0000000000
     39433     13145  TIP3      OH2             4.5598333595       22.1696777139       -0.1970796465  W2        13145           0.0000000000
     39434     13145  TIP3      H1              4.1936533595       21.4039377139        0.2453903535  W2        13145           0.0000000000
     39435     13145  TIP3      H2              5.4726833595       22.1986977139        0.0894303535  W2        13145           0.0000000000
     39436     13146  TIP3      OH2             6.5329133595       21.5201177139        1.3386303535  W2        13146           0.0000000000
     39437     13146  TIP3      H1              7.4312733595       21.2461377139        1.1539703535  W2        13146           0.0000000000
     39438     13146  TIP3      H2              6.1462233595       20.7777177139        1.8028903535  W2        13146           0.0000000000
     39439     13147  TIP3      OH2             5.1574433595       38.3215977139      -15.9883696465  W2        13147           0.0000000000
     39440     13147  TIP3      H1              4.8899033595       38.6078877139      -15.1150596465  W2        13147           0.0000000000
     39441     13147  TIP3      H2              5.9287033595       37.7755177139      -15.8361196465  W2        13147           0.0000000000
     39442     13148  TIP3      OH2            14.9541433595       20.8526477139        1.5209103535  W2        13148           0.0000000000
     39443     13148  TIP3      H1             15.0308633595       20.4267177139        2.3746803535  W2        13148           0.0000000000
     39444     13148  TIP3      H2             15.8478033595       20.8661177139        1.1782603535  W2        13148           0.0000000000
     39445     13149  TIP3      OH2            18.1302533595       36.9252777139        0.2133303535  W2        13149           0.0000000000
     39446     13149  TIP3      H1             17.3484433595       36.7390777139       -0.3066096465  W2        13149           0.0000000000
     39447     13149  TIP3      H2             18.0582433595       37.8547077139        0.4305803535  W2        13149           0.0000000000
     39448     13150  TIP3      OH2            32.5362933595       30.8117177139       -9.7559496465  W2        13150           0.0000000000
     39449     13150  TIP3      H1             32.6254033595       31.7555377139       -9.8882396465  W2        13150           0.0000000000
     39450     13150  TIP3      H2             31.8980533595       30.5363577139      -10.4140096465  W2        13150           0.0000000000
     39451     13151  TIP3      OH2            31.4694233595       30.0667877139       -6.3371296465  W2        13151           0.0000000000
     39452     13151  TIP3      H1             31.4311733595       29.4204177139       -5.6321696465  W2        13151           0.0000000000
     39453     13151  TIP3      H2             31.1470733595       29.6002277139       -7.1082596465  W2        13151           0.0000000000
     39454     13152  TIP3      OH2            23.8379233595       29.6809977139       -4.7441396465  W2        13152           0.0000000000
     39455     13152  TIP3      H1             23.8791333595       29.0553277139       -4.0208996465  W2        13152           0.0000000000
     39456     13152  TIP3      H2             24.5406933595       30.3048577139       -4.5620996465  W2        13152           0.0000000000
     39457     13153  TIP3      OH2            35.1754433595       33.0058277139       -8.0356196465  W2        13153           0.0000000000
     39458     13153  TIP3      H1             34.7347133595       32.2854277139       -7.5850596465  W2        13153           0.0000000000
     39459     13153  TIP3      H2             35.1624133595       33.7265477139       -7.4058496465  W2        13153           0.0000000000
     39460     13154  TIP3      OH2            24.7612333595       34.1308877139       -6.2092296465  W2        13154           0.0000000000
     39461     13154  TIP3      H1             24.3917533595       33.3289377139       -6.5787996465  W2        13154           0.0000000000
     39462     13154  TIP3      H2             25.7023433595       33.9623777139       -6.1628896465  W2        13154           0.0000000000
     39463     13155  TIP3      OH2            21.3712833595       27.7911477139      -10.8163496465  W2        13155           0.0000000000
     39464     13155  TIP3      H1             20.9236233595       28.6370177139      -10.8346996465  W2        13155           0.0000000000
     39465     13155  TIP3      H2             20.8104033595       27.2115677139      -11.3318396465  W2        13155           0.0000000000
     39466     13156  TIP3      OH2            22.0818933595       29.9531077139       -8.6905496465  W2        13156           0.0000000000
     39467     13156  TIP3      H1             22.2952433595       29.1832677139       -8.1632496465  W2        13156           0.0000000000
     39468     13156  TIP3      H2             22.8196533595       30.0427777139       -9.2937896465  W2        13156           0.0000000000
     39469     13157  TIP3      OH2            32.2869933595       38.1099977139       -7.8235796465  W2        13157           0.0000000000
     39470     13157  TIP3      H1             32.9066333595       37.4334677139       -8.0966596465  W2        13157           0.0000000000
     39471     13157  TIP3      H2             32.0787333595       37.8920777139       -6.9150896465  W2        13157           0.0000000000
     39472     13158  TIP3      OH2            29.8588633595       32.4989277139       -5.9310296465  W2        13158           0.0000000000
     39473     13158  TIP3      H1             30.1626533595       31.8130677139       -6.5256196465  W2        13158           0.0000000000
     39474     13158  TIP3      H2             30.5802633595       32.6177977139       -5.3132296465  W2        13158           0.0000000000
     39475     13159  TIP3      OH2            38.5218433595       24.1004577139       -5.0704096465  W2        13159           0.0000000000
     39476     13159  TIP3      H1             38.5710633595       24.7105777139       -4.3344996465  W2        13159           0.0000000000
     39477     13159  TIP3      H2             38.9473533595       24.5615477139       -5.7932996465  W2        13159           0.0000000000
     39478     13160  TIP3      OH2            32.9995633595       26.8931677139       -5.6035496465  W2        13160           0.0000000000
     39479     13160  TIP3      H1             33.1421533595       25.9468677139       -5.5833896465  W2        13160           0.0000000000
     39480     13160  TIP3      H2             32.8934633595       27.1001477139       -6.5320596465  W2        13160           0.0000000000
     39481     13161  TIP3      OH2            26.1543933595       24.9948077139       -8.3310696465  W2        13161           0.0000000000
     39482     13161  TIP3      H1             26.1975033595       25.8546577139       -8.7494396465  W2        13161           0.0000000000
     39483     13161  TIP3      H2             25.6968033595       24.4422777139       -8.9647496465  W2        13161           0.0000000000
     39484     13162  TIP3      OH2            33.8766633595       25.1253677139       -9.9302396465  W2        13162           0.0000000000
     39485     13162  TIP3      H1             34.5230933595       24.7966877139       -9.3054796465  W2        13162           0.0000000000
     39486     13162  TIP3      H2             34.3866033595       25.6432677139      -10.5530996465  W2        13162           0.0000000000
     39487     13163  TIP3      OH2            22.7745433595       27.3913877139       -7.5689296465  W2        13163           0.0000000000
     39488     13163  TIP3      H1             23.4282033595       26.8415577139       -7.1369196465  W2        13163           0.0000000000
     39489     13163  TIP3      H2             22.7984733595       27.1172877139       -8.4857296465  W2        13163           0.0000000000
     39490     13164  TIP3      OH2            27.9309933595       28.9415177139       -8.3537796465  W2        13164           0.0000000000
     39491     13164  TIP3      H1             28.5470933595       28.4150577139       -7.8443796465  W2        13164           0.0000000000
     39492     13164  TIP3      H2             27.3448733595       28.3013877139       -8.7574196465  W2        13164           0.0000000000
     39493     13165  TIP3      OH2            38.9133033595       25.5783777139       -2.8344296465  W2        13165           0.0000000000
     39494     13165  TIP3      H1             38.2247633595       26.2364477139       -2.9297696465  W2        13165           0.0000000000
     39495     13165  TIP3      H2             38.9287633595       25.3811677139       -1.8978896465  W2        13165           0.0000000000
     39496     13166  TIP3      OH2            24.9645833595       23.9126477139       -4.2569896465  W2        13166           0.0000000000
     39497     13166  TIP3      H1             24.7457533595       24.4427077139       -5.0233896465  W2        13166           0.0000000000
     39498     13166  TIP3      H2             24.2966733595       24.1391977139       -3.6098496465  W2        13166           0.0000000000
     39499     13167  TIP3      OH2            32.3335633595       33.4127577139      -10.7130796465  W2        13167           0.0000000000
     39500     13167  TIP3      H1             32.0380733595       33.0899877139      -11.5643896465  W2        13167           0.0000000000
     39501     13167  TIP3      H2             32.0093433595       34.3124277139      -10.6718196465  W2        13167           0.0000000000
     39502     13168  TIP3      OH2            27.5337233595       31.5882177139       -3.9696196465  W2        13168           0.0000000000
     39503     13168  TIP3      H1             26.7936333595       32.1863677139       -3.8660996465  W2        13168           0.0000000000
     39504     13168  TIP3      H2             28.2476733595       32.1421777139       -4.2852596465  W2        13168           0.0000000000
     39505     13169  TIP3      OH2            35.6405033595       24.4162977139       -7.9496496465  W2        13169           0.0000000000
     39506     13169  TIP3      H1             35.4253033595       23.6506377139       -7.4170496465  W2        13169           0.0000000000
     39507     13169  TIP3      H2             36.2962433595       24.8887577139       -7.4367996465  W2        13169           0.0000000000
     39508     13170  TIP3      OH2            24.5583133595       25.8048277139       -6.3047696465  W2        13170           0.0000000000
     39509     13170  TIP3      H1             25.1719433595       26.4375877139       -5.9315296465  W2        13170           0.0000000000
     39510     13170  TIP3      H2             25.0703833595       25.3323277139       -6.9610796465  W2        13170           0.0000000000
     39511     13171  TIP3      OH2            25.9411533595       33.5525177139       -3.1824696465  W2        13171           0.0000000000
     39512     13171  TIP3      H1             25.9359133595       34.4318677139       -3.5605396465  W2        13171           0.0000000000
     39513     13171  TIP3      H2             25.0875633595       33.4689277139       -2.7574796465  W2        13171           0.0000000000
     39514     13172  TIP3      OH2            22.0622433595       33.2233077139      -12.4005396465  W2        13172           0.0000000000
     39515     13172  TIP3      H1             21.7903333595       33.4524077139      -13.2892496465  W2        13172           0.0000000000
     39516     13172  TIP3      H2             22.1078133595       34.0611877139      -11.9400096465  W2        13172           0.0000000000
     39517     13173  TIP3      OH2            35.6872133595       34.8448977139       -5.6876896465  W2        13173           0.0000000000
     39518     13173  TIP3      H1             34.7455833595       34.9032877139       -5.5259996465  W2        13173           0.0000000000
     39519     13173  TIP3      H2             35.9638233595       35.7509477139       -5.8247196465  W2        13173           0.0000000000
     39520     13174  TIP3      OH2            35.9879133595       23.1314277139       -4.2702996465  W2        13174           0.0000000000
     39521     13174  TIP3      H1             35.2518333595       23.7421377139       -4.3081696465  W2        13174           0.0000000000
     39522     13174  TIP3      H2             36.6713133595       23.5463277139       -4.7966596465  W2        13174           0.0000000000
     39523     13175  TIP3      OH2            28.9910533595       21.2181577139       -6.8044996465  W2        13175           0.0000000000
     39524     13175  TIP3      H1             28.8734733595       20.2697577139       -6.8586696465  W2        13175           0.0000000000
     39525     13175  TIP3      H2             28.1360633595       21.5507677139       -6.5313896465  W2        13175           0.0000000000
     39526     13176  TIP3      OH2            33.9393333595       36.6262477139       -9.0625296465  W2        13176           0.0000000000
     39527     13176  TIP3      H1             34.3645633595       35.9190377139       -9.5475696465  W2        13176           0.0000000000
     39528     13176  TIP3      H2             34.2563333595       37.4275177139       -9.4793096465  W2        13176           0.0000000000
     39529     13177  TIP3      OH2            35.0989833595       34.5270977139      -10.5538696465  W2        13177           0.0000000000
     39530     13177  TIP3      H1             34.8414633595       33.8371077139      -11.1652796465  W2        13177           0.0000000000
     39531     13177  TIP3      H2             35.1700633595       34.0842177139       -9.7082796465  W2        13177           0.0000000000
     39532     13178  TIP3      OH2            36.7850033595       33.0937677139       -2.0765196465  W2        13178           0.0000000000
     39533     13178  TIP3      H1             36.9246333595       32.5020177139       -2.8158196465  W2        13178           0.0000000000
     39534     13178  TIP3      H2             36.9522833595       33.9663577139       -2.4326396465  W2        13178           0.0000000000
     39535     13179  TIP3      OH2            31.2575433595       30.0557177139      -12.3039196465  W2        13179           0.0000000000
     39536     13179  TIP3      H1             30.5460933595       30.5906877139      -12.6558696465  W2        13179           0.0000000000
     39537     13179  TIP3      H2             31.9485033595       30.1109277139      -12.9640296465  W2        13179           0.0000000000
     39538     13180  TIP3      OH2            31.3114633595       28.5131477139      -15.2654196465  W2        13180           0.0000000000
     39539     13180  TIP3      H1             32.0124533595       28.5358377139      -14.6140196465  W2        13180           0.0000000000
     39540     13180  TIP3      H2             31.6137533595       27.8851177139      -15.9214896465  W2        13180           0.0000000000
     39541     13181  TIP3      OH2            38.6269333595       29.4335677139       -4.0104796465  W2        13181           0.0000000000
     39542     13181  TIP3      H1             37.9743433595       30.1281277139       -3.9213896465  W2        13181           0.0000000000
     39543     13181  TIP3      H2             39.0919633595       29.6436577139       -4.8203196465  W2        13181           0.0000000000
     39544     13182  TIP3      OH2            34.6633133595       30.2650477139      -11.3523296465  W2        13182           0.0000000000
     39545     13182  TIP3      H1             33.9314133595       30.4934177139      -10.7792696465  W2        13182           0.0000000000
     39546     13182  TIP3      H2             35.1105333595       29.5513177139      -10.8975796465  W2        13182           0.0000000000
     39547     13183  TIP3      OH2            34.5606633595       28.4393077139       -2.2846296465  W2        13183           0.0000000000
     39548     13183  TIP3      H1             34.6405733595       29.2027477139       -1.7127796465  W2        13183           0.0000000000
     39549     13183  TIP3      H2             33.9594333595       28.7185477139       -2.9751196465  W2        13183           0.0000000000
     39550     13184  TIP3      OH2            26.3086833595       30.8956677139       -9.4698296465  W2        13184           0.0000000000
     39551     13184  TIP3      H1             25.9782033595       30.5250077139      -10.2881296465  W2        13184           0.0000000000
     39552     13184  TIP3      H2             26.8970933595       30.2250677139       -9.1229996465  W2        13184           0.0000000000
     39553     13185  TIP3      OH2            27.6754333595       34.3237277139       -6.7886096465  W2        13185           0.0000000000
     39554     13185  TIP3      H1             27.5805633595       33.7450377139       -7.5451496465  W2        13185           0.0000000000
     39555     13185  TIP3      H2             28.4047933595       33.9522977139       -6.2923296465  W2        13185           0.0000000000
     39556     13186  TIP3      OH2            26.6752333595       29.6642277139       -5.8363296465  W2        13186           0.0000000000
     39557     13186  TIP3      H1             27.2404833595       29.7856477139       -6.5992096465  W2        13186           0.0000000000
     39558     13186  TIP3      H2             26.9941233595       30.3017277139       -5.1974796465  W2        13186           0.0000000000
     39559     13187  TIP3      OH2            32.9844533595       35.1674177139       -5.1022796465  W2        13187           0.0000000000
     39560     13187  TIP3      H1             32.7441133595       35.8297277139       -4.4543596465  W2        13187           0.0000000000
     39561     13187  TIP3      H2             32.7862733595       34.3329377139       -4.6773196465  W2        13187           0.0000000000
     39562     13188  TIP3      OH2            27.5553033595       34.0634977139       -1.1191396465  W2        13188           0.0000000000
     39563     13188  TIP3      H1             27.2440533595       34.8458177139       -0.6638196465  W2        13188           0.0000000000
     39564     13188  TIP3      H2             26.9053233595       33.9104077139       -1.8049396465  W2        13188           0.0000000000
     39565     13189  TIP3      OH2            33.5342633595       29.4273377139      -13.6672096465  W2        13189           0.0000000000
     39566     13189  TIP3      H1             34.1138133595       29.5773677139      -12.9203196465  W2        13189           0.0000000000
     39567     13189  TIP3      H2             33.9482633595       29.8980777139      -14.3905696465  W2        13189           0.0000000000
     39568     13190  TIP3      OH2            24.4752933595       30.2616077139       -1.8905696465  W2        13190           0.0000000000
     39569     13190  TIP3      H1             24.5456133595       30.9122877139       -1.1920696465  W2        13190           0.0000000000
     39570     13190  TIP3      H2             23.5845133595       30.3643577139       -2.2254796465  W2        13190           0.0000000000
     39571     13191  TIP3      OH2            31.2607533595       36.1641877139      -10.2318996465  W2        13191           0.0000000000
     39572     13191  TIP3      H1             31.7345133595       36.4598177139       -9.4544796465  W2        13191           0.0000000000
     39573     13191  TIP3      H2             30.6976833595       36.9023477139      -10.4649396465  W2        13191           0.0000000000
     39574     13192  TIP3      OH2            25.7948933595       36.1349977139       -0.3557596465  W2        13192           0.0000000000
     39575     13192  TIP3      H1             25.8024233595       35.9989677139       -1.3032096465  W2        13192           0.0000000000
     39576     13192  TIP3      H2             24.8789333595       36.0178077139       -0.1037596465  W2        13192           0.0000000000
     39577     13193  TIP3      OH2            37.2331033595       21.1773777139      -13.8542396465  W2        13193           0.0000000000
     39578     13193  TIP3      H1             36.3331733595       21.3162777139      -13.5591796465  W2        13193           0.0000000000
     39579     13193  TIP3      H2             37.4849433595       22.0088377139      -14.2560696465  W2        13193           0.0000000000
     39580     13194  TIP3      OH2            25.2989533595       29.9650977139      -11.8805496465  W2        13194           0.0000000000
     39581     13194  TIP3      H1             25.0070833595       30.7332677139      -12.3714196465  W2        13194           0.0000000000
     39582     13194  TIP3      H2             24.6244733595       29.3057177139      -12.0434096465  W2        13194           0.0000000000
     39583     13195  TIP3      OH2            38.4222433595       35.5436177139      -15.4778496465  W2        13195           0.0000000000
     39584     13195  TIP3      H1             38.4955933595       36.4826377139      -15.3073196465  W2        13195           0.0000000000
     39585     13195  TIP3      H2             39.3277533595       35.2384777139      -15.5341196465  W2        13195           0.0000000000
     39586     13196  TIP3      OH2            21.3919633595       32.3280177139       -3.0655696465  W2        13196           0.0000000000
     39587     13196  TIP3      H1             20.8908033595       32.2999577139       -3.8805996465  W2        13196           0.0000000000
     39588     13196  TIP3      H2             21.3973333595       31.4223377139       -2.7558396465  W2        13196           0.0000000000
     39589     13197  TIP3      OH2            21.1422333595       35.1083977139       -6.1815496465  W2        13197           0.0000000000
     39590     13197  TIP3      H1             22.0882933595       34.9640977139       -6.2005996465  W2        13197           0.0000000000
     39591     13197  TIP3      H2             21.0298633595       35.8926777139       -5.6444296465  W2        13197           0.0000000000
     39592     13198  TIP3      OH2            39.3400833595       35.7743677139       -0.4991796465  W2        13198           0.0000000000
     39593     13198  TIP3      H1             39.2907633595       34.8191777139       -0.5364196465  W2        13198           0.0000000000
     39594     13198  TIP3      H2             38.5133133595       36.0418977139       -0.0977996465  W2        13198           0.0000000000
     39595     13199  TIP3      OH2            30.3184833595       35.3482877139       -1.6230396465  W2        13199           0.0000000000
     39596     13199  TIP3      H1             30.4059433595       36.1747477139       -1.1481296465  W2        13199           0.0000000000
     39597     13199  TIP3      H2             29.4549933595       35.0186677139       -1.3741096465  W2        13199           0.0000000000
     39598     13200  TIP3      OH2            30.7330633595       39.1206577139      -11.8169796465  W2        13200           0.0000000000
     39599     13200  TIP3      H1             30.6576633595       38.9993777139      -12.7634596465  W2        13200           0.0000000000
     39600     13200  TIP3      H2             30.7659333595       40.0699277139      -11.6985196465  W2        13200           0.0000000000
     39601     13201  TIP3      OH2            24.3864433595       37.9093577139      -10.0360796465  W2        13201           0.0000000000
     39602     13201  TIP3      H1             24.5384833595       37.5613977139       -9.1574296465  W2        13201           0.0000000000
     39603     13201  TIP3      H2             23.5354833595       37.5530877139      -10.2913596465  W2        13201           0.0000000000
     39604     13202  TIP3      OH2            33.8346633595       38.2746777139      -14.8147396465  W2        13202           0.0000000000
     39605     13202  TIP3      H1             34.2095033595       37.5302877139      -15.2854796465  W2        13202           0.0000000000
     39606     13202  TIP3      H2             33.8390333595       38.0047377139      -13.8964096465  W2        13202           0.0000000000
     39607     13203  TIP3      OH2            33.5034733595       38.2003877139      -12.0655196465  W2        13203           0.0000000000
     39608     13203  TIP3      H1             32.5684533595       38.3005777139      -11.8868196465  W2        13203           0.0000000000
     39609     13203  TIP3      H2             33.7836633595       37.4909877139      -11.4871996465  W2        13203           0.0000000000
     39610     13204  TIP3      OH2            36.4920633595       27.2676177139       -0.0189596465  W2        13204           0.0000000000
     39611     13204  TIP3      H1             36.0847433595       27.7481777139       -0.7396296465  W2        13204           0.0000000000
     39612     13204  TIP3      H2             36.5326333595       26.3622177139       -0.3268796465  W2        13204           0.0000000000
     39613     13205  TIP3      OH2            23.6410133595       33.6515577139       -2.0222896465  W2        13205           0.0000000000
     39614     13205  TIP3      H1             23.8571433595       33.2901177139       -1.1627096465  W2        13205           0.0000000000
     39615     13205  TIP3      H2             22.7854833595       33.2769377139       -2.2319396465  W2        13205           0.0000000000
     39616     13206  TIP3      OH2            26.2598133595       22.1216077139       -6.0268696465  W2        13206           0.0000000000
     39617     13206  TIP3      H1             25.3981833595       22.0344277139       -6.4345796465  W2        13206           0.0000000000
     39618     13206  TIP3      H2             26.2373833595       22.9776177139       -5.5991096465  W2        13206           0.0000000000
     39619     13207  TIP3      OH2            30.9225933595       21.8436477139       -2.6521696465  W2        13207           0.0000000000
     39620     13207  TIP3      H1             31.3429033595       21.4283577139       -1.8991096465  W2        13207           0.0000000000
     39621     13207  TIP3      H2             29.9895533595       21.6649777139       -2.5349696465  W2        13207           0.0000000000
     39622     13208  TIP3      OH2            34.2490833595       25.5991677139       -1.7987196465  W2        13208           0.0000000000
     39623     13208  TIP3      H1             33.7350333595       25.4733877139       -1.0011196465  W2        13208           0.0000000000
     39624     13208  TIP3      H2             34.0935533595       26.5114777139       -2.0430996465  W2        13208           0.0000000000
     39625     13209  TIP3      OH2            35.0115733595       30.4601677139      -16.0374196465  W2        13209           0.0000000000
     39626     13209  TIP3      H1             35.0536533595       30.2375577139      -16.9674196465  W2        13209           0.0000000000
     39627     13209  TIP3      H2             35.8607833595       30.8588777139      -15.8474296465  W2        13209           0.0000000000
     39628     13210  TIP3      OH2            30.5843233595       24.3359877139      -15.3670896465  W2        13210           0.0000000000
     39629     13210  TIP3      H1             30.3308033595       24.3551477139      -14.4442796465  W2        13210           0.0000000000
     39630     13210  TIP3      H2             30.3275333595       23.4645277139      -15.6684696465  W2        13210           0.0000000000
     39631     13211  TIP3      OH2            26.3508233595       27.0870577139       -4.9318496465  W2        13211           0.0000000000
     39632     13211  TIP3      H1             25.7090333595       27.0467877139       -4.2228396465  W2        13211           0.0000000000
     39633     13211  TIP3      H2             26.3880233595       28.0135277139       -5.1695496465  W2        13211           0.0000000000
     39634     13212  TIP3      OH2            26.3477333595       27.3080677139      -10.0198496465  W2        13212           0.0000000000
     39635     13212  TIP3      H1             25.4550233595       26.9676777139      -10.0784696465  W2        13212           0.0000000000
     39636     13212  TIP3      H2             26.7983933595       26.9311577139      -10.7755296465  W2        13212           0.0000000000
     39637     13213  TIP3      OH2            31.8832833595       27.7240977139      -11.2027696465  W2        13213           0.0000000000
     39638     13213  TIP3      H1             31.4743133595       28.5389577139      -11.4942896465  W2        13213           0.0000000000
     39639     13213  TIP3      H2             32.6039033595       27.5841077139      -11.8170596465  W2        13213           0.0000000000
     39640     13214  TIP3      OH2            30.9854433595       27.8997377139        0.2853003535  W2        13214           0.0000000000
     39641     13214  TIP3      H1             30.4228233595       27.1948977139        0.6060803535  W2        13214           0.0000000000
     39642     13214  TIP3      H2             31.8117833595       27.7789277139        0.7530603535  W2        13214           0.0000000000
     39643     13215  TIP3      OH2            32.8880533595       27.1701377139       -8.3887996465  W2        13215           0.0000000000
     39644     13215  TIP3      H1             32.6925033595       27.7758177139       -9.1037396465  W2        13215           0.0000000000
     39645     13215  TIP3      H2             33.0693133595       26.3366577139       -8.8231696465  W2        13215           0.0000000000
     39646     13216  TIP3      OH2            24.1008733595       27.4074077139       -3.0646496465  W2        13216           0.0000000000
     39647     13216  TIP3      H1             24.0628133595       27.8075677139       -2.1959396465  W2        13216           0.0000000000
     39648     13216  TIP3      H2             23.6099833595       26.5906477139       -2.9743596465  W2        13216           0.0000000000
     39649     13217  TIP3      OH2            27.4666133595       24.7816377139      -16.2660496465  W2        13217           0.0000000000
     39650     13217  TIP3      H1             27.0356833595       24.3366477139      -15.5363096465  W2        13217           0.0000000000
     39651     13217  TIP3      H2             26.7484833595       25.1532677139      -16.7782996465  W2        13217           0.0000000000
     39652     13218  TIP3      OH2            20.7089533595       24.5235877139       -9.2141796465  W2        13218           0.0000000000
     39653     13218  TIP3      H1             21.3397233595       24.4947977139       -8.4947896465  W2        13218           0.0000000000
     39654     13218  TIP3      H2             21.1583833595       24.0984577139       -9.9445896465  W2        13218           0.0000000000
     39655     13219  TIP3      OH2            21.9831633595       25.2697877139      -13.7901396465  W2        13219           0.0000000000
     39656     13219  TIP3      H1             22.4573333595       25.8607777139      -14.3750496465  W2        13219           0.0000000000
     39657     13219  TIP3      H2             21.2658033595       25.8000777139      -13.4431296465  W2        13219           0.0000000000
     39658     13220  TIP3      OH2            32.1519733595       28.8082677139       -3.7175596465  W2        13220           0.0000000000
     39659     13220  TIP3      H1             32.4754533595       28.1772377139       -4.3605096465  W2        13220           0.0000000000
     39660     13220  TIP3      H2             31.7119033595       28.2734877139       -3.0568196465  W2        13220           0.0000000000
     39661     13221  TIP3      OH2            28.9292633595       24.7358177139       -8.9334396465  W2        13221           0.0000000000
     39662     13221  TIP3      H1             28.0183733595       24.7924977139       -8.6448396465  W2        13221           0.0000000000
     39663     13221  TIP3      H2             29.4345533595       24.6753677139       -8.1227196465  W2        13221           0.0000000000
     39664     13222  TIP3      OH2            23.7576033595       26.3644477139      -10.1066796465  W2        13222           0.0000000000
     39665     13222  TIP3      H1             22.8684033595       26.4639977139      -10.4467196465  W2        13222           0.0000000000
     39666     13222  TIP3      H2             24.0540933595       25.5227477139      -10.4528896465  W2        13222           0.0000000000
     39667     13223  TIP3      OH2            27.4107833595       26.3647077139      -12.4502196465  W2        13223           0.0000000000
     39668     13223  TIP3      H1             28.3423333595       26.4937077139      -12.2719096465  W2        13223           0.0000000000
     39669     13223  TIP3      H2             27.1958133595       27.0341377139      -13.0997496465  W2        13223           0.0000000000
     39670     13224  TIP3      OH2            33.3344533595       23.9704477139       -5.6692596465  W2        13224           0.0000000000
     39671     13224  TIP3      H1             32.6576133595       24.1017577139       -5.0052896465  W2        13224           0.0000000000
     39672     13224  TIP3      H2             32.8489433595       23.8153977139       -6.4794896465  W2        13224           0.0000000000
     39673     13225  TIP3      OH2            26.0848033595       27.5589277139      -14.8836096465  W2        13225           0.0000000000
     39674     13225  TIP3      H1             25.5423133595       27.1793077139      -15.5748496465  W2        13225           0.0000000000
     39675     13225  TIP3      H2             26.9182933595       27.7533977139      -15.3121996465  W2        13225           0.0000000000
     39676     13226  TIP3      OH2            36.6219633595       39.6419877139        0.6075003535  W2        13226           0.0000000000
     39677     13226  TIP3      H1             36.8218333595       40.0661777139       -0.2269696465  W2        13226           0.0000000000
     39678     13226  TIP3      H2             37.2773333595       39.9858077139        1.2145403535  W2        13226           0.0000000000
     39679     13227  TIP3      OH2            24.2199433595       32.1161177139        0.2155503535  W2        13227           0.0000000000
     39680     13227  TIP3      H1             24.9521833595       32.3707077139        0.7770003535  W2        13227           0.0000000000
     39681     13227  TIP3      H2             23.4398133595       32.3206577139        0.7310903535  W2        13227           0.0000000000
     39682     13228  TIP3      OH2            30.2492333595       27.5231177139       -7.0464796465  W2        13228           0.0000000000
     39683     13228  TIP3      H1             30.8135733595       26.9767777139       -7.5935196465  W2        13228           0.0000000000
     39684     13228  TIP3      H2             30.1015733595       27.0013077139       -6.2577196465  W2        13228           0.0000000000
     39685     13229  TIP3      OH2            25.2512033595       23.6597277139      -10.6279996465  W2        13229           0.0000000000
     39686     13229  TIP3      H1             24.9341533595       22.7572577139      -10.6634596465  W2        13229           0.0000000000
     39687     13229  TIP3      H2             26.0326133595       23.6614677139      -11.1808396465  W2        13229           0.0000000000
     39688     13230  TIP3      OH2            28.8758233595       25.9117277139       -4.6324396465  W2        13230           0.0000000000
     39689     13230  TIP3      H1             28.0403533595       26.3656777139       -4.5221996465  W2        13230           0.0000000000
     39690     13230  TIP3      H2             29.3998833595       26.1875777139       -3.8804496465  W2        13230           0.0000000000
     39691     13231  TIP3      OH2            29.4200833595       32.1244977139      -12.9477996465  W2        13231           0.0000000000
     39692     13231  TIP3      H1             28.6751833595       31.6170277139      -13.2700096465  W2        13231           0.0000000000
     39693     13231  TIP3      H2             29.2858033595       32.1732977139      -12.0013196465  W2        13231           0.0000000000
     39694     13232  TIP3      OH2            36.5699733595       31.2573177139       -4.1610396465  W2        13232           0.0000000000
     39695     13232  TIP3      H1             37.2118533595       31.7139477139       -4.7048196465  W2        13232           0.0000000000
     39696     13232  TIP3      H2             35.7396633595       31.3705577139       -4.6236296465  W2        13232           0.0000000000
     39697     13233  TIP3      OH2            33.3177633595       24.9384877139      -14.7485396465  W2        13233           0.0000000000
     39698     13233  TIP3      H1             32.3791833595       25.0500477139      -14.8996596465  W2        13233           0.0000000000
     39699     13233  TIP3      H2             33.6149733595       25.7951777139      -14.4419696465  W2        13233           0.0000000000
     39700     13234  TIP3      OH2            30.9392933595       32.3088277139       -1.7108896465  W2        13234           0.0000000000
     39701     13234  TIP3      H1             30.5939033595       31.9270677139       -0.9039296465  W2        13234           0.0000000000
     39702     13234  TIP3      H2             30.7393033595       33.2421877139       -1.6395996465  W2        13234           0.0000000000
     39703     13235  TIP3      OH2            34.0361133595       26.8057577139      -13.0877996465  W2        13235           0.0000000000
     39704     13235  TIP3      H1             34.9280133595       26.6682577139      -12.7686796465  W2        13235           0.0000000000
     39705     13235  TIP3      H2             34.0924733595       27.5963677139      -13.6244496465  W2        13235           0.0000000000
     39706     13236  TIP3      OH2            24.5449133595       31.4194977139       -7.1780096465  W2        13236           0.0000000000
     39707     13236  TIP3      H1             25.2896333595       31.4170677139       -7.7793596465  W2        13236           0.0000000000
     39708     13236  TIP3      H2             24.6225733595       30.5958777139       -6.6964996465  W2        13236           0.0000000000
     39709     13237  TIP3      OH2            31.5454933595       33.5829277139      -13.9223396465  W2        13237           0.0000000000
     39710     13237  TIP3      H1             31.2503333595       34.4097177139      -13.5408596465  W2        13237           0.0000000000
     39711     13237  TIP3      H2             30.8424933595       32.9636177139      -13.7261996465  W2        13237           0.0000000000
     39712     13238  TIP3      OH2            21.5528833595       29.8801877139       -1.8631596465  W2        13238           0.0000000000
     39713     13238  TIP3      H1             21.7757433595       29.4621477139       -1.0314096465  W2        13238           0.0000000000
     39714     13238  TIP3      H2             20.9508933595       29.2676877139       -2.2858796465  W2        13238           0.0000000000
     39715     13239  TIP3      OH2            28.5693733595       29.3971777139        0.3498103535  W2        13239           0.0000000000
     39716     13239  TIP3      H1             28.2734533595       29.2314777139       -0.5452796465  W2        13239           0.0000000000
     39717     13239  TIP3      H2             29.5008933595       29.1772077139        0.3392003535  W2        13239           0.0000000000
     39718     13240  TIP3      OH2            33.1896533595       34.7703777139       -1.7603896465  W2        13240           0.0000000000
     39719     13240  TIP3      H1             32.2890833595       34.9536377139       -2.0279996465  W2        13240           0.0000000000
     39720     13240  TIP3      H2             33.2237633595       35.0293077139       -0.8395096465  W2        13240           0.0000000000
     39721     13241  TIP3      OH2            38.9209833595       27.0151677139      -13.3931296465  W2        13241           0.0000000000
     39722     13241  TIP3      H1             38.3666133595       26.6189677139      -14.0653796465  W2        13241           0.0000000000
     39723     13241  TIP3      H2             39.0213433595       27.9256877139      -13.6707996465  W2        13241           0.0000000000
     39724     13242  TIP3      OH2            38.8841833595       32.8153377139       -0.5559796465  W2        13242           0.0000000000
     39725     13242  TIP3      H1             38.0330333595       33.0537177139       -0.9233396465  W2        13242           0.0000000000
     39726     13242  TIP3      H2             39.4745233595       32.7986577139       -1.3092696465  W2        13242           0.0000000000
     39727     13243  TIP3      OH2            37.2161533595       35.8012077139      -12.9279196465  W2        13243           0.0000000000
     39728     13243  TIP3      H1             36.8432633595       34.9755877139      -12.6188596465  W2        13243           0.0000000000
     39729     13243  TIP3      H2             37.4935033595       35.6181477139      -13.8255796465  W2        13243           0.0000000000
     39730     13244  TIP3      OH2            34.3765433595       30.6091577139       -5.9067296465  W2        13244           0.0000000000
     39731     13244  TIP3      H1             33.4482333595       30.3773477139       -5.9337996465  W2        13244           0.0000000000
     39732     13244  TIP3      H2             34.8276533595       29.8321377139       -6.2368496465  W2        13244           0.0000000000
     39733     13245  TIP3      OH2            26.9198533595       34.9373177139       -9.7738596465  W2        13245           0.0000000000
     39734     13245  TIP3      H1             27.4470733595       35.7107577139       -9.9739796465  W2        13245           0.0000000000
     39735     13245  TIP3      H2             26.0397033595       35.1622377139      -10.0754596465  W2        13245           0.0000000000
     39736     13246  TIP3      OH2            22.6746233595       29.7997277139      -15.1866196465  W2        13246           0.0000000000
     39737     13246  TIP3      H1             23.2906133595       30.4264477139      -14.8071396465  W2        13246           0.0000000000
     39738     13246  TIP3      H2             21.8128833595       30.1157077139      -14.9149696465  W2        13246           0.0000000000
     39739     13247  TIP3      OH2            28.3470833595       32.6003077139      -10.1974296465  W2        13247           0.0000000000
     39740     13247  TIP3      H1             28.1060833595       33.5257477139      -10.1558996465  W2        13247           0.0000000000
     39741     13247  TIP3      H2             27.6064433595       32.1414377139       -9.8010396465  W2        13247           0.0000000000
     39742     13248  TIP3      OH2            28.8617433595       36.7496677139       -3.8823196465  W2        13248           0.0000000000
     39743     13248  TIP3      H1             29.2242133595       37.6042277139       -4.1158796465  W2        13248           0.0000000000
     39744     13248  TIP3      H2             29.3932633595       36.4578277139       -3.1416896465  W2        13248           0.0000000000
     39745     13249  TIP3      OH2            27.0301633595       37.6220677139      -10.6522096465  W2        13249           0.0000000000
     39746     13249  TIP3      H1             26.0802133595       37.7278077139      -10.6008796465  W2        13249           0.0000000000
     39747     13249  TIP3      H2             27.3819733595       38.4428077139      -10.3074596465  W2        13249           0.0000000000
     39748     13250  TIP3      OH2            32.4058233595       32.8487377139       -4.1817596465  W2        13250           0.0000000000
     39749     13250  TIP3      H1             31.9799533595       32.6209077139       -3.3553596465  W2        13250           0.0000000000
     39750     13250  TIP3      H2             32.9864033595       32.1099177139       -4.3642296465  W2        13250           0.0000000000
     39751     13251  TIP3      OH2            34.6087133595       33.7777877139      -15.1078596465  W2        13251           0.0000000000
     39752     13251  TIP3      H1             34.9620233595       33.3977677139      -14.3035096465  W2        13251           0.0000000000
     39753     13251  TIP3      H2             33.6600633595       33.6842677139      -15.0209296465  W2        13251           0.0000000000
     39754     13252  TIP3      OH2            35.0642433595       37.4006877139       -1.7122796465  W2        13252           0.0000000000
     39755     13252  TIP3      H1             34.4625633595       36.8449777139       -2.2076496465  W2        13252           0.0000000000
     39756     13252  TIP3      H2             35.3456133595       38.0676677139       -2.3385396465  W2        13252           0.0000000000
     39757     13253  TIP3      OH2            39.1121533595       38.2570377139      -14.9068396465  W2        13253           0.0000000000
     39758     13253  TIP3      H1             39.8559433595       38.8430877139      -15.0466796465  W2        13253           0.0000000000
     39759     13253  TIP3      H2             38.4179633595       38.8256177139      -14.5735996465  W2        13253           0.0000000000
     39760     13254  TIP3      OH2            23.1868333595       24.6334577139       -2.3050196465  W2        13254           0.0000000000
     39761     13254  TIP3      H1             22.2940633595       24.9719977139       -2.3726196465  W2        13254           0.0000000000
     39762     13254  TIP3      H2             23.0881133595       23.7780677139       -1.8869396465  W2        13254           0.0000000000
     39763     13255  TIP3      OH2            35.4746433595       32.4499877139      -12.8810696465  W2        13255           0.0000000000
     39764     13255  TIP3      H1             35.1974033595       31.7219177139      -12.3249596465  W2        13255           0.0000000000
     39765     13255  TIP3      H2             36.4019433595       32.5691877139      -12.6758096465  W2        13255           0.0000000000
     39766     13256  TIP3      OH2            22.8380333595       36.4378977139       -3.8700796465  W2        13256           0.0000000000
     39767     13256  TIP3      H1             23.0550633595       35.5061377139       -3.9011096465  W2        13256           0.0000000000
     39768     13256  TIP3      H2             23.0843833595       36.7123977139       -2.9867996465  W2        13256           0.0000000000
     39769     13257  TIP3      OH2            28.6994933595       34.8893977139      -16.6608596465  W2        13257           0.0000000000
     39770     13257  TIP3      H1             28.9384733595       34.1412077139      -17.2079696465  W2        13257           0.0000000000
     39771     13257  TIP3      H2             28.4306233595       34.5015677139      -15.8280796465  W2        13257           0.0000000000
     39772     13258  TIP3      OH2            27.6365533595       34.4597777139      -14.2045996465  W2        13258           0.0000000000
     39773     13258  TIP3      H1             27.7833533595       33.9397577139      -13.4145096465  W2        13258           0.0000000000
     39774     13258  TIP3      H2             27.6337233595       35.3665377139      -13.8980096465  W2        13258           0.0000000000
     39775     13259  TIP3      OH2            24.0896633595       31.7121077139      -13.6940596465  W2        13259           0.0000000000
     39776     13259  TIP3      H1             23.4035933595       32.0643577139      -13.1270896465  W2        13259           0.0000000000
     39777     13259  TIP3      H2             24.6124533595       32.4750677139      -13.9406296465  W2        13259           0.0000000000
     39778     13260  TIP3      OH2            31.9211733595       24.3744877139       -3.4151596465  W2        13260           0.0000000000
     39779     13260  TIP3      H1             32.6199633595       24.4483577139       -2.7651896465  W2        13260           0.0000000000
     39780     13260  TIP3      H2             31.5403133595       23.5099877139       -3.2608696465  W2        13260           0.0000000000
     39781     13261  TIP3      OH2            32.7056633595       24.0266577139      -12.3179296465  W2        13261           0.0000000000
     39782     13261  TIP3      H1             32.9254933595       24.4981977139      -13.1213896465  W2        13261           0.0000000000
     39783     13261  TIP3      H2             33.2640633595       24.4209177139      -11.6478696465  W2        13261           0.0000000000
     39784     13262  TIP3      OH2            30.3742733595       36.1571377139      -13.4551796465  W2        13262           0.0000000000
     39785     13262  TIP3      H1             29.5578833595       36.6541077139      -13.4027496465  W2        13262           0.0000000000
     39786     13262  TIP3      H2             30.9039033595       36.6324877139      -14.0952996465  W2        13262           0.0000000000
     39787     13263  TIP3      OH2            29.9056533595       25.7545377139      -11.4830896465  W2        13263           0.0000000000
     39788     13263  TIP3      H1             30.7179133595       26.2588577139      -11.4369196465  W2        13263           0.0000000000
     39789     13263  TIP3      H2             29.6609533595       25.6095077139      -10.5691296465  W2        13263           0.0000000000
     39790     13264  TIP3      OH2            30.4412933595       26.7408077139       -2.2984296465  W2        13264           0.0000000000
     39791     13264  TIP3      H1             30.5603233595       27.3143477139       -1.5413896465  W2        13264           0.0000000000
     39792     13264  TIP3      H2             31.0967533595       26.0527477139       -2.1836496465  W2        13264           0.0000000000
     39793     13265  TIP3      OH2            30.7893233595       22.8358377139      -10.5449796465  W2        13265           0.0000000000
     39794     13265  TIP3      H1             30.4426733595       23.4528977139       -9.9005496465  W2        13265           0.0000000000
     39795     13265  TIP3      H2             31.4480133595       23.3364077139      -11.0264296465  W2        13265           0.0000000000
     39796     13266  TIP3      OH2            27.7125833595       37.2008577139      -13.4734896465  W2        13266           0.0000000000
     39797     13266  TIP3      H1             27.8734533595       38.0006077139      -13.9742296465  W2        13266           0.0000000000
     39798     13266  TIP3      H2             27.5153633595       37.5074577139      -12.5884296465  W2        13266           0.0000000000
     39799     13267  TIP3      OH2            26.4470233595       23.8987777139      -13.8577296465  W2        13267           0.0000000000
     39800     13267  TIP3      H1             26.3635033595       24.7870877139      -13.5110896465  W2        13267           0.0000000000
     39801     13267  TIP3      H2             27.3370533595       23.6334477139      -13.6260496465  W2        13267           0.0000000000
     39802     13268  TIP3      OH2            36.6458733595       24.6478377139       -1.4634596465  W2        13268           0.0000000000
     39803     13268  TIP3      H1             35.7294533595       24.9100077139       -1.5510896465  W2        13268           0.0000000000
     39804     13268  TIP3      H2             36.9813733595       24.6447377139       -2.3599296465  W2        13268           0.0000000000
     39805     13269  TIP3      OH2            35.2479733595       28.3979377139       -7.3677296465  W2        13269           0.0000000000
     39806     13269  TIP3      H1             34.4504133595       27.9829577139       -7.6962296465  W2        13269           0.0000000000
     39807     13269  TIP3      H2             35.6930833595       27.7073077139       -6.8766796465  W2        13269           0.0000000000
     39808     13270  TIP3      OH2            24.7055533595       34.3259977139      -14.7972796465  W2        13270           0.0000000000
     39809     13270  TIP3      H1             25.2977033595       35.0254777139      -14.5210396465  W2        13270           0.0000000000
     39810     13270  TIP3      H2             25.1648533595       33.8929477139      -15.5168196465  W2        13270           0.0000000000
     39811     13271  TIP3      OH2            23.0214733595       26.9902977139      -15.6813396465  W2        13271           0.0000000000
     39812     13271  TIP3      H1             22.9767333595       27.9296077139      -15.5026396465  W2        13271           0.0000000000
     39813     13271  TIP3      H2             22.1337933595       26.7547877139      -15.9511296465  W2        13271           0.0000000000
     39814     13272  TIP3      OH2            36.3344333595       37.6541877139       -5.7453796465  W2        13272           0.0000000000
     39815     13272  TIP3      H1             36.1788633595       38.3326277139       -6.4024496465  W2        13272           0.0000000000
     39816     13272  TIP3      H2             37.2670733595       37.7261177139       -5.5423196465  W2        13272           0.0000000000
     39817     13273  TIP3      OH2            23.8296733595       21.7719577139       -7.0082396465  W2        13273           0.0000000000
     39818     13273  TIP3      H1             23.6006533595       21.8312077139       -7.9357396465  W2        13273           0.0000000000
     39819     13273  TIP3      H2             23.3870133595       20.9805077139       -6.7018296465  W2        13273           0.0000000000
     39820     13274  TIP3      OH2            22.7600033595       35.7126677139      -10.8476596465  W2        13274           0.0000000000
     39821     13274  TIP3      H1             21.9278633595       36.1849377139      -10.8205196465  W2        13274           0.0000000000
     39822     13274  TIP3      H2             23.3058333595       36.2224277139      -11.4463496465  W2        13274           0.0000000000
     39823     13275  TIP3      OH2            22.0483733595       38.3250377139        0.4821403535  W2        13275           0.0000000000
     39824     13275  TIP3      H1             22.5885933595       38.1084377139        1.2420603535  W2        13275           0.0000000000
     39825     13275  TIP3      H2             21.5671733595       37.5196377139        0.2923903535  W2        13275           0.0000000000
     39826     13276  TIP3      OH2            26.6457133595       37.2444777139        2.1025603535  W2        13276           0.0000000000
     39827     13276  TIP3      H1             27.4134333595       36.7855577139        2.4434803535  W2        13276           0.0000000000
     39828     13276  TIP3      H2             26.6243333595       37.0184577139        1.1726803535  W2        13276           0.0000000000
     39829     13277  TIP3      OH2            30.7376733595       36.7525377139      -16.5222596465  W2        13277           0.0000000000
     39830     13277  TIP3      H1             30.0937733595       36.1213977139      -16.2008896465  W2        13277           0.0000000000
     39831     13277  TIP3      H2             31.4995033595       36.2213377139      -16.7539096465  W2        13277           0.0000000000
     39832     13278  TIP3      OH2            33.2225833595       35.6245877139        0.8317103535  W2        13278           0.0000000000
     39833     13278  TIP3      H1             32.8715333595       34.7678877139        1.0747503535  W2        13278           0.0000000000
     39834     13278  TIP3      H2             33.9489033595       35.7672577139        1.4386103535  W2        13278           0.0000000000
     39835     13279  TIP3      OH2            35.3419633595       36.5695277139      -16.2884596465  W2        13279           0.0000000000
     39836     13279  TIP3      H1             35.6250033595       35.7750477139      -15.8357696465  W2        13279           0.0000000000
     39837     13279  TIP3      H2             36.0817533595       36.8026277139      -16.8493496465  W2        13279           0.0000000000
     39838     13280  TIP3      OH2            21.9553233595       32.1354477139        1.4365703535  W2        13280           0.0000000000
     39839     13280  TIP3      H1             22.0993733595       31.2335177139        1.1502403535  W2        13280           0.0000000000
     39840     13280  TIP3      H2             21.1830633595       32.4216577139        0.9488003535  W2        13280           0.0000000000
     39841     13281  TIP3      OH2            26.2966933595       32.4790177139      -16.4309696465  W2        13281           0.0000000000
     39842     13281  TIP3      H1             26.3611033595       31.6849777139      -15.9003296465  W2        13281           0.0000000000
     39843     13281  TIP3      H2             26.9496133595       32.3602977139      -17.1207696465  W2        13281           0.0000000000
     39844     13282  TIP3      OH2            28.6109333595       32.1052577139        0.8692103535  W2        13282           0.0000000000
     39845     13282  TIP3      H1             28.2823133595       32.3760677139        0.0119503535  W2        13282           0.0000000000
     39846     13282  TIP3      H2             28.7627533595       31.1642377139        0.7817103535  W2        13282           0.0000000000
     39847     13283  TIP3      OH2            31.6490333595       33.5261877139      -16.6951696465  W2        13283           0.0000000000
     39848     13283  TIP3      H1             31.3804433595       33.7063977139      -15.7942796465  W2        13283           0.0000000000
     39849     13283  TIP3      H2             31.4425933595       32.6008077139      -16.8265896465  W2        13283           0.0000000000
     39850     13284  TIP3      OH2            34.3454533595       32.0209877139       -1.7475596465  W2        13284           0.0000000000
     39851     13284  TIP3      H1             35.0909333595       32.6093577139       -1.8671596465  W2        13284           0.0000000000
     39852     13284  TIP3      H2             33.5881333595       32.6029577139       -1.6842496465  W2        13284           0.0000000000
     39853     13285  TIP3      OH2            22.7879733595       29.3357777139        0.8565003535  W2        13285           0.0000000000
     39854     13285  TIP3      H1             23.1960933595       28.4784377139        0.7355603535  W2        13285           0.0000000000
     39855     13285  TIP3      H2             22.5277333595       29.3499077139        1.7775303535  W2        13285           0.0000000000
     39856     13286  TIP3      OH2            27.4460733595       30.4516377139      -14.1251696465  W2        13286           0.0000000000
     39857     13286  TIP3      H1             26.9862733595       29.9674677139      -13.4393196465  W2        13286           0.0000000000
     39858     13286  TIP3      H2             27.7009433595       29.7831777139      -14.7611196465  W2        13286           0.0000000000
     39859     13287  TIP3      OH2            26.7350033595       28.3443477139       -1.7692096465  W2        13287           0.0000000000
     39860     13287  TIP3      H1             26.1166133595       29.0190077139       -1.4887396465  W2        13287           0.0000000000
     39861     13287  TIP3      H2             27.0791233595       28.6657377139       -2.6025896465  W2        13287           0.0000000000
     39862     13288  TIP3      OH2            28.5171133595       28.6948177139      -15.8628496465  W2        13288           0.0000000000
     39863     13288  TIP3      H1             28.3366133595       28.5399377139      -16.7900196465  W2        13288           0.0000000000
     39864     13288  TIP3      H2             29.4671633595       28.8026877139      -15.8180596465  W2        13288           0.0000000000
     39865     13289  TIP3      OH2            31.7548233595       30.8158777139        1.5082703535  W2        13289           0.0000000000
     39866     13289  TIP3      H1             32.7079433595       30.8997877139        1.4808703535  W2        13289           0.0000000000
     39867     13289  TIP3      H2             31.5942833595       30.1040577139        2.1277603535  W2        13289           0.0000000000
     39868     13290  TIP3      OH2            37.9069433595       31.0492377139      -16.4170396465  W2        13290           0.0000000000
     39869     13290  TIP3      H1             37.6334233595       30.6247877139      -17.2302096465  W2        13290           0.0000000000
     39870     13290  TIP3      H2             37.9463533595       31.9806877139      -16.6339996465  W2        13290           0.0000000000
     39871     13291  TIP3      OH2            27.0743733595       25.6994277139       -0.6868996465  W2        13291           0.0000000000
     39872     13291  TIP3      H1             27.2244633595       24.9705577139       -1.2889296465  W2        13291           0.0000000000
     39873     13291  TIP3      H2             27.0766133595       26.4765977139       -1.2456796465  W2        13291           0.0000000000
     39874     13292  TIP3      OH2            27.4869433595       24.0690077139       -3.1941596465  W2        13292           0.0000000000
     39875     13292  TIP3      H1             28.0226933595       24.5206777139       -3.8462296465  W2        13292           0.0000000000
     39876     13292  TIP3      H2             26.6349033595       23.9609877139       -3.6167496465  W2        13292           0.0000000000
     39877     13293  TIP3      OH2            29.0687833595       29.5086277139       -2.9546396465  W2        13293           0.0000000000
     39878     13293  TIP3      H1             29.8192633595       29.3523777139       -3.5278596465  W2        13293           0.0000000000
     39879     13293  TIP3      H2             28.7296133595       30.3602877139       -3.2300896465  W2        13293           0.0000000000
     39880     13294  TIP3      OH2            33.4844033595       27.3238077139        2.0738903535  W2        13294           0.0000000000
     39881     13294  TIP3      H1             33.6765333595       26.3927477139        1.9623403535  W2        13294           0.0000000000
     39882     13294  TIP3      H2             34.3420333595       27.7487577139        2.0634303535  W2        13294           0.0000000000
     39883     13295  TIP3      OH2            34.8011233595       30.1123277139        0.1511603535  W2        13295           0.0000000000
     39884     13295  TIP3      H1             34.5196233595       30.8217877139       -0.4264596465  W2        13295           0.0000000000
     39885     13295  TIP3      H2             35.7435533595       30.0396277139        0.0002803535  W2        13295           0.0000000000
     39886     13296  TIP3      OH2            25.5530033595       26.8977777139        1.2246603535  W2        13296           0.0000000000
     39887     13296  TIP3      H1             24.7859033595       26.3652577139        1.0144203535  W2        13296           0.0000000000
     39888     13296  TIP3      H2             26.2319033595       26.5878177139        0.6252903535  W2        13296           0.0000000000
     39889     13297  TIP3      OH2            28.2924933595       21.5255777139       -2.7627996465  W2        13297           0.0000000000
     39890     13297  TIP3      H1             28.1944533595       22.4718977139       -2.8681796465  W2        13297           0.0000000000
     39891     13297  TIP3      H2             27.5501133595       21.1529577139       -3.2384496465  W2        13297           0.0000000000
     39892     13298  TIP3      OH2            29.5565433595       25.8471177139        0.8010403535  W2        13298           0.0000000000
     39893     13298  TIP3      H1             29.3210833595       25.6277877139        1.7025303535  W2        13298           0.0000000000
     39894     13298  TIP3      H2             28.7732333595       25.6402377139        0.2912903535  W2        13298           0.0000000000
     39895     13299  TIP3      OH2            32.2722033595       24.9744677139       -0.1236096465  W2        13299           0.0000000000
     39896     13299  TIP3      H1             31.3247433595       25.0064377139        0.0087203535  W2        13299           0.0000000000
     39897     13299  TIP3      H2             32.5848733595       24.3491777139        0.5302103535  W2        13299           0.0000000000
     39898     13300  TIP3      OH2            33.9063533595       23.6085777139        1.8815803535  W2        13300           0.0000000000
     39899     13300  TIP3      H1             33.8095333595       22.6563077139        1.8757703535  W2        13300           0.0000000000
     39900     13300  TIP3      H2             33.5846633595       23.8772577139        2.7421303535  W2        13300           0.0000000000
     39901     13301  TIP3      OH2            23.7332833595       24.8181577139        0.9291303535  W2        13301           0.0000000000
     39902     13301  TIP3      H1             23.9450233595       24.1117677139        0.3188803535  W2        13301           0.0000000000
     39903     13301  TIP3      H2             23.6220333595       24.3807577139        1.7732503535  W2        13301           0.0000000000
     39904     13302  TIP3      OH2            28.5143033595       20.8193177139       -0.0915196465  W2        13302           0.0000000000
     39905     13302  TIP3      H1             29.2261433595       20.1795377139       -0.1056096465  W2        13302           0.0000000000
     39906     13302  TIP3      H2             28.4133433595       21.0861477139       -1.0052096465  W2        13302           0.0000000000
     39907     13303  TIP3      OH2            28.8680533595       22.5021577139        1.9621103535  W2        13303           0.0000000000
     39908     13303  TIP3      H1             28.7362733595       22.0265377139        1.1419603535  W2        13303           0.0000000000
     39909     13303  TIP3      H2             28.2687933595       23.2465177139        1.9068203535  W2        13303           0.0000000000
     39910     13304  TIP3      OH2            28.4142833595       39.3851877139      -14.8614896465  W2        13304           0.0000000000
     39911     13304  TIP3      H1             29.3473533595       39.5430577139      -14.7176496465  W2        13304           0.0000000000
     39912     13304  TIP3      H2             28.1501633595       40.0604877139      -15.4863396465  W2        13304           0.0000000000
     39913     13305  TIP3      OH2            21.9827733595       34.0215677139      -15.3786796465  W2        13305           0.0000000000
     39914     13305  TIP3      H1             22.8966933595       34.1004577139      -15.1052896465  W2        13305           0.0000000000
     39915     13305  TIP3      H2             21.9900833595       33.3345277139      -16.0451196465  W2        13305           0.0000000000
     39916     13306  TIP3      OH2            20.6318333595       39.4144177139      -10.3012896465  W2        13306           0.0000000000
     39917     13306  TIP3      H1             19.9845433595       38.9525877139      -10.8341696465  W2        13306           0.0000000000
     39918     13306  TIP3      H2             20.9862933595       38.7427477139       -9.7186696465  W2        13306           0.0000000000
     39919     13307  TIP3      OH2            21.5017533595       37.4951177139       -8.4966696465  W2        13307           0.0000000000
     39920     13307  TIP3      H1             21.1674333595       36.6148477139       -8.3246496465  W2        13307           0.0000000000
     39921     13307  TIP3      H2             21.7239933595       37.8406177139       -7.6321096465  W2        13307           0.0000000000
     39922     13308  TIP3      OH2            39.0502333595       38.3047577139       -5.5161896465  W2        13308           0.0000000000
     39923     13308  TIP3      H1             39.0289033595       38.4895977139       -4.5772496465  W2        13308           0.0000000000
     39924     13308  TIP3      H2             39.7408533595       38.8731577139       -5.8570496465  W2        13308           0.0000000000
     39925     13309  TIP3      OH2            38.6135233595       37.8718677139       -2.5942796465  W2        13309           0.0000000000
     39926     13309  TIP3      H1             38.1263933595       37.1362777139       -2.9655396465  W2        13309           0.0000000000
     39927     13309  TIP3      H2             39.1627933595       37.4782577139       -1.9163396465  W2        13309           0.0000000000
     39928     13310  TIP3      OH2            37.0642533595       33.6616777139        2.0437503535  W2        13310           0.0000000000
     39929     13310  TIP3      H1             36.1983633595       33.5566477139        2.4379803535  W2        13310           0.0000000000
     39930     13310  TIP3      H2             37.4408433595       34.4200077139        2.4902203535  W2        13310           0.0000000000
     39931     13311  TIP3      OH2            38.3652233595       31.9180477139      -12.4419996465  W2        13311           0.0000000000
     39932     13311  TIP3      H1             39.2153633595       32.3391377139      -12.3148396465  W2        13311           0.0000000000
     39933     13311  TIP3      H2             38.3707333595       31.1780577139      -11.8348596465  W2        13311           0.0000000000
     39934     13312  TIP3      OH2            38.7597833595       29.9717877139      -10.6184296465  W2        13312           0.0000000000
     39935     13312  TIP3      H1             38.0332433595       29.4920477139      -10.2206696465  W2        13312           0.0000000000
     39936     13312  TIP3      H2             39.3411133595       30.1772577139       -9.8862696465  W2        13312           0.0000000000
     39937     13313  TIP3      OH2            38.5189033595       32.7565377139       -5.6706696465  W2        13313           0.0000000000
     39938     13313  TIP3      H1             39.3523233595       32.3785377139       -5.9513096465  W2        13313           0.0000000000
     39939     13313  TIP3      H2             38.6309333595       33.6996577139       -5.7897596465  W2        13313           0.0000000000
     39940     13314  TIP3      OH2            37.0051333595       35.6342877139       -3.3638296465  W2        13314           0.0000000000
     39941     13314  TIP3      H1             36.3576633595       35.9594377139       -2.7383096465  W2        13314           0.0000000000
     39942     13314  TIP3      H2             36.4875333595       35.1940577139       -4.0379996465  W2        13314           0.0000000000
     39943     13315  TIP3      OH2            39.0280933595       29.8726377139      -14.2272996465  W2        13315           0.0000000000
     39944     13315  TIP3      H1             38.5062033595       30.2290477139      -14.9462096465  W2        13315           0.0000000000
     39945     13315  TIP3      H2             38.9950133595       30.5474177139      -13.5492096465  W2        13315           0.0000000000
     39946     13316  TIP3      OH2            37.3769933595       27.1121977139      -15.6765896465  W2        13316           0.0000000000
     39947     13316  TIP3      H1             37.4734333595       27.7788977139      -16.3566196465  W2        13316           0.0000000000
     39948     13316  TIP3      H2             37.2369533595       26.2968277139      -16.1580396465  W2        13316           0.0000000000
     39949     13317  TIP3      OH2            36.5464633595       28.4924377139      -10.0555596465  W2        13317           0.0000000000
     39950     13317  TIP3      H1             36.3963433595       27.5472977139      -10.0757796465  W2        13317           0.0000000000
     39951     13317  TIP3      H2             36.1929133595       28.7735777139       -9.2116496465  W2        13317           0.0000000000
     39952     13318  TIP3      OH2            21.5817033595       30.5706577139       -6.0451796465  W2        13318           0.0000000000
     39953     13318  TIP3      H1             21.7659933595       30.4888277139       -6.9808896465  W2        13318           0.0000000000
     39954     13318  TIP3      H2             22.4309933595       30.4463577139       -5.6215396465  W2        13318           0.0000000000
     39955     13319  TIP3      OH2            37.4027533595       30.4627677139       -0.4167296465  W2        13319           0.0000000000
     39956     13319  TIP3      H1             37.9854833595       29.7279977139       -0.2250096465  W2        13319           0.0000000000
     39957     13319  TIP3      H2             37.9666833595       31.2347977139       -0.3701496465  W2        13319           0.0000000000
     39958     13320  TIP3      OH2            38.8994633595       28.3653477139        0.2678103535  W2        13320           0.0000000000
     39959     13320  TIP3      H1             38.0361333595       27.9865577139        0.1022803535  W2        13320           0.0000000000
     39960     13320  TIP3      H2             39.5038333595       27.6268277139        0.1933903535  W2        13320           0.0000000000
     39961     13321  TIP3      OH2            36.6243733595       24.5201777139      -16.5590396465  W2        13321           0.0000000000
     39962     13321  TIP3      H1             37.2349533595       24.1488577139      -15.9222196465  W2        13321           0.0000000000
     39963     13321  TIP3      H2             35.7875233595       24.0988677139      -16.3630396465  W2        13321           0.0000000000
     39964     13322  TIP3      OH2            36.2569433595       26.0750177139      -11.5930496465  W2        13322           0.0000000000
     39965     13322  TIP3      H1             36.5366533595       25.1680577139      -11.4688796465  W2        13322           0.0000000000
     39966     13322  TIP3      H2             37.0161133595       26.5091677139      -11.9821296465  W2        13322           0.0000000000
     39967     13323  TIP3      OH2            36.8687733595       26.6567577139       -6.1571596465  W2        13323           0.0000000000
     39968     13323  TIP3      H1             37.8015733595       26.8687477139       -6.1915596465  W2        13323           0.0000000000
     39969     13323  TIP3      H2             36.6335233595       26.7579677139       -5.2348596465  W2        13323           0.0000000000
     39970     13324  TIP3      OH2            36.8979633595       27.3932877139       -3.3812196465  W2        13324           0.0000000000
     39971     13324  TIP3      H1             36.0550933595       27.6613277139       -3.0152396465  W2        13324           0.0000000000
     39972     13324  TIP3      H2             37.3403933595       28.2154777139       -3.5921096465  W2        13324           0.0000000000
     39973     13325  TIP3      OH2            21.1791833595       25.8411577139        0.0957003535  W2        13325           0.0000000000
     39974     13325  TIP3      H1             22.0986733595       25.7189877139        0.3320103535  W2        13325           0.0000000000
     39975     13325  TIP3      H2             20.7296333595       25.0911277139        0.4850503535  W2        13325           0.0000000000
     39976     13326  TIP3      OH2            39.1811233595       21.3733077139        1.9722803535  W2        13326           0.0000000000
     39977     13326  TIP3      H1             39.5308233595       20.7196577139        1.3667503535  W2        13326           0.0000000000
     39978     13326  TIP3      H2             39.3280733595       22.2107177139        1.5325403535  W2        13326           0.0000000000
     39979     13327  TIP3      OH2            36.8704233595       23.3379477139      -11.5448496465  W2        13327           0.0000000000
     39980     13327  TIP3      H1             37.0529233595       22.8890977139      -10.7193496465  W2        13327           0.0000000000
     39981     13327  TIP3      H2             36.2707133595       22.7533877139      -12.0083896465  W2        13327           0.0000000000
     39982     13328  TIP3      OH2            22.4004333595       24.1533177139       -7.0130096465  W2        13328           0.0000000000
     39983     13328  TIP3      H1             22.8455933595       23.3615677139       -6.7110396465  W2        13328           0.0000000000
     39984     13328  TIP3      H2             22.8667333595       24.8698377139       -6.5824496465  W2        13328           0.0000000000
     39985     13329  TIP3      OH2            20.7044633595       27.1526177139       -5.9439896465  W2        13329           0.0000000000
     39986     13329  TIP3      H1             21.1964433595       26.9316677139       -6.7347896465  W2        13329           0.0000000000
     39987     13329  TIP3      H2             21.0665533595       27.9929577139       -5.6630396465  W2        13329           0.0000000000
     39988     13330  TIP3      OH2            38.7008433595       23.4827677139        0.3214103535  W2        13330           0.0000000000
     39989     13330  TIP3      H1             37.7834133595       23.7534777139        0.2857603535  W2        13330           0.0000000000
     39990     13330  TIP3      H2             38.8237833595       22.9476077139       -0.4626196465  W2        13330           0.0000000000
     39991     13331  TIP3      OH2            38.7370433595       23.4057577139      -15.0168196465  W2        13331           0.0000000000
     39992     13331  TIP3      H1             39.1493033595       22.6843277139      -15.4920196465  W2        13331           0.0000000000
     39993     13331  TIP3      H2             39.4186933595       24.0752177139      -14.9583896465  W2        13331           0.0000000000
     39994     13332  TIP3      OH2            21.0181133595       23.4105277139      -11.8897496465  W2        13332           0.0000000000
     39995     13332  TIP3      H1             20.0929533595       23.6191877139      -12.0191996465  W2        13332           0.0000000000
     39996     13332  TIP3      H2             21.4721033595       23.8946077139      -12.5795196465  W2        13332           0.0000000000
     39997     13333  TIP3      OH2            35.7888333595       38.3946977139       -9.9440096465  W2        13333           0.0000000000
     39998     13333  TIP3      H1             36.4411233595       38.0469077139      -10.5520996465  W2        13333           0.0000000000
     39999     13333  TIP3      H2             36.2992133595       38.8830177139       -9.2980396465  W2        13333           0.0000000000
     40000     13334  TIP3      OH2            20.9816533595       22.1484277139       -3.5454996465  W2        13334           0.0000000000
     40001     13334  TIP3      H1             20.3167033595       21.9024577139       -2.9024096465  W2        13334           0.0000000000
     40002     13334  TIP3      H2             20.5387833595       22.7704677139       -4.1226996465  W2        13334           0.0000000000
     40003     13335  TIP3      OH2            23.1735833595       35.3238377139        0.5990803535  W2        13335           0.0000000000
     40004     13335  TIP3      H1             22.3528333595       35.4984877139        0.1385503535  W2        13335           0.0000000000
     40005     13335  TIP3      H2             22.9213633595       35.2503077139        1.5195203535  W2        13335           0.0000000000
     40006     13336  TIP3      OH2            26.1278733595       36.2979577139       -3.1425196465  W2        13336           0.0000000000
     40007     13336  TIP3      H1             25.7029833595       37.1078077139       -3.4250596465  W2        13336           0.0000000000
     40008     13336  TIP3      H2             27.0321533595       36.3833677139       -3.4445396465  W2        13336           0.0000000000
     40009     13337  TIP3      OH2            30.4390133595       37.6969577139       -0.1831496465  W2        13337           0.0000000000
     40010     13337  TIP3      H1             30.6237633595       37.3635677139        0.6948803535  W2        13337           0.0000000000
     40011     13337  TIP3      H2             31.2854633595       38.0068177139       -0.5052296465  W2        13337           0.0000000000
     40012     13338  TIP3      OH2            32.7840533595       38.9828477139       -0.9390096465  W2        13338           0.0000000000
     40013     13338  TIP3      H1             33.4609433595       38.3500777139       -1.1790896465  W2        13338           0.0000000000
     40014     13338  TIP3      H2             33.1059333595       39.3838977139       -0.1316796465  W2        13338           0.0000000000
     40015     13339  TIP3      OH2            37.7014333595       21.5723977139       -1.8595096465  W2        13339           0.0000000000
     40016     13339  TIP3      H1             36.8887833595       21.8974277139       -2.2470396465  W2        13339           0.0000000000
     40017     13339  TIP3      H2             37.9342833595       20.8122477139       -2.3925996465  W2        13339           0.0000000000
     40018     13340  TIP3      OH2            23.5295433595       39.5543477139       -3.0949896465  W2        13340           0.0000000000
     40019     13340  TIP3      H1             22.8091833595       39.9944477139       -3.5462196465  W2        13340           0.0000000000
     40020     13340  TIP3      H2             23.1639433595       39.3038177139       -2.2465896465  W2        13340           0.0000000000
     40021     13341  TIP3      OH2            25.9968033595       39.1547377139       -4.0652696465  W2        13341           0.0000000000
     40022     13341  TIP3      H1             25.1320233595       39.2265877139       -3.6612596465  W2        13341           0.0000000000
     40023     13341  TIP3      H2             25.9417033595       39.7014677139       -4.8490196465  W2        13341           0.0000000000
     40024     13342  TIP3      OH2            30.7073633595       39.0426277139       -4.8896696465  W2        13342           0.0000000000
     40025     13342  TIP3      H1             30.2507633595       39.5715977139       -5.5438296465  W2        13342           0.0000000000
     40026     13342  TIP3      H2             30.8701633595       39.6457677139       -4.1644396465  W2        13342           0.0000000000
     40027     13343  TIP3      OH2            33.0349933595       37.9205877139       -3.9446396465  W2        13343           0.0000000000
     40028     13343  TIP3      H1             32.1303633595       38.0856077139       -4.2104296465  W2        13343           0.0000000000
     40029     13343  TIP3      H2             33.4638533595       38.7738077139       -4.0102996465  W2        13343           0.0000000000
     40030     13344  TIP3      OH2            35.6391833595       39.4904977139       -3.6498596465  W2        13344           0.0000000000
     40031     13344  TIP3      H1             35.4573833595       40.4063877139       -3.8603696465  W2        13344           0.0000000000
     40032     13344  TIP3      H2             35.8159633595       39.0802077139       -4.4963996465  W2        13344           0.0000000000
     40033     13345  TIP3      OH2            22.9443533595       38.1775977139       -6.1848096465  W2        13345           0.0000000000
     40034     13345  TIP3      H1             22.9259533595       37.7521077139       -5.3275796465  W2        13345           0.0000000000
     40035     13345  TIP3      H2             23.7491433595       37.8590977139       -6.5935896465  W2        13345           0.0000000000
     40036     13346  TIP3      OH2            25.0856633595       36.8874677139       -7.5298196465  W2        13346           0.0000000000
     40037     13346  TIP3      H1             24.8667333595       35.9712077139       -7.3602196465  W2        13346           0.0000000000
     40038     13346  TIP3      H2             25.9098833595       37.0275077139       -7.0636796465  W2        13346           0.0000000000
     40039     13347  TIP3      OH2            27.6229133595       37.3573977139       -6.6810196465  W2        13347           0.0000000000
     40040     13347  TIP3      H1             27.8354833595       36.4692977139       -6.9679296465  W2        13347           0.0000000000
     40041     13347  TIP3      H2             27.6874233595       37.3231677139       -5.7266196465  W2        13347           0.0000000000
     40042     13348  TIP3      OH2            31.1312833595       23.0214577139       -7.5366896465  W2        13348           0.0000000000
     40043     13348  TIP3      H1             30.4569633595       22.3920177139       -7.2811096465  W2        13348           0.0000000000
     40044     13348  TIP3      H2             31.6952033595       22.5373477139       -8.1398996465  W2        13348           0.0000000000
     40045     13349  TIP3      OH2            36.2740033595       21.1288577139       -7.4239796465  W2        13349           0.0000000000
     40046     13349  TIP3      H1             36.8777633595       21.6763977139       -7.9258796465  W2        13349           0.0000000000
     40047     13349  TIP3      H2             35.4042033595       21.4478977139       -7.6645696465  W2        13349           0.0000000000
     40048     13350  TIP3      OH2            38.0010433595       22.2677277139       -9.0908896465  W2        13350           0.0000000000
     40049     13350  TIP3      H1             38.6127933595       21.7532977139       -9.6175296465  W2        13350           0.0000000000
     40050     13350  TIP3      H2             38.3833833595       23.1449377139       -9.0674496465  W2        13350           0.0000000000
     40051     13351  TIP3      OH2            23.4580333595       21.6554877139       -9.7146996465  W2        13351           0.0000000000
     40052     13351  TIP3      H1             22.6810133595       21.4209777139      -10.2221096465  W2        13351           0.0000000000
     40053     13351  TIP3      H2             23.9883933595       20.8586977139       -9.7058996465  W2        13351           0.0000000000
     40054     13352  TIP3      OH2            22.2943733595       21.4532977139      -13.9110896465  W2        13352           0.0000000000
     40055     13352  TIP3      H1             22.7334433595       22.0643477139      -14.5027396465  W2        13352           0.0000000000
     40056     13352  TIP3      H2             21.6606133595       21.9917077139      -13.4370896465  W2        13352           0.0000000000
     40057     13353  TIP3      OH2            28.0372933595       21.5821977139       -9.9013896465  W2        13353           0.0000000000
     40058     13353  TIP3      H1             28.9116333595       21.9706277139       -9.9309596465  W2        13353           0.0000000000
     40059     13353  TIP3      H2             27.9013733595       21.3669777139       -8.9786696465  W2        13353           0.0000000000
     40060     13354  TIP3      OH2            33.5941333595       21.6121777139       -8.2522196465  W2        13354           0.0000000000
     40061     13354  TIP3      H1             33.6702933595       21.7073377139       -9.2016196465  W2        13354           0.0000000000
     40062     13354  TIP3      H2             33.3190533595       20.7044677139       -8.1233096465  W2        13354           0.0000000000
     40063     13355  TIP3      OH2            34.9473933595       21.6379577139      -12.5597196465  W2        13355           0.0000000000
     40064     13355  TIP3      H1             34.2445033595       22.2528777139      -12.7695796465  W2        13355           0.0000000000
     40065     13355  TIP3      H2             34.5025333595       20.8006277139      -12.4286296465  W2        13355           0.0000000000
     40066     13356  TIP3      OH2            22.1953233595       37.4015177139      -13.0135796465  W2        13356           0.0000000000
     40067     13356  TIP3      H1             21.5103133595       37.3634077139      -13.6810696465  W2        13356           0.0000000000
     40068     13356  TIP3      H2             22.1990433595       38.3142777139      -12.7253696465  W2        13356           0.0000000000
     40069     13357  TIP3      OH2            24.1552833595       23.3694477139      -15.4686796465  W2        13357           0.0000000000
     40070     13357  TIP3      H1             24.6466233595       22.7396877139      -15.9961296465  W2        13357           0.0000000000
     40071     13357  TIP3      H2             24.7789133595       23.6653877139      -14.8055596465  W2        13357           0.0000000000
     40072     13358  TIP3      OH2            29.1812933595       23.6625977139      -13.0116296465  W2        13358           0.0000000000
     40073     13358  TIP3      H1             29.3594233595       23.0159177139      -12.3287696465  W2        13358           0.0000000000
     40074     13358  TIP3      H2             29.1279133595       24.4963677139      -12.5445196465  W2        13358           0.0000000000
     40075     13359  TIP3      OH2            31.0596733595       38.6110077139      -14.6159596465  W2        13359           0.0000000000
     40076     13359  TIP3      H1             31.9256933595       38.9777477139      -14.7941396465  W2        13359           0.0000000000
     40077     13359  TIP3      H2             30.8129533595       38.1718077139      -15.4298796465  W2        13359           0.0000000000
     40078     13360  TIP3      OH2            37.7686333595       38.1740377139      -11.9368496465  W2        13360           0.0000000000
     40079     13360  TIP3      H1             37.5743433595       37.4262477139      -12.5018896465  W2        13360           0.0000000000
     40080     13360  TIP3      H2             37.7296433595       38.9320477139      -12.5200596465  W2        13360           0.0000000000
     40081     13361  TIP3      OH2            23.4158333595       22.1696777139       -0.1970796465  W2        13361           0.0000000000
     40082     13361  TIP3      H1             23.0496533595       21.4039377139        0.2453903535  W2        13361           0.0000000000
     40083     13361  TIP3      H2             24.3286833595       22.1986977139        0.0894303535  W2        13361           0.0000000000
     40084     13362  TIP3      OH2            25.3889133595       21.5201177139        1.3386303535  W2        13362           0.0000000000
     40085     13362  TIP3      H1             26.2872733595       21.2461377139        1.1539703535  W2        13362           0.0000000000
     40086     13362  TIP3      H2             25.0022233595       20.7777177139        1.8028903535  W2        13362           0.0000000000
     40087     13363  TIP3      OH2            24.0134433595       38.3215977139      -15.9883696465  W2        13363           0.0000000000
     40088     13363  TIP3      H1             23.7459033595       38.6078877139      -15.1150596465  W2        13363           0.0000000000
     40089     13363  TIP3      H2             24.7847033595       37.7755177139      -15.8361196465  W2        13363           0.0000000000
     40090     13364  TIP3      OH2            33.8101433595       20.8526477139        1.5209103535  W2        13364           0.0000000000
     40091     13364  TIP3      H1             33.8868633595       20.4267177139        2.3746803535  W2        13364           0.0000000000
     40092     13364  TIP3      H2             34.7038033595       20.8661177139        1.1782603535  W2        13364           0.0000000000
     40093     13365  TIP3      OH2            36.9862533595       36.9252777139        0.2133303535  W2        13365           0.0000000000
     40094     13365  TIP3      H1             36.2044433595       36.7390777139       -0.3066096465  W2        13365           0.0000000000
     40095     13365  TIP3      H2             36.9142433595       37.8547077139        0.4305803535  W2        13365           0.0000000000
     40096     13366  TIP3      OH2            51.3922933595       30.8117177139       -9.7559496465  W2        13366           0.0000000000
     40097     13366  TIP3      H1             51.4814033595       31.7555377139       -9.8882396465  W2        13366           0.0000000000
     40098     13366  TIP3      H2             50.7540533595       30.5363577139      -10.4140096465  W2        13366           0.0000000000
     40099     13367  TIP3      OH2            50.3254233595       30.0667877139       -6.3371296465  W2        13367           0.0000000000
     40100     13367  TIP3      H1             50.2871733595       29.4204177139       -5.6321696465  W2        13367           0.0000000000
     40101     13367  TIP3      H2             50.0030733595       29.6002277139       -7.1082596465  W2        13367           0.0000000000
     40102     13368  TIP3      OH2            42.6939233595       29.6809977139       -4.7441396465  W2        13368           0.0000000000
     40103     13368  TIP3      H1             42.7351333595       29.0553277139       -4.0208996465  W2        13368           0.0000000000
     40104     13368  TIP3      H2             43.3966933595       30.3048577139       -4.5620996465  W2        13368           0.0000000000
     40105     13369  TIP3      OH2            54.0314433595       33.0058277139       -8.0356196465  W2        13369           0.0000000000
     40106     13369  TIP3      H1             53.5907133595       32.2854277139       -7.5850596465  W2        13369           0.0000000000
     40107     13369  TIP3      H2             54.0184133595       33.7265477139       -7.4058496465  W2        13369           0.0000000000
     40108     13370  TIP3      OH2            43.6172333595       34.1308877139       -6.2092296465  W2        13370           0.0000000000
     40109     13370  TIP3      H1             43.2477533595       33.3289377139       -6.5787996465  W2        13370           0.0000000000
     40110     13370  TIP3      H2             44.5583433595       33.9623777139       -6.1628896465  W2        13370           0.0000000000
     40111     13371  TIP3      OH2            40.2272833595       27.7911477139      -10.8163496465  W2        13371           0.0000000000
     40112     13371  TIP3      H1             39.7796233595       28.6370177139      -10.8346996465  W2        13371           0.0000000000
     40113     13371  TIP3      H2             39.6664033595       27.2115677139      -11.3318396465  W2        13371           0.0000000000
     40114     13372  TIP3      OH2            40.9378933595       29.9531077139       -8.6905496465  W2        13372           0.0000000000
     40115     13372  TIP3      H1             41.1512433595       29.1832677139       -8.1632496465  W2        13372           0.0000000000
     40116     13372  TIP3      H2             41.6756533595       30.0427777139       -9.2937896465  W2        13372           0.0000000000
     40117     13373  TIP3      OH2            51.1429933595       38.1099977139       -7.8235796465  W2        13373           0.0000000000
     40118     13373  TIP3      H1             51.7626333595       37.4334677139       -8.0966596465  W2        13373           0.0000000000
     40119     13373  TIP3      H2             50.9347333595       37.8920777139       -6.9150896465  W2        13373           0.0000000000
     40120     13374  TIP3      OH2            48.7148633595       32.4989277139       -5.9310296465  W2        13374           0.0000000000
     40121     13374  TIP3      H1             49.0186533595       31.8130677139       -6.5256196465  W2        13374           0.0000000000
     40122     13374  TIP3      H2             49.4362633595       32.6177977139       -5.3132296465  W2        13374           0.0000000000
     40123     13375  TIP3      OH2            51.8555633595       26.8931677139       -5.6035496465  W2        13375           0.0000000000
     40124     13375  TIP3      H1             51.9981533595       25.9468677139       -5.5833896465  W2        13375           0.0000000000
     40125     13375  TIP3      H2             51.7494633595       27.1001477139       -6.5320596465  W2        13375           0.0000000000
     40126     13376  TIP3      OH2            45.0103933595       24.9948077139       -8.3310696465  W2        13376           0.0000000000
     40127     13376  TIP3      H1             45.0535033595       25.8546577139       -8.7494396465  W2        13376           0.0000000000
     40128     13376  TIP3      H2             44.5528033595       24.4422777139       -8.9647496465  W2        13376           0.0000000000
     40129     13377  TIP3      OH2            52.7326633595       25.1253677139       -9.9302396465  W2        13377           0.0000000000
     40130     13377  TIP3      H1             53.3790933595       24.7966877139       -9.3054796465  W2        13377           0.0000000000
     40131     13377  TIP3      H2             53.2426033595       25.6432677139      -10.5530996465  W2        13377           0.0000000000
     40132     13378  TIP3      OH2            41.6305433595       27.3913877139       -7.5689296465  W2        13378           0.0000000000
     40133     13378  TIP3      H1             42.2842033595       26.8415577139       -7.1369196465  W2        13378           0.0000000000
     40134     13378  TIP3      H2             41.6544733595       27.1172877139       -8.4857296465  W2        13378           0.0000000000
     40135     13379  TIP3      OH2            46.7869933595       28.9415177139       -8.3537796465  W2        13379           0.0000000000
     40136     13379  TIP3      H1             47.4030933595       28.4150577139       -7.8443796465  W2        13379           0.0000000000
     40137     13379  TIP3      H2             46.2008733595       28.3013877139       -8.7574196465  W2        13379           0.0000000000
     40138     13380  TIP3      OH2            43.8205833595       23.9126477139       -4.2569896465  W2        13380           0.0000000000
     40139     13380  TIP3      H1             43.6017533595       24.4427077139       -5.0233896465  W2        13380           0.0000000000
     40140     13380  TIP3      H2             43.1526733595       24.1391977139       -3.6098496465  W2        13380           0.0000000000
     40141     13381  TIP3      OH2            51.1895633595       33.4127577139      -10.7130796465  W2        13381           0.0000000000
     40142     13381  TIP3      H1             50.8940733595       33.0899877139      -11.5643896465  W2        13381           0.0000000000
     40143     13381  TIP3      H2             50.8653433595       34.3124277139      -10.6718196465  W2        13381           0.0000000000
     40144     13382  TIP3      OH2            46.3897233595       31.5882177139       -3.9696196465  W2        13382           0.0000000000
     40145     13382  TIP3      H1             45.6496333595       32.1863677139       -3.8660996465  W2        13382           0.0000000000
     40146     13382  TIP3      H2             47.1036733595       32.1421777139       -4.2852596465  W2        13382           0.0000000000
     40147     13383  TIP3      OH2            54.4965033595       24.4162977139       -7.9496496465  W2        13383           0.0000000000
     40148     13383  TIP3      H1             54.2813033595       23.6506377139       -7.4170496465  W2        13383           0.0000000000
     40149     13383  TIP3      H2             55.1522433595       24.8887577139       -7.4367996465  W2        13383           0.0000000000
     40150     13384  TIP3      OH2            43.4143133595       25.8048277139       -6.3047696465  W2        13384           0.0000000000
     40151     13384  TIP3      H1             44.0279433595       26.4375877139       -5.9315296465  W2        13384           0.0000000000
     40152     13384  TIP3      H2             43.9263833595       25.3323277139       -6.9610796465  W2        13384           0.0000000000
     40153     13385  TIP3      OH2            44.7971533595       33.5525177139       -3.1824696465  W2        13385           0.0000000000
     40154     13385  TIP3      H1             44.7919133595       34.4318677139       -3.5605396465  W2        13385           0.0000000000
     40155     13385  TIP3      H2             43.9435633595       33.4689277139       -2.7574796465  W2        13385           0.0000000000
     40156     13386  TIP3      OH2            40.9182433595       33.2233077139      -12.4005396465  W2        13386           0.0000000000
     40157     13386  TIP3      H1             40.6463333595       33.4524077139      -13.2892496465  W2        13386           0.0000000000
     40158     13386  TIP3      H2             40.9638133595       34.0611877139      -11.9400096465  W2        13386           0.0000000000
     40159     13387  TIP3      OH2            54.5432133595       34.8448977139       -5.6876896465  W2        13387           0.0000000000
     40160     13387  TIP3      H1             53.6015833595       34.9032877139       -5.5259996465  W2        13387           0.0000000000
     40161     13387  TIP3      H2             54.8198233595       35.7509477139       -5.8247196465  W2        13387           0.0000000000
     40162     13388  TIP3      OH2            47.8470533595       21.2181577139       -6.8044996465  W2        13388           0.0000000000
     40163     13388  TIP3      H1             47.7294733595       20.2697577139       -6.8586696465  W2        13388           0.0000000000
     40164     13388  TIP3      H2             46.9920633595       21.5507677139       -6.5313896465  W2        13388           0.0000000000
     40165     13389  TIP3      OH2            52.7953333595       36.6262477139       -9.0625296465  W2        13389           0.0000000000
     40166     13389  TIP3      H1             53.2205633595       35.9190377139       -9.5475696465  W2        13389           0.0000000000
     40167     13389  TIP3      H2             53.1123333595       37.4275177139       -9.4793096465  W2        13389           0.0000000000
     40168     13390  TIP3      OH2            53.9549833595       34.5270977139      -10.5538696465  W2        13390           0.0000000000
     40169     13390  TIP3      H1             53.6974633595       33.8371077139      -11.1652796465  W2        13390           0.0000000000
     40170     13390  TIP3      H2             54.0260633595       34.0842177139       -9.7082796465  W2        13390           0.0000000000
     40171     13391  TIP3      OH2            50.1135433595       30.0557177139      -12.3039196465  W2        13391           0.0000000000
     40172     13391  TIP3      H1             49.4020933595       30.5906877139      -12.6558696465  W2        13391           0.0000000000
     40173     13391  TIP3      H2             50.8045033595       30.1109277139      -12.9640296465  W2        13391           0.0000000000
     40174     13392  TIP3      OH2            50.1674633595       28.5131477139      -15.2654196465  W2        13392           0.0000000000
     40175     13392  TIP3      H1             50.8684533595       28.5358377139      -14.6140196465  W2        13392           0.0000000000
     40176     13392  TIP3      H2             50.4697533595       27.8851177139      -15.9214896465  W2        13392           0.0000000000
     40177     13393  TIP3      OH2            53.5193133595       30.2650477139      -11.3523296465  W2        13393           0.0000000000
     40178     13393  TIP3      H1             52.7874133595       30.4934177139      -10.7792696465  W2        13393           0.0000000000
     40179     13393  TIP3      H2             53.9665333595       29.5513177139      -10.8975796465  W2        13393           0.0000000000
     40180     13394  TIP3      OH2            53.4166633595       28.4393077139       -2.2846296465  W2        13394           0.0000000000
     40181     13394  TIP3      H1             53.4965733595       29.2027477139       -1.7127796465  W2        13394           0.0000000000
     40182     13394  TIP3      H2             52.8154333595       28.7185477139       -2.9751196465  W2        13394           0.0000000000
     40183     13395  TIP3      OH2            45.1646833595       30.8956677139       -9.4698296465  W2        13395           0.0000000000
     40184     13395  TIP3      H1             44.8342033595       30.5250077139      -10.2881296465  W2        13395           0.0000000000
     40185     13395  TIP3      H2             45.7530933595       30.2250677139       -9.1229996465  W2        13395           0.0000000000
     40186     13396  TIP3      OH2            46.5314333595       34.3237277139       -6.7886096465  W2        13396           0.0000000000
     40187     13396  TIP3      H1             46.4365633595       33.7450377139       -7.5451496465  W2        13396           0.0000000000
     40188     13396  TIP3      H2             47.2607933595       33.9522977139       -6.2923296465  W2        13396           0.0000000000
     40189     13397  TIP3      OH2            45.5312333595       29.6642277139       -5.8363296465  W2        13397           0.0000000000
     40190     13397  TIP3      H1             46.0964833595       29.7856477139       -6.5992096465  W2        13397           0.0000000000
     40191     13397  TIP3      H2             45.8501233595       30.3017277139       -5.1974796465  W2        13397           0.0000000000
     40192     13398  TIP3      OH2            51.8404533595       35.1674177139       -5.1022796465  W2        13398           0.0000000000
     40193     13398  TIP3      H1             51.6001133595       35.8297277139       -4.4543596465  W2        13398           0.0000000000
     40194     13398  TIP3      H2             51.6422733595       34.3329377139       -4.6773196465  W2        13398           0.0000000000
     40195     13399  TIP3      OH2            46.4113033595       34.0634977139       -1.1191396465  W2        13399           0.0000000000
     40196     13399  TIP3      H1             46.1000533595       34.8458177139       -0.6638196465  W2        13399           0.0000000000
     40197     13399  TIP3      H2             45.7613233595       33.9104077139       -1.8049396465  W2        13399           0.0000000000
     40198     13400  TIP3      OH2            52.3902633595       29.4273377139      -13.6672096465  W2        13400           0.0000000000
     40199     13400  TIP3      H1             52.9698133595       29.5773677139      -12.9203196465  W2        13400           0.0000000000
     40200     13400  TIP3      H2             52.8042633595       29.8980777139      -14.3905696465  W2        13400           0.0000000000
     40201     13401  TIP3      OH2            43.3312933595       30.2616077139       -1.8905696465  W2        13401           0.0000000000
     40202     13401  TIP3      H1             43.4016133595       30.9122877139       -1.1920696465  W2        13401           0.0000000000
     40203     13401  TIP3      H2             42.4405133595       30.3643577139       -2.2254796465  W2        13401           0.0000000000
     40204     13402  TIP3      OH2            50.1167533595       36.1641877139      -10.2318996465  W2        13402           0.0000000000
     40205     13402  TIP3      H1             50.5905133595       36.4598177139       -9.4544796465  W2        13402           0.0000000000
     40206     13402  TIP3      H2             49.5536833595       36.9023477139      -10.4649396465  W2        13402           0.0000000000
     40207     13403  TIP3      OH2            44.6508933595       36.1349977139       -0.3557596465  W2        13403           0.0000000000
     40208     13403  TIP3      H1             44.6584233595       35.9989677139       -1.3032096465  W2        13403           0.0000000000
     40209     13403  TIP3      H2             43.7349333595       36.0178077139       -0.1037596465  W2        13403           0.0000000000
     40210     13404  TIP3      OH2            44.1549533595       29.9650977139      -11.8805496465  W2        13404           0.0000000000
     40211     13404  TIP3      H1             43.8630833595       30.7332677139      -12.3714196465  W2        13404           0.0000000000
     40212     13404  TIP3      H2             43.4804733595       29.3057177139      -12.0434096465  W2        13404           0.0000000000
     40213     13405  TIP3      OH2            40.2479633595       32.3280177139       -3.0655696465  W2        13405           0.0000000000
     40214     13405  TIP3      H1             39.7468033595       32.2999577139       -3.8805996465  W2        13405           0.0000000000
     40215     13405  TIP3      H2             40.2533333595       31.4223377139       -2.7558396465  W2        13405           0.0000000000
     40216     13406  TIP3      OH2            39.9982333595       35.1083977139       -6.1815496465  W2        13406           0.0000000000
     40217     13406  TIP3      H1             40.9442933595       34.9640977139       -6.2005996465  W2        13406           0.0000000000
     40218     13406  TIP3      H2             39.8858633595       35.8926777139       -5.6444296465  W2        13406           0.0000000000
     40219     13407  TIP3      OH2            49.1744833595       35.3482877139       -1.6230396465  W2        13407           0.0000000000
     40220     13407  TIP3      H1             49.2619433595       36.1747477139       -1.1481296465  W2        13407           0.0000000000
     40221     13407  TIP3      H2             48.3109933595       35.0186677139       -1.3741096465  W2        13407           0.0000000000
     40222     13408  TIP3      OH2            49.5890633595       39.1206577139      -11.8169796465  W2        13408           0.0000000000
     40223     13408  TIP3      H1             49.5136633595       38.9993777139      -12.7634596465  W2        13408           0.0000000000
     40224     13408  TIP3      H2             49.6219333595       40.0699277139      -11.6985196465  W2        13408           0.0000000000
     40225     13409  TIP3      OH2            43.2424433595       37.9093577139      -10.0360796465  W2        13409           0.0000000000
     40226     13409  TIP3      H1             43.3944833595       37.5613977139       -9.1574296465  W2        13409           0.0000000000
     40227     13409  TIP3      H2             42.3914833595       37.5530877139      -10.2913596465  W2        13409           0.0000000000
     40228     13410  TIP3      OH2            52.6906633595       38.2746777139      -14.8147396465  W2        13410           0.0000000000
     40229     13410  TIP3      H1             53.0655033595       37.5302877139      -15.2854796465  W2        13410           0.0000000000
     40230     13410  TIP3      H2             52.6950333595       38.0047377139      -13.8964096465  W2        13410           0.0000000000
     40231     13411  TIP3      OH2            52.3594733595       38.2003877139      -12.0655196465  W2        13411           0.0000000000
     40232     13411  TIP3      H1             51.4244533595       38.3005777139      -11.8868196465  W2        13411           0.0000000000
     40233     13411  TIP3      H2             52.6396633595       37.4909877139      -11.4871996465  W2        13411           0.0000000000
     40234     13412  TIP3      OH2            42.4970133595       33.6515577139       -2.0222896465  W2        13412           0.0000000000
     40235     13412  TIP3      H1             42.7131433595       33.2901177139       -1.1627096465  W2        13412           0.0000000000
     40236     13412  TIP3      H2             41.6414833595       33.2769377139       -2.2319396465  W2        13412           0.0000000000
     40237     13413  TIP3      OH2            45.1158133595       22.1216077139       -6.0268696465  W2        13413           0.0000000000
     40238     13413  TIP3      H1             44.2541833595       22.0344277139       -6.4345796465  W2        13413           0.0000000000
     40239     13413  TIP3      H2             45.0933833595       22.9776177139       -5.5991096465  W2        13413           0.0000000000
     40240     13414  TIP3      OH2            49.7785933595       21.8436477139       -2.6521696465  W2        13414           0.0000000000
     40241     13414  TIP3      H1             50.1989033595       21.4283577139       -1.8991096465  W2        13414           0.0000000000
     40242     13414  TIP3      H2             48.8455533595       21.6649777139       -2.5349696465  W2        13414           0.0000000000
     40243     13415  TIP3      OH2            53.1050833595       25.5991677139       -1.7987196465  W2        13415           0.0000000000
     40244     13415  TIP3      H1             52.5910333595       25.4733877139       -1.0011196465  W2        13415           0.0000000000
     40245     13415  TIP3      H2             52.9495533595       26.5114777139       -2.0430996465  W2        13415           0.0000000000
     40246     13416  TIP3      OH2            53.8675733595       30.4601677139      -16.0374196465  W2        13416           0.0000000000
     40247     13416  TIP3      H1             53.9096533595       30.2375577139      -16.9674196465  W2        13416           0.0000000000
     40248     13416  TIP3      H2             54.7167833595       30.8588777139      -15.8474296465  W2        13416           0.0000000000
     40249     13417  TIP3      OH2            49.4403233595       24.3359877139      -15.3670896465  W2        13417           0.0000000000
     40250     13417  TIP3      H1             49.1868033595       24.3551477139      -14.4442796465  W2        13417           0.0000000000
     40251     13417  TIP3      H2             49.1835333595       23.4645277139      -15.6684696465  W2        13417           0.0000000000
     40252     13418  TIP3      OH2            45.2068233595       27.0870577139       -4.9318496465  W2        13418           0.0000000000
     40253     13418  TIP3      H1             44.5650333595       27.0467877139       -4.2228396465  W2        13418           0.0000000000
     40254     13418  TIP3      H2             45.2440233595       28.0135277139       -5.1695496465  W2        13418           0.0000000000
     40255     13419  TIP3      OH2            45.2037333595       27.3080677139      -10.0198496465  W2        13419           0.0000000000
     40256     13419  TIP3      H1             44.3110233595       26.9676777139      -10.0784696465  W2        13419           0.0000000000
     40257     13419  TIP3      H2             45.6543933595       26.9311577139      -10.7755296465  W2        13419           0.0000000000
     40258     13420  TIP3      OH2            50.7392833595       27.7240977139      -11.2027696465  W2        13420           0.0000000000
     40259     13420  TIP3      H1             50.3303133595       28.5389577139      -11.4942896465  W2        13420           0.0000000000
     40260     13420  TIP3      H2             51.4599033595       27.5841077139      -11.8170596465  W2        13420           0.0000000000
     40261     13421  TIP3      OH2            49.8414433595       27.8997377139        0.2853003535  W2        13421           0.0000000000
     40262     13421  TIP3      H1             49.2788233595       27.1948977139        0.6060803535  W2        13421           0.0000000000
     40263     13421  TIP3      H2             50.6677833595       27.7789277139        0.7530603535  W2        13421           0.0000000000
     40264     13422  TIP3      OH2            51.7440533595       27.1701377139       -8.3887996465  W2        13422           0.0000000000
     40265     13422  TIP3      H1             51.5485033595       27.7758177139       -9.1037396465  W2        13422           0.0000000000
     40266     13422  TIP3      H2             51.9253133595       26.3366577139       -8.8231696465  W2        13422           0.0000000000
     40267     13423  TIP3      OH2            42.9568733595       27.4074077139       -3.0646496465  W2        13423           0.0000000000
     40268     13423  TIP3      H1             42.9188133595       27.8075677139       -2.1959396465  W2        13423           0.0000000000
     40269     13423  TIP3      H2             42.4659833595       26.5906477139       -2.9743596465  W2        13423           0.0000000000
     40270     13424  TIP3      OH2            46.3226133595       24.7816377139      -16.2660496465  W2        13424           0.0000000000
     40271     13424  TIP3      H1             45.8916833595       24.3366477139      -15.5363096465  W2        13424           0.0000000000
     40272     13424  TIP3      H2             45.6044833595       25.1532677139      -16.7782996465  W2        13424           0.0000000000
     40273     13425  TIP3      OH2            39.5649533595       24.5235877139       -9.2141796465  W2        13425           0.0000000000
     40274     13425  TIP3      H1             40.1957233595       24.4947977139       -8.4947896465  W2        13425           0.0000000000
     40275     13425  TIP3      H2             40.0143833595       24.0984577139       -9.9445896465  W2        13425           0.0000000000
     40276     13426  TIP3      OH2            40.8391633595       25.2697877139      -13.7901396465  W2        13426           0.0000000000
     40277     13426  TIP3      H1             41.3133333595       25.8607777139      -14.3750496465  W2        13426           0.0000000000
     40278     13426  TIP3      H2             40.1218033595       25.8000777139      -13.4431296465  W2        13426           0.0000000000
     40279     13427  TIP3      OH2            51.0079733595       28.8082677139       -3.7175596465  W2        13427           0.0000000000
     40280     13427  TIP3      H1             51.3314533595       28.1772377139       -4.3605096465  W2        13427           0.0000000000
     40281     13427  TIP3      H2             50.5679033595       28.2734877139       -3.0568196465  W2        13427           0.0000000000
     40282     13428  TIP3      OH2            47.7852633595       24.7358177139       -8.9334396465  W2        13428           0.0000000000
     40283     13428  TIP3      H1             46.8743733595       24.7924977139       -8.6448396465  W2        13428           0.0000000000
     40284     13428  TIP3      H2             48.2905533595       24.6753677139       -8.1227196465  W2        13428           0.0000000000
     40285     13429  TIP3      OH2            42.6136033595       26.3644477139      -10.1066796465  W2        13429           0.0000000000
     40286     13429  TIP3      H1             41.7244033595       26.4639977139      -10.4467196465  W2        13429           0.0000000000
     40287     13429  TIP3      H2             42.9100933595       25.5227477139      -10.4528896465  W2        13429           0.0000000000
     40288     13430  TIP3      OH2            46.2667833595       26.3647077139      -12.4502196465  W2        13430           0.0000000000
     40289     13430  TIP3      H1             47.1983333595       26.4937077139      -12.2719096465  W2        13430           0.0000000000
     40290     13430  TIP3      H2             46.0518133595       27.0341377139      -13.0997496465  W2        13430           0.0000000000
     40291     13431  TIP3      OH2            52.1904533595       23.9704477139       -5.6692596465  W2        13431           0.0000000000
     40292     13431  TIP3      H1             51.5136133595       24.1017577139       -5.0052896465  W2        13431           0.0000000000
     40293     13431  TIP3      H2             51.7049433595       23.8153977139       -6.4794896465  W2        13431           0.0000000000
     40294     13432  TIP3      OH2            44.9408033595       27.5589277139      -14.8836096465  W2        13432           0.0000000000
     40295     13432  TIP3      H1             44.3983133595       27.1793077139      -15.5748496465  W2        13432           0.0000000000
     40296     13432  TIP3      H2             45.7742933595       27.7533977139      -15.3121996465  W2        13432           0.0000000000
     40297     13433  TIP3      OH2            43.0759433595       32.1161177139        0.2155503535  W2        13433           0.0000000000
     40298     13433  TIP3      H1             43.8081833595       32.3707077139        0.7770003535  W2        13433           0.0000000000
     40299     13433  TIP3      H2             42.2958133595       32.3206577139        0.7310903535  W2        13433           0.0000000000
     40300     13434  TIP3      OH2            49.1052333595       27.5231177139       -7.0464796465  W2        13434           0.0000000000
     40301     13434  TIP3      H1             49.6695733595       26.9767777139       -7.5935196465  W2        13434           0.0000000000
     40302     13434  TIP3      H2             48.9575733595       27.0013077139       -6.2577196465  W2        13434           0.0000000000
     40303     13435  TIP3      OH2            44.1072033595       23.6597277139      -10.6279996465  W2        13435           0.0000000000
     40304     13435  TIP3      H1             43.7901533595       22.7572577139      -10.6634596465  W2        13435           0.0000000000
     40305     13435  TIP3      H2             44.8886133595       23.6614677139      -11.1808396465  W2        13435           0.0000000000
     40306     13436  TIP3      OH2            47.7318233595       25.9117277139       -4.6324396465  W2        13436           0.0000000000
     40307     13436  TIP3      H1             46.8963533595       26.3656777139       -4.5221996465  W2        13436           0.0000000000
     40308     13436  TIP3      H2             48.2558833595       26.1875777139       -3.8804496465  W2        13436           0.0000000000
     40309     13437  TIP3      OH2            48.2760833595       32.1244977139      -12.9477996465  W2        13437           0.0000000000
     40310     13437  TIP3      H1             47.5311833595       31.6170277139      -13.2700096465  W2        13437           0.0000000000
     40311     13437  TIP3      H2             48.1418033595       32.1732977139      -12.0013196465  W2        13437           0.0000000000
     40312     13438  TIP3      OH2            52.1737633595       24.9384877139      -14.7485396465  W2        13438           0.0000000000
     40313     13438  TIP3      H1             51.2351833595       25.0500477139      -14.8996596465  W2        13438           0.0000000000
     40314     13438  TIP3      H2             52.4709733595       25.7951777139      -14.4419696465  W2        13438           0.0000000000
     40315     13439  TIP3      OH2            49.7952933595       32.3088277139       -1.7108896465  W2        13439           0.0000000000
     40316     13439  TIP3      H1             49.4499033595       31.9270677139       -0.9039296465  W2        13439           0.0000000000
     40317     13439  TIP3      H2             49.5953033595       33.2421877139       -1.6395996465  W2        13439           0.0000000000
     40318     13440  TIP3      OH2            52.8921133595       26.8057577139      -13.0877996465  W2        13440           0.0000000000
     40319     13440  TIP3      H1             53.7840133595       26.6682577139      -12.7686796465  W2        13440           0.0000000000
     40320     13440  TIP3      H2             52.9484733595       27.5963677139      -13.6244496465  W2        13440           0.0000000000
     40321     13441  TIP3      OH2            43.4009133595       31.4194977139       -7.1780096465  W2        13441           0.0000000000
     40322     13441  TIP3      H1             44.1456333595       31.4170677139       -7.7793596465  W2        13441           0.0000000000
     40323     13441  TIP3      H2             43.4785733595       30.5958777139       -6.6964996465  W2        13441           0.0000000000
     40324     13442  TIP3      OH2            50.4014933595       33.5829277139      -13.9223396465  W2        13442           0.0000000000
     40325     13442  TIP3      H1             50.1063333595       34.4097177139      -13.5408596465  W2        13442           0.0000000000
     40326     13442  TIP3      H2             49.6984933595       32.9636177139      -13.7261996465  W2        13442           0.0000000000
     40327     13443  TIP3      OH2            40.4088833595       29.8801877139       -1.8631596465  W2        13443           0.0000000000
     40328     13443  TIP3      H1             40.6317433595       29.4621477139       -1.0314096465  W2        13443           0.0000000000
     40329     13443  TIP3      H2             39.8068933595       29.2676877139       -2.2858796465  W2        13443           0.0000000000
     40330     13444  TIP3      OH2            47.4253733595       29.3971777139        0.3498103535  W2        13444           0.0000000000
     40331     13444  TIP3      H1             47.1294533595       29.2314777139       -0.5452796465  W2        13444           0.0000000000
     40332     13444  TIP3      H2             48.3568933595       29.1772077139        0.3392003535  W2        13444           0.0000000000
     40333     13445  TIP3      OH2            52.0456533595       34.7703777139       -1.7603896465  W2        13445           0.0000000000
     40334     13445  TIP3      H1             51.1450833595       34.9536377139       -2.0279996465  W2        13445           0.0000000000
     40335     13445  TIP3      H2             52.0797633595       35.0293077139       -0.8395096465  W2        13445           0.0000000000
     40336     13446  TIP3      OH2            53.2325433595       30.6091577139       -5.9067296465  W2        13446           0.0000000000
     40337     13446  TIP3      H1             52.3042333595       30.3773477139       -5.9337996465  W2        13446           0.0000000000
     40338     13446  TIP3      H2             53.6836533595       29.8321377139       -6.2368496465  W2        13446           0.0000000000
     40339     13447  TIP3      OH2            45.7758533595       34.9373177139       -9.7738596465  W2        13447           0.0000000000
     40340     13447  TIP3      H1             46.3030733595       35.7107577139       -9.9739796465  W2        13447           0.0000000000
     40341     13447  TIP3      H2             44.8957033595       35.1622377139      -10.0754596465  W2        13447           0.0000000000
     40342     13448  TIP3      OH2            41.5306233595       29.7997277139      -15.1866196465  W2        13448           0.0000000000
     40343     13448  TIP3      H1             42.1466133595       30.4264477139      -14.8071396465  W2        13448           0.0000000000
     40344     13448  TIP3      H2             40.6688833595       30.1157077139      -14.9149696465  W2        13448           0.0000000000
     40345     13449  TIP3      OH2            47.2030833595       32.6003077139      -10.1974296465  W2        13449           0.0000000000
     40346     13449  TIP3      H1             46.9620833595       33.5257477139      -10.1558996465  W2        13449           0.0000000000
     40347     13449  TIP3      H2             46.4624433595       32.1414377139       -9.8010396465  W2        13449           0.0000000000
     40348     13450  TIP3      OH2            47.7177433595       36.7496677139       -3.8823196465  W2        13450           0.0000000000
     40349     13450  TIP3      H1             48.0802133595       37.6042277139       -4.1158796465  W2        13450           0.0000000000
     40350     13450  TIP3      H2             48.2492633595       36.4578277139       -3.1416896465  W2        13450           0.0000000000
     40351     13451  TIP3      OH2            45.8861633595       37.6220677139      -10.6522096465  W2        13451           0.0000000000
     40352     13451  TIP3      H1             44.9362133595       37.7278077139      -10.6008796465  W2        13451           0.0000000000
     40353     13451  TIP3      H2             46.2379733595       38.4428077139      -10.3074596465  W2        13451           0.0000000000
     40354     13452  TIP3      OH2            51.2618233595       32.8487377139       -4.1817596465  W2        13452           0.0000000000
     40355     13452  TIP3      H1             50.8359533595       32.6209077139       -3.3553596465  W2        13452           0.0000000000
     40356     13452  TIP3      H2             51.8424033595       32.1099177139       -4.3642296465  W2        13452           0.0000000000
     40357     13453  TIP3      OH2            53.4647133595       33.7777877139      -15.1078596465  W2        13453           0.0000000000
     40358     13453  TIP3      H1             53.8180233595       33.3977677139      -14.3035096465  W2        13453           0.0000000000
     40359     13453  TIP3      H2             52.5160633595       33.6842677139      -15.0209296465  W2        13453           0.0000000000
     40360     13454  TIP3      OH2            53.9202433595       37.4006877139       -1.7122796465  W2        13454           0.0000000000
     40361     13454  TIP3      H1             53.3185633595       36.8449777139       -2.2076496465  W2        13454           0.0000000000
     40362     13454  TIP3      H2             54.2016133595       38.0676677139       -2.3385396465  W2        13454           0.0000000000
     40363     13455  TIP3      OH2            42.0428333595       24.6334577139       -2.3050196465  W2        13455           0.0000000000
     40364     13455  TIP3      H1             41.1500633595       24.9719977139       -2.3726196465  W2        13455           0.0000000000
     40365     13455  TIP3      H2             41.9441133595       23.7780677139       -1.8869396465  W2        13455           0.0000000000
     40366     13456  TIP3      OH2            54.3306433595       32.4499877139      -12.8810696465  W2        13456           0.0000000000
     40367     13456  TIP3      H1             54.0534033595       31.7219177139      -12.3249596465  W2        13456           0.0000000000
     40368     13456  TIP3      H2             55.2579433595       32.5691877139      -12.6758096465  W2        13456           0.0000000000
     40369     13457  TIP3      OH2            41.6940333595       36.4378977139       -3.8700796465  W2        13457           0.0000000000
     40370     13457  TIP3      H1             41.9110633595       35.5061377139       -3.9011096465  W2        13457           0.0000000000
     40371     13457  TIP3      H2             41.9403833595       36.7123977139       -2.9867996465  W2        13457           0.0000000000
     40372     13458  TIP3      OH2            47.5554933595       34.8893977139      -16.6608596465  W2        13458           0.0000000000
     40373     13458  TIP3      H1             47.7944733595       34.1412077139      -17.2079696465  W2        13458           0.0000000000
     40374     13458  TIP3      H2             47.2866233595       34.5015677139      -15.8280796465  W2        13458           0.0000000000
     40375     13459  TIP3      OH2            46.4925533595       34.4597777139      -14.2045996465  W2        13459           0.0000000000
     40376     13459  TIP3      H1             46.6393533595       33.9397577139      -13.4145096465  W2        13459           0.0000000000
     40377     13459  TIP3      H2             46.4897233595       35.3665377139      -13.8980096465  W2        13459           0.0000000000
     40378     13460  TIP3      OH2            42.9456633595       31.7121077139      -13.6940596465  W2        13460           0.0000000000
     40379     13460  TIP3      H1             42.2595933595       32.0643577139      -13.1270896465  W2        13460           0.0000000000
     40380     13460  TIP3      H2             43.4684533595       32.4750677139      -13.9406296465  W2        13460           0.0000000000
     40381     13461  TIP3      OH2            50.7771733595       24.3744877139       -3.4151596465  W2        13461           0.0000000000
     40382     13461  TIP3      H1             51.4759633595       24.4483577139       -2.7651896465  W2        13461           0.0000000000
     40383     13461  TIP3      H2             50.3963133595       23.5099877139       -3.2608696465  W2        13461           0.0000000000
     40384     13462  TIP3      OH2            51.5616633595       24.0266577139      -12.3179296465  W2        13462           0.0000000000
     40385     13462  TIP3      H1             51.7814933595       24.4981977139      -13.1213896465  W2        13462           0.0000000000
     40386     13462  TIP3      H2             52.1200633595       24.4209177139      -11.6478696465  W2        13462           0.0000000000
     40387     13463  TIP3      OH2            49.2302733595       36.1571377139      -13.4551796465  W2        13463           0.0000000000
     40388     13463  TIP3      H1             48.4138833595       36.6541077139      -13.4027496465  W2        13463           0.0000000000
     40389     13463  TIP3      H2             49.7599033595       36.6324877139      -14.0952996465  W2        13463           0.0000000000
     40390     13464  TIP3      OH2            48.7616533595       25.7545377139      -11.4830896465  W2        13464           0.0000000000
     40391     13464  TIP3      H1             49.5739133595       26.2588577139      -11.4369196465  W2        13464           0.0000000000
     40392     13464  TIP3      H2             48.5169533595       25.6095077139      -10.5691296465  W2        13464           0.0000000000
     40393     13465  TIP3      OH2            49.2972933595       26.7408077139       -2.2984296465  W2        13465           0.0000000000
     40394     13465  TIP3      H1             49.4163233595       27.3143477139       -1.5413896465  W2        13465           0.0000000000
     40395     13465  TIP3      H2             49.9527533595       26.0527477139       -2.1836496465  W2        13465           0.0000000000
     40396     13466  TIP3      OH2            49.6453233595       22.8358377139      -10.5449796465  W2        13466           0.0000000000
     40397     13466  TIP3      H1             49.2986733595       23.4528977139       -9.9005496465  W2        13466           0.0000000000
     40398     13466  TIP3      H2             50.3040133595       23.3364077139      -11.0264296465  W2        13466           0.0000000000
     40399     13467  TIP3      OH2            46.5685833595       37.2008577139      -13.4734896465  W2        13467           0.0000000000
     40400     13467  TIP3      H1             46.7294533595       38.0006077139      -13.9742296465  W2        13467           0.0000000000
     40401     13467  TIP3      H2             46.3713633595       37.5074577139      -12.5884296465  W2        13467           0.0000000000
     40402     13468  TIP3      OH2            45.3030233595       23.8987777139      -13.8577296465  W2        13468           0.0000000000
     40403     13468  TIP3      H1             45.2195033595       24.7870877139      -13.5110896465  W2        13468           0.0000000000
     40404     13468  TIP3      H2             46.1930533595       23.6334477139      -13.6260496465  W2        13468           0.0000000000
     40405     13469  TIP3      OH2            54.1039733595       28.3979377139       -7.3677296465  W2        13469           0.0000000000
     40406     13469  TIP3      H1             53.3064133595       27.9829577139       -7.6962296465  W2        13469           0.0000000000
     40407     13469  TIP3      H2             54.5490833595       27.7073077139       -6.8766796465  W2        13469           0.0000000000
     40408     13470  TIP3      OH2            43.5615533595       34.3259977139      -14.7972796465  W2        13470           0.0000000000
     40409     13470  TIP3      H1             44.1537033595       35.0254777139      -14.5210396465  W2        13470           0.0000000000
     40410     13470  TIP3      H2             44.0208533595       33.8929477139      -15.5168196465  W2        13470           0.0000000000
     40411     13471  TIP3      OH2            41.8774733595       26.9902977139      -15.6813396465  W2        13471           0.0000000000
     40412     13471  TIP3      H1             41.8327333595       27.9296077139      -15.5026396465  W2        13471           0.0000000000
     40413     13471  TIP3      H2             40.9897933595       26.7547877139      -15.9511296465  W2        13471           0.0000000000
     40414     13472  TIP3      OH2            42.6856733595       21.7719577139       -7.0082396465  W2        13472           0.0000000000
     40415     13472  TIP3      H1             42.4566533595       21.8312077139       -7.9357396465  W2        13472           0.0000000000
     40416     13472  TIP3      H2             42.2430133595       20.9805077139       -6.7018296465  W2        13472           0.0000000000
     40417     13473  TIP3      OH2            41.6160033595       35.7126677139      -10.8476596465  W2        13473           0.0000000000
     40418     13473  TIP3      H1             40.7838633595       36.1849377139      -10.8205196465  W2        13473           0.0000000000
     40419     13473  TIP3      H2             42.1618333595       36.2224277139      -11.4463496465  W2        13473           0.0000000000
     40420     13474  TIP3      OH2            40.9043733595       38.3250377139        0.4821403535  W2        13474           0.0000000000
     40421     13474  TIP3      H1             41.4445933595       38.1084377139        1.2420603535  W2        13474           0.0000000000
     40422     13474  TIP3      H2             40.4231733595       37.5196377139        0.2923903535  W2        13474           0.0000000000
     40423     13475  TIP3      OH2            45.5017133595       37.2444777139        2.1025603535  W2        13475           0.0000000000
     40424     13475  TIP3      H1             46.2694333595       36.7855577139        2.4434803535  W2        13475           0.0000000000
     40425     13475  TIP3      H2             45.4803333595       37.0184577139        1.1726803535  W2        13475           0.0000000000
     40426     13476  TIP3      OH2            49.5936733595       36.7525377139      -16.5222596465  W2        13476           0.0000000000
     40427     13476  TIP3      H1             48.9497733595       36.1213977139      -16.2008896465  W2        13476           0.0000000000
     40428     13476  TIP3      H2             50.3555033595       36.2213377139      -16.7539096465  W2        13476           0.0000000000
     40429     13477  TIP3      OH2            52.0785833595       35.6245877139        0.8317103535  W2        13477           0.0000000000
     40430     13477  TIP3      H1             51.7275333595       34.7678877139        1.0747503535  W2        13477           0.0000000000
     40431     13477  TIP3      H2             52.8049033595       35.7672577139        1.4386103535  W2        13477           0.0000000000
     40432     13478  TIP3      OH2            54.1979633595       36.5695277139      -16.2884596465  W2        13478           0.0000000000
     40433     13478  TIP3      H1             54.4810033595       35.7750477139      -15.8357696465  W2        13478           0.0000000000
     40434     13478  TIP3      H2             54.9377533595       36.8026277139      -16.8493496465  W2        13478           0.0000000000
     40435     13479  TIP3      OH2            40.8113233595       32.1354477139        1.4365703535  W2        13479           0.0000000000
     40436     13479  TIP3      H1             40.9553733595       31.2335177139        1.1502403535  W2        13479           0.0000000000
     40437     13479  TIP3      H2             40.0390633595       32.4216577139        0.9488003535  W2        13479           0.0000000000
     40438     13480  TIP3      OH2            45.1526933595       32.4790177139      -16.4309696465  W2        13480           0.0000000000
     40439     13480  TIP3      H1             45.2171033595       31.6849777139      -15.9003296465  W2        13480           0.0000000000
     40440     13480  TIP3      H2             45.8056133595       32.3602977139      -17.1207696465  W2        13480           0.0000000000
     40441     13481  TIP3      OH2            47.4669333595       32.1052577139        0.8692103535  W2        13481           0.0000000000
     40442     13481  TIP3      H1             47.1383133595       32.3760677139        0.0119503535  W2        13481           0.0000000000
     40443     13481  TIP3      H2             47.6187533595       31.1642377139        0.7817103535  W2        13481           0.0000000000
     40444     13482  TIP3      OH2            50.5050333595       33.5261877139      -16.6951696465  W2        13482           0.0000000000
     40445     13482  TIP3      H1             50.2364433595       33.7063977139      -15.7942796465  W2        13482           0.0000000000
     40446     13482  TIP3      H2             50.2985933595       32.6008077139      -16.8265896465  W2        13482           0.0000000000
     40447     13483  TIP3      OH2            53.2014533595       32.0209877139       -1.7475596465  W2        13483           0.0000000000
     40448     13483  TIP3      H1             53.9469333595       32.6093577139       -1.8671596465  W2        13483           0.0000000000
     40449     13483  TIP3      H2             52.4441333595       32.6029577139       -1.6842496465  W2        13483           0.0000000000
     40450     13484  TIP3      OH2            41.6439733595       29.3357777139        0.8565003535  W2        13484           0.0000000000
     40451     13484  TIP3      H1             42.0520933595       28.4784377139        0.7355603535  W2        13484           0.0000000000
     40452     13484  TIP3      H2             41.3837333595       29.3499077139        1.7775303535  W2        13484           0.0000000000
     40453     13485  TIP3      OH2            46.3020733595       30.4516377139      -14.1251696465  W2        13485           0.0000000000
     40454     13485  TIP3      H1             45.8422733595       29.9674677139      -13.4393196465  W2        13485           0.0000000000
     40455     13485  TIP3      H2             46.5569433595       29.7831777139      -14.7611196465  W2        13485           0.0000000000
     40456     13486  TIP3      OH2            45.5910033595       28.3443477139       -1.7692096465  W2        13486           0.0000000000
     40457     13486  TIP3      H1             44.9726133595       29.0190077139       -1.4887396465  W2        13486           0.0000000000
     40458     13486  TIP3      H2             45.9351233595       28.6657377139       -2.6025896465  W2        13486           0.0000000000
     40459     13487  TIP3      OH2            47.3731133595       28.6948177139      -15.8628496465  W2        13487           0.0000000000
     40460     13487  TIP3      H1             47.1926133595       28.5399377139      -16.7900196465  W2        13487           0.0000000000
     40461     13487  TIP3      H2             48.3231633595       28.8026877139      -15.8180596465  W2        13487           0.0000000000
     40462     13488  TIP3      OH2            50.6108233595       30.8158777139        1.5082703535  W2        13488           0.0000000000
     40463     13488  TIP3      H1             51.5639433595       30.8997877139        1.4808703535  W2        13488           0.0000000000
     40464     13488  TIP3      H2             50.4502833595       30.1040577139        2.1277603535  W2        13488           0.0000000000
     40465     13489  TIP3      OH2            45.9303733595       25.6994277139       -0.6868996465  W2        13489           0.0000000000
     40466     13489  TIP3      H1             46.0804633595       24.9705577139       -1.2889296465  W2        13489           0.0000000000
     40467     13489  TIP3      H2             45.9326133595       26.4765977139       -1.2456796465  W2        13489           0.0000000000
     40468     13490  TIP3      OH2            46.3429433595       24.0690077139       -3.1941596465  W2        13490           0.0000000000
     40469     13490  TIP3      H1             46.8786933595       24.5206777139       -3.8462296465  W2        13490           0.0000000000
     40470     13490  TIP3      H2             45.4909033595       23.9609877139       -3.6167496465  W2        13490           0.0000000000
     40471     13491  TIP3      OH2            47.9247833595       29.5086277139       -2.9546396465  W2        13491           0.0000000000
     40472     13491  TIP3      H1             48.6752633595       29.3523777139       -3.5278596465  W2        13491           0.0000000000
     40473     13491  TIP3      H2             47.5856133595       30.3602877139       -3.2300896465  W2        13491           0.0000000000
     40474     13492  TIP3      OH2            52.3404033595       27.3238077139        2.0738903535  W2        13492           0.0000000000
     40475     13492  TIP3      H1             52.5325333595       26.3927477139        1.9623403535  W2        13492           0.0000000000
     40476     13492  TIP3      H2             53.1980333595       27.7487577139        2.0634303535  W2        13492           0.0000000000
     40477     13493  TIP3      OH2            53.6571233595       30.1123277139        0.1511603535  W2        13493           0.0000000000
     40478     13493  TIP3      H1             53.3756233595       30.8217877139       -0.4264596465  W2        13493           0.0000000000
     40479     13493  TIP3      H2             54.5995533595       30.0396277139        0.0002803535  W2        13493           0.0000000000
     40480     13494  TIP3      OH2            44.4090033595       26.8977777139        1.2246603535  W2        13494           0.0000000000
     40481     13494  TIP3      H1             43.6419033595       26.3652577139        1.0144203535  W2        13494           0.0000000000
     40482     13494  TIP3      H2             45.0879033595       26.5878177139        0.6252903535  W2        13494           0.0000000000
     40483     13495  TIP3      OH2            47.1484933595       21.5255777139       -2.7627996465  W2        13495           0.0000000000
     40484     13495  TIP3      H1             47.0504533595       22.4718977139       -2.8681796465  W2        13495           0.0000000000
     40485     13495  TIP3      H2             46.4061133595       21.1529577139       -3.2384496465  W2        13495           0.0000000000
     40486     13496  TIP3      OH2            48.4125433595       25.8471177139        0.8010403535  W2        13496           0.0000000000
     40487     13496  TIP3      H1             48.1770833595       25.6277877139        1.7025303535  W2        13496           0.0000000000
     40488     13496  TIP3      H2             47.6292333595       25.6402377139        0.2912903535  W2        13496           0.0000000000
     40489     13497  TIP3      OH2            51.1282033595       24.9744677139       -0.1236096465  W2        13497           0.0000000000
     40490     13497  TIP3      H1             50.1807433595       25.0064377139        0.0087203535  W2        13497           0.0000000000
     40491     13497  TIP3      H2             51.4408733595       24.3491777139        0.5302103535  W2        13497           0.0000000000
     40492     13498  TIP3      OH2            52.7623533595       23.6085777139        1.8815803535  W2        13498           0.0000000000
     40493     13498  TIP3      H1             52.6655333595       22.6563077139        1.8757703535  W2        13498           0.0000000000
     40494     13498  TIP3      H2             52.4406633595       23.8772577139        2.7421303535  W2        13498           0.0000000000
     40495     13499  TIP3      OH2            42.5892833595       24.8181577139        0.9291303535  W2        13499           0.0000000000
     40496     13499  TIP3      H1             42.8010233595       24.1117677139        0.3188803535  W2        13499           0.0000000000
     40497     13499  TIP3      H2             42.4780333595       24.3807577139        1.7732503535  W2        13499           0.0000000000
     40498     13500  TIP3      OH2            47.3703033595       20.8193177139       -0.0915196465  W2        13500           0.0000000000
     40499     13500  TIP3      H1             48.0821433595       20.1795377139       -0.1056096465  W2        13500           0.0000000000
     40500     13500  TIP3      H2             47.2693433595       21.0861477139       -1.0052096465  W2        13500           0.0000000000
     40501     13501  TIP3      OH2            47.7240533595       22.5021577139        1.9621103535  W2        13501           0.0000000000
     40502     13501  TIP3      H1             47.5922733595       22.0265377139        1.1419603535  W2        13501           0.0000000000
     40503     13501  TIP3      H2             47.1247933595       23.2465177139        1.9068203535  W2        13501           0.0000000000
     40504     13502  TIP3      OH2            47.2702833595       39.3851877139      -14.8614896465  W2        13502           0.0000000000
     40505     13502  TIP3      H1             48.2033533595       39.5430577139      -14.7176496465  W2        13502           0.0000000000
     40506     13502  TIP3      H2             47.0061633595       40.0604877139      -15.4863396465  W2        13502           0.0000000000
     40507     13503  TIP3      OH2            40.8387733595       34.0215677139      -15.3786796465  W2        13503           0.0000000000
     40508     13503  TIP3      H1             41.7526933595       34.1004577139      -15.1052896465  W2        13503           0.0000000000
     40509     13503  TIP3      H2             40.8460833595       33.3345277139      -16.0451196465  W2        13503           0.0000000000
     40510     13504  TIP3      OH2            39.4878333595       39.4144177139      -10.3012896465  W2        13504           0.0000000000
     40511     13504  TIP3      H1             38.8405433595       38.9525877139      -10.8341696465  W2        13504           0.0000000000
     40512     13504  TIP3      H2             39.8422933595       38.7427477139       -9.7186696465  W2        13504           0.0000000000
     40513     13505  TIP3      OH2            40.3577533595       37.4951177139       -8.4966696465  W2        13505           0.0000000000
     40514     13505  TIP3      H1             40.0234333595       36.6148477139       -8.3246496465  W2        13505           0.0000000000
     40515     13505  TIP3      H2             40.5799933595       37.8406177139       -7.6321096465  W2        13505           0.0000000000
     40516     13506  TIP3      OH2            40.4377033595       30.5706577139       -6.0451796465  W2        13506           0.0000000000
     40517     13506  TIP3      H1             40.6219933595       30.4888277139       -6.9808896465  W2        13506           0.0000000000
     40518     13506  TIP3      H2             41.2869933595       30.4463577139       -5.6215396465  W2        13506           0.0000000000
     40519     13507  TIP3      OH2            40.0351833595       25.8411577139        0.0957003535  W2        13507           0.0000000000
     40520     13507  TIP3      H1             40.9546733595       25.7189877139        0.3320103535  W2        13507           0.0000000000
     40521     13507  TIP3      H2             39.5856333595       25.0911277139        0.4850503535  W2        13507           0.0000000000
     40522     13508  TIP3      OH2            41.2564333595       24.1533177139       -7.0130096465  W2        13508           0.0000000000
     40523     13508  TIP3      H1             41.7015933595       23.3615677139       -6.7110396465  W2        13508           0.0000000000
     40524     13508  TIP3      H2             41.7227333595       24.8698377139       -6.5824496465  W2        13508           0.0000000000
     40525     13509  TIP3      OH2            39.5604633595       27.1526177139       -5.9439896465  W2        13509           0.0000000000
     40526     13509  TIP3      H1             40.0524433595       26.9316677139       -6.7347896465  W2        13509           0.0000000000
     40527     13509  TIP3      H2             39.9225533595       27.9929577139       -5.6630396465  W2        13509           0.0000000000
     40528     13510  TIP3      OH2            39.8741133595       23.4105277139      -11.8897496465  W2        13510           0.0000000000
     40529     13510  TIP3      H1             38.9489533595       23.6191877139      -12.0191996465  W2        13510           0.0000000000
     40530     13510  TIP3      H2             40.3281033595       23.8946077139      -12.5795196465  W2        13510           0.0000000000
     40531     13511  TIP3      OH2            54.6448333595       38.3946977139       -9.9440096465  W2        13511           0.0000000000
     40532     13511  TIP3      H1             55.2971233595       38.0469077139      -10.5520996465  W2        13511           0.0000000000
     40533     13511  TIP3      H2             55.1552133595       38.8830177139       -9.2980396465  W2        13511           0.0000000000
     40534     13512  TIP3      OH2            39.8376533595       22.1484277139       -3.5454996465  W2        13512           0.0000000000
     40535     13512  TIP3      H1             39.1727033595       21.9024577139       -2.9024096465  W2        13512           0.0000000000
     40536     13512  TIP3      H2             39.3947833595       22.7704677139       -4.1226996465  W2        13512           0.0000000000
     40537     13513  TIP3      OH2            42.0295833595       35.3238377139        0.5990803535  W2        13513           0.0000000000
     40538     13513  TIP3      H1             41.2088333595       35.4984877139        0.1385503535  W2        13513           0.0000000000
     40539     13513  TIP3      H2             41.7773633595       35.2503077139        1.5195203535  W2        13513           0.0000000000
     40540     13514  TIP3      OH2            44.9838733595       36.2979577139       -3.1425196465  W2        13514           0.0000000000
     40541     13514  TIP3      H1             44.5589833595       37.1078077139       -3.4250596465  W2        13514           0.0000000000
     40542     13514  TIP3      H2             45.8881533595       36.3833677139       -3.4445396465  W2        13514           0.0000000000
     40543     13515  TIP3      OH2            49.2950133595       37.6969577139       -0.1831496465  W2        13515           0.0000000000
     40544     13515  TIP3      H1             49.4797633595       37.3635677139        0.6948803535  W2        13515           0.0000000000
     40545     13515  TIP3      H2             50.1414633595       38.0068177139       -0.5052296465  W2        13515           0.0000000000
     40546     13516  TIP3      OH2            51.6400533595       38.9828477139       -0.9390096465  W2        13516           0.0000000000
     40547     13516  TIP3      H1             52.3169433595       38.3500777139       -1.1790896465  W2        13516           0.0000000000
     40548     13516  TIP3      H2             51.9619333595       39.3838977139       -0.1316796465  W2        13516           0.0000000000
     40549     13517  TIP3      OH2            42.3855433595       39.5543477139       -3.0949896465  W2        13517           0.0000000000
     40550     13517  TIP3      H1             41.6651833595       39.9944477139       -3.5462196465  W2        13517           0.0000000000
     40551     13517  TIP3      H2             42.0199433595       39.3038177139       -2.2465896465  W2        13517           0.0000000000
     40552     13518  TIP3      OH2            44.8528033595       39.1547377139       -4.0652696465  W2        13518           0.0000000000
     40553     13518  TIP3      H1             43.9880233595       39.2265877139       -3.6612596465  W2        13518           0.0000000000
     40554     13518  TIP3      H2             44.7977033595       39.7014677139       -4.8490196465  W2        13518           0.0000000000
     40555     13519  TIP3      OH2            49.5633633595       39.0426277139       -4.8896696465  W2        13519           0.0000000000
     40556     13519  TIP3      H1             49.1067633595       39.5715977139       -5.5438296465  W2        13519           0.0000000000
     40557     13519  TIP3      H2             49.7261633595       39.6457677139       -4.1644396465  W2        13519           0.0000000000
     40558     13520  TIP3      OH2            51.8909933595       37.9205877139       -3.9446396465  W2        13520           0.0000000000
     40559     13520  TIP3      H1             50.9863633595       38.0856077139       -4.2104296465  W2        13520           0.0000000000
     40560     13520  TIP3      H2             52.3198533595       38.7738077139       -4.0102996465  W2        13520           0.0000000000
     40561     13521  TIP3      OH2            54.4951833595       39.4904977139       -3.6498596465  W2        13521           0.0000000000
     40562     13521  TIP3      H1             54.3133833595       40.4063877139       -3.8603696465  W2        13521           0.0000000000
     40563     13521  TIP3      H2             54.6719633595       39.0802077139       -4.4963996465  W2        13521           0.0000000000
     40564     13522  TIP3      OH2            41.8003533595       38.1775977139       -6.1848096465  W2        13522           0.0000000000
     40565     13522  TIP3      H1             41.7819533595       37.7521077139       -5.3275796465  W2        13522           0.0000000000
     40566     13522  TIP3      H2             42.6051433595       37.8590977139       -6.5935896465  W2        13522           0.0000000000
     40567     13523  TIP3      OH2            43.9416633595       36.8874677139       -7.5298196465  W2        13523           0.0000000000
     40568     13523  TIP3      H1             43.7227333595       35.9712077139       -7.3602196465  W2        13523           0.0000000000
     40569     13523  TIP3      H2             44.7658833595       37.0275077139       -7.0636796465  W2        13523           0.0000000000
     40570     13524  TIP3      OH2            46.4789133595       37.3573977139       -6.6810196465  W2        13524           0.0000000000
     40571     13524  TIP3      H1             46.6914833595       36.4692977139       -6.9679296465  W2        13524           0.0000000000
     40572     13524  TIP3      H2             46.5434233595       37.3231677139       -5.7266196465  W2        13524           0.0000000000
     40573     13525  TIP3      OH2            49.9872833595       23.0214577139       -7.5366896465  W2        13525           0.0000000000
     40574     13525  TIP3      H1             49.3129633595       22.3920177139       -7.2811096465  W2        13525           0.0000000000
     40575     13525  TIP3      H2             50.5512033595       22.5373477139       -8.1398996465  W2        13525           0.0000000000
     40576     13526  TIP3      OH2            42.3140333595       21.6554877139       -9.7146996465  W2        13526           0.0000000000
     40577     13526  TIP3      H1             41.5370133595       21.4209777139      -10.2221096465  W2        13526           0.0000000000
     40578     13526  TIP3      H2             42.8443933595       20.8586977139       -9.7058996465  W2        13526           0.0000000000
     40579     13527  TIP3      OH2            41.1503733595       21.4532977139      -13.9110896465  W2        13527           0.0000000000
     40580     13527  TIP3      H1             41.5894433595       22.0643477139      -14.5027396465  W2        13527           0.0000000000
     40581     13527  TIP3      H2             40.5166133595       21.9917077139      -13.4370896465  W2        13527           0.0000000000
     40582     13528  TIP3      OH2            46.8932933595       21.5821977139       -9.9013896465  W2        13528           0.0000000000
     40583     13528  TIP3      H1             47.7676333595       21.9706277139       -9.9309596465  W2        13528           0.0000000000
     40584     13528  TIP3      H2             46.7573733595       21.3669777139       -8.9786696465  W2        13528           0.0000000000
     40585     13529  TIP3      OH2            52.4501333595       21.6121777139       -8.2522196465  W2        13529           0.0000000000
     40586     13529  TIP3      H1             52.5262933595       21.7073377139       -9.2016196465  W2        13529           0.0000000000
     40587     13529  TIP3      H2             52.1750533595       20.7044677139       -8.1233096465  W2        13529           0.0000000000
     40588     13530  TIP3      OH2            53.8033933595       21.6379577139      -12.5597196465  W2        13530           0.0000000000
     40589     13530  TIP3      H1             53.1005033595       22.2528777139      -12.7695796465  W2        13530           0.0000000000
     40590     13530  TIP3      H2             53.3585333595       20.8006277139      -12.4286296465  W2        13530           0.0000000000
     40591     13531  TIP3      OH2            41.0513233595       37.4015177139      -13.0135796465  W2        13531           0.0000000000
     40592     13531  TIP3      H1             40.3663133595       37.3634077139      -13.6810696465  W2        13531           0.0000000000
     40593     13531  TIP3      H2             41.0550433595       38.3142777139      -12.7253696465  W2        13531           0.0000000000
     40594     13532  TIP3      OH2            43.0112833595       23.3694477139      -15.4686796465  W2        13532           0.0000000000
     40595     13532  TIP3      H1             43.5026233595       22.7396877139      -15.9961296465  W2        13532           0.0000000000
     40596     13532  TIP3      H2             43.6349133595       23.6653877139      -14.8055596465  W2        13532           0.0000000000
     40597     13533  TIP3      OH2            48.0372933595       23.6625977139      -13.0116296465  W2        13533           0.0000000000
     40598     13533  TIP3      H1             48.2154233595       23.0159177139      -12.3287696465  W2        13533           0.0000000000
     40599     13533  TIP3      H2             47.9839133595       24.4963677139      -12.5445196465  W2        13533           0.0000000000
     40600     13534  TIP3      OH2            49.9156733595       38.6110077139      -14.6159596465  W2        13534           0.0000000000
     40601     13534  TIP3      H1             50.7816933595       38.9777477139      -14.7941396465  W2        13534           0.0000000000
     40602     13534  TIP3      H2             49.6689533595       38.1718077139      -15.4298796465  W2        13534           0.0000000000
     40603     13535  TIP3      OH2            42.2718333595       22.1696777139       -0.1970796465  W2        13535           0.0000000000
     40604     13535  TIP3      H1             41.9056533595       21.4039377139        0.2453903535  W2        13535           0.0000000000
     40605     13535  TIP3      H2             43.1846833595       22.1986977139        0.0894303535  W2        13535           0.0000000000
     40606     13536  TIP3      OH2            44.2449133595       21.5201177139        1.3386303535  W2        13536           0.0000000000
     40607     13536  TIP3      H1             45.1432733595       21.2461377139        1.1539703535  W2        13536           0.0000000000
     40608     13536  TIP3      H2             43.8582233595       20.7777177139        1.8028903535  W2        13536           0.0000000000
     40609     13537  TIP3      OH2            42.8694433595       38.3215977139      -15.9883696465  W2        13537           0.0000000000
     40610     13537  TIP3      H1             42.6019033595       38.6078877139      -15.1150596465  W2        13537           0.0000000000
     40611     13537  TIP3      H2             43.6407033595       37.7755177139      -15.8361196465  W2        13537           0.0000000000
     40612     13538  TIP3      OH2            52.6661433595       20.8526477139        1.5209103535  W2        13538           0.0000000000
     40613     13538  TIP3      H1             52.7428633595       20.4267177139        2.3746803535  W2        13538           0.0000000000
     40614     13538  TIP3      H2             53.5598033595       20.8661177139        1.1782603535  W2        13538           0.0000000000
     40615     13539  TIP3      OH2           -42.8877066405       49.6677177139       -9.7559496465  W2        13539           0.0000000000
     40616     13539  TIP3      H1            -42.7985966405       50.6115377139       -9.8882396465  W2        13539           0.0000000000
     40617     13539  TIP3      H2            -43.5259466405       49.3923577139      -10.4140096465  W2        13539           0.0000000000
     40618     13540  TIP3      OH2           -43.9545766405       48.9227877139       -6.3371296465  W2        13540           0.0000000000
     40619     13540  TIP3      H1            -43.9928266405       48.2764177139       -5.6321696465  W2        13540           0.0000000000
     40620     13540  TIP3      H2            -44.2769266405       48.4562277139       -7.1082596465  W2        13540           0.0000000000
     40621     13541  TIP3      OH2           -51.5860766405       48.5369977139       -4.7441396465  W2        13541           0.0000000000
     40622     13541  TIP3      H1            -51.5448666405       47.9113277139       -4.0208996465  W2        13541           0.0000000000
     40623     13541  TIP3      H2            -50.8833066405       49.1608577139       -4.5620996465  W2        13541           0.0000000000
     40624     13542  TIP3      OH2           -40.2485566405       51.8618277139       -8.0356196465  W2        13542           0.0000000000
     40625     13542  TIP3      H1            -40.6892866405       51.1414277139       -7.5850596465  W2        13542           0.0000000000
     40626     13542  TIP3      H2            -40.2615866405       52.5825477139       -7.4058496465  W2        13542           0.0000000000
     40627     13543  TIP3      OH2           -50.6627666405       52.9868877139       -6.2092296465  W2        13543           0.0000000000
     40628     13543  TIP3      H1            -51.0322466405       52.1849377139       -6.5787996465  W2        13543           0.0000000000
     40629     13543  TIP3      H2            -49.7216566405       52.8183777139       -6.1628896465  W2        13543           0.0000000000
     40630     13544  TIP3      OH2           -54.0527166405       46.6471477139      -10.8163496465  W2        13544           0.0000000000
     40631     13544  TIP3      H1            -54.5003766405       47.4930177139      -10.8346996465  W2        13544           0.0000000000
     40632     13544  TIP3      H2            -54.6135966405       46.0675677139      -11.3318396465  W2        13544           0.0000000000
     40633     13545  TIP3      OH2           -53.3421066405       48.8091077139       -8.6905496465  W2        13545           0.0000000000
     40634     13545  TIP3      H1            -53.1287566405       48.0392677139       -8.1632496465  W2        13545           0.0000000000
     40635     13545  TIP3      H2            -52.6043466405       48.8987777139       -9.2937896465  W2        13545           0.0000000000
     40636     13546  TIP3      OH2           -45.5651366405       51.3549277139       -5.9310296465  W2        13546           0.0000000000
     40637     13546  TIP3      H1            -45.2613466405       50.6690677139       -6.5256196465  W2        13546           0.0000000000
     40638     13546  TIP3      H2            -44.8437366405       51.4737977139       -5.3132296465  W2        13546           0.0000000000
     40639     13547  TIP3      OH2           -36.9021566405       42.9564577139       -5.0704096465  W2        13547           0.0000000000
     40640     13547  TIP3      H1            -36.8529366405       43.5665777139       -4.3344996465  W2        13547           0.0000000000
     40641     13547  TIP3      H2            -36.4766466405       43.4175477139       -5.7932996465  W2        13547           0.0000000000
     40642     13548  TIP3      OH2           -42.4244366405       45.7491677139       -5.6035496465  W2        13548           0.0000000000
     40643     13548  TIP3      H1            -42.2818466405       44.8028677139       -5.5833896465  W2        13548           0.0000000000
     40644     13548  TIP3      H2            -42.5305366405       45.9561477139       -6.5320596465  W2        13548           0.0000000000
     40645     13549  TIP3      OH2           -49.2696066405       43.8508077139       -8.3310696465  W2        13549           0.0000000000
     40646     13549  TIP3      H1            -49.2264966405       44.7106577139       -8.7494396465  W2        13549           0.0000000000
     40647     13549  TIP3      H2            -49.7271966405       43.2982777139       -8.9647496465  W2        13549           0.0000000000
     40648     13550  TIP3      OH2           -41.5473366405       43.9813677139       -9.9302396465  W2        13550           0.0000000000
     40649     13550  TIP3      H1            -40.9009066405       43.6526877139       -9.3054796465  W2        13550           0.0000000000
     40650     13550  TIP3      H2            -41.0373966405       44.4992677139      -10.5530996465  W2        13550           0.0000000000
     40651     13551  TIP3      OH2           -52.6494566405       46.2473877139       -7.5689296465  W2        13551           0.0000000000
     40652     13551  TIP3      H1            -51.9957966405       45.6975577139       -7.1369196465  W2        13551           0.0000000000
     40653     13551  TIP3      H2            -52.6255266405       45.9732877139       -8.4857296465  W2        13551           0.0000000000
     40654     13552  TIP3      OH2           -47.4930066405       47.7975177139       -8.3537796465  W2        13552           0.0000000000
     40655     13552  TIP3      H1            -46.8769066405       47.2710577139       -7.8443796465  W2        13552           0.0000000000
     40656     13552  TIP3      H2            -48.0791266405       47.1573877139       -8.7574196465  W2        13552           0.0000000000
     40657     13553  TIP3      OH2           -36.5106966405       44.4343777139       -2.8344296465  W2        13553           0.0000000000
     40658     13553  TIP3      H1            -37.1992366405       45.0924477139       -2.9297696465  W2        13553           0.0000000000
     40659     13553  TIP3      H2            -36.4952366405       44.2371677139       -1.8978896465  W2        13553           0.0000000000
     40660     13554  TIP3      OH2           -50.4594166405       42.7686477139       -4.2569896465  W2        13554           0.0000000000
     40661     13554  TIP3      H1            -50.6782466405       43.2987077139       -5.0233896465  W2        13554           0.0000000000
     40662     13554  TIP3      H2            -51.1273266405       42.9951977139       -3.6098496465  W2        13554           0.0000000000
     40663     13555  TIP3      OH2           -43.0904366405       52.2687577139      -10.7130796465  W2        13555           0.0000000000
     40664     13555  TIP3      H1            -43.3859266405       51.9459877139      -11.5643896465  W2        13555           0.0000000000
     40665     13555  TIP3      H2            -43.4146566405       53.1684277139      -10.6718196465  W2        13555           0.0000000000
     40666     13556  TIP3      OH2           -47.8902766405       50.4442177139       -3.9696196465  W2        13556           0.0000000000
     40667     13556  TIP3      H1            -48.6303666405       51.0423677139       -3.8660996465  W2        13556           0.0000000000
     40668     13556  TIP3      H2            -47.1763266405       50.9981777139       -4.2852596465  W2        13556           0.0000000000
     40669     13557  TIP3      OH2           -39.7834966405       43.2722977139       -7.9496496465  W2        13557           0.0000000000
     40670     13557  TIP3      H1            -39.9986966405       42.5066377139       -7.4170496465  W2        13557           0.0000000000
     40671     13557  TIP3      H2            -39.1277566405       43.7447577139       -7.4367996465  W2        13557           0.0000000000
     40672     13558  TIP3      OH2           -50.8656866405       44.6608277139       -6.3047696465  W2        13558           0.0000000000
     40673     13558  TIP3      H1            -50.2520566405       45.2935877139       -5.9315296465  W2        13558           0.0000000000
     40674     13558  TIP3      H2            -50.3536166405       44.1883277139       -6.9610796465  W2        13558           0.0000000000
     40675     13559  TIP3      OH2           -49.4828466405       52.4085177139       -3.1824696465  W2        13559           0.0000000000
     40676     13559  TIP3      H1            -49.4880866405       53.2878677139       -3.5605396465  W2        13559           0.0000000000
     40677     13559  TIP3      H2            -50.3364366405       52.3249277139       -2.7574796465  W2        13559           0.0000000000
     40678     13560  TIP3      OH2           -53.3617566405       52.0793077139      -12.4005396465  W2        13560           0.0000000000
     40679     13560  TIP3      H1            -53.6336666405       52.3084077139      -13.2892496465  W2        13560           0.0000000000
     40680     13560  TIP3      H2            -53.3161866405       52.9171877139      -11.9400096465  W2        13560           0.0000000000
     40681     13561  TIP3      OH2           -39.7367866405       53.7008977139       -5.6876896465  W2        13561           0.0000000000
     40682     13561  TIP3      H1            -40.6784166405       53.7592877139       -5.5259996465  W2        13561           0.0000000000
     40683     13561  TIP3      H2            -39.4601766405       54.6069477139       -5.8247196465  W2        13561           0.0000000000
     40684     13562  TIP3      OH2           -39.4360866405       41.9874277139       -4.2702996465  W2        13562           0.0000000000
     40685     13562  TIP3      H1            -40.1721666405       42.5981377139       -4.3081696465  W2        13562           0.0000000000
     40686     13562  TIP3      H2            -38.7526866405       42.4023277139       -4.7966596465  W2        13562           0.0000000000
     40687     13563  TIP3      OH2           -46.4329466405       40.0741577139       -6.8044996465  W2        13563           0.0000000000
     40688     13563  TIP3      H1            -46.5505266405       39.1257577139       -6.8586696465  W2        13563           0.0000000000
     40689     13563  TIP3      H2            -47.2879366405       40.4067677139       -6.5313896465  W2        13563           0.0000000000
     40690     13564  TIP3      OH2           -40.3250166405       53.3830977139      -10.5538696465  W2        13564           0.0000000000
     40691     13564  TIP3      H1            -40.5825366405       52.6931077139      -11.1652796465  W2        13564           0.0000000000
     40692     13564  TIP3      H2            -40.2539366405       52.9402177139       -9.7082796465  W2        13564           0.0000000000
     40693     13565  TIP3      OH2           -38.6389966405       51.9497677139       -2.0765196465  W2        13565           0.0000000000
     40694     13565  TIP3      H1            -38.4993666405       51.3580177139       -2.8158196465  W2        13565           0.0000000000
     40695     13565  TIP3      H2            -38.4717166405       52.8223577139       -2.4326396465  W2        13565           0.0000000000
     40696     13566  TIP3      OH2           -44.1664566405       48.9117177139      -12.3039196465  W2        13566           0.0000000000
     40697     13566  TIP3      H1            -44.8779066405       49.4466877139      -12.6558696465  W2        13566           0.0000000000
     40698     13566  TIP3      H2            -43.4754966405       48.9669277139      -12.9640296465  W2        13566           0.0000000000
     40699     13567  TIP3      OH2           -44.1125366405       47.3691477139      -15.2654196465  W2        13567           0.0000000000
     40700     13567  TIP3      H1            -43.4115466405       47.3918377139      -14.6140196465  W2        13567           0.0000000000
     40701     13567  TIP3      H2            -43.8102466405       46.7411177139      -15.9214896465  W2        13567           0.0000000000
     40702     13568  TIP3      OH2           -36.7970666405       48.2895677139       -4.0104796465  W2        13568           0.0000000000
     40703     13568  TIP3      H1            -37.4496566405       48.9841277139       -3.9213896465  W2        13568           0.0000000000
     40704     13568  TIP3      H2            -36.3320366405       48.4996577139       -4.8203196465  W2        13568           0.0000000000
     40705     13569  TIP3      OH2           -40.7606866405       49.1210477139      -11.3523296465  W2        13569           0.0000000000
     40706     13569  TIP3      H1            -41.4925866405       49.3494177139      -10.7792696465  W2        13569           0.0000000000
     40707     13569  TIP3      H2            -40.3134666405       48.4073177139      -10.8975796465  W2        13569           0.0000000000
     40708     13570  TIP3      OH2           -40.8633366405       47.2953077139       -2.2846296465  W2        13570           0.0000000000
     40709     13570  TIP3      H1            -40.7834266405       48.0587477139       -1.7127796465  W2        13570           0.0000000000
     40710     13570  TIP3      H2            -41.4645666405       47.5745477139       -2.9751196465  W2        13570           0.0000000000
     40711     13571  TIP3      OH2           -49.1153166405       49.7516677139       -9.4698296465  W2        13571           0.0000000000
     40712     13571  TIP3      H1            -49.4457966405       49.3810077139      -10.2881296465  W2        13571           0.0000000000
     40713     13571  TIP3      H2            -48.5269066405       49.0810677139       -9.1229996465  W2        13571           0.0000000000
     40714     13572  TIP3      OH2           -47.7485666405       53.1797277139       -6.7886096465  W2        13572           0.0000000000
     40715     13572  TIP3      H1            -47.8434366405       52.6010377139       -7.5451496465  W2        13572           0.0000000000
     40716     13572  TIP3      H2            -47.0192066405       52.8082977139       -6.2923296465  W2        13572           0.0000000000
     40717     13573  TIP3      OH2           -48.7487666405       48.5202277139       -5.8363296465  W2        13573           0.0000000000
     40718     13573  TIP3      H1            -48.1835166405       48.6416477139       -6.5992096465  W2        13573           0.0000000000
     40719     13573  TIP3      H2            -48.4298766405       49.1577277139       -5.1974796465  W2        13573           0.0000000000
     40720     13574  TIP3      OH2           -42.4395466405       54.0234177139       -5.1022796465  W2        13574           0.0000000000
     40721     13574  TIP3      H1            -42.6798866405       54.6857277139       -4.4543596465  W2        13574           0.0000000000
     40722     13574  TIP3      H2            -42.6377266405       53.1889377139       -4.6773196465  W2        13574           0.0000000000
     40723     13575  TIP3      OH2           -47.8686966405       52.9194977139       -1.1191396465  W2        13575           0.0000000000
     40724     13575  TIP3      H1            -48.1799466405       53.7018177139       -0.6638196465  W2        13575           0.0000000000
     40725     13575  TIP3      H2            -48.5186766405       52.7664077139       -1.8049396465  W2        13575           0.0000000000
     40726     13576  TIP3      OH2           -41.8897366405       48.2833377139      -13.6672096465  W2        13576           0.0000000000
     40727     13576  TIP3      H1            -41.3101866405       48.4333677139      -12.9203196465  W2        13576           0.0000000000
     40728     13576  TIP3      H2            -41.4757366405       48.7540777139      -14.3905696465  W2        13576           0.0000000000
     40729     13577  TIP3      OH2           -50.9487066405       49.1176077139       -1.8905696465  W2        13577           0.0000000000
     40730     13577  TIP3      H1            -50.8783866405       49.7682877139       -1.1920696465  W2        13577           0.0000000000
     40731     13577  TIP3      H2            -51.8394866405       49.2203577139       -2.2254796465  W2        13577           0.0000000000
     40732     13578  TIP3      OH2           -49.6291066405       54.9909977139       -0.3557596465  W2        13578           0.0000000000
     40733     13578  TIP3      H1            -49.6215766405       54.8549677139       -1.3032096465  W2        13578           0.0000000000
     40734     13578  TIP3      H2            -50.5450666405       54.8738077139       -0.1037596465  W2        13578           0.0000000000
     40735     13579  TIP3      OH2           -38.1908966405       40.0333777139      -13.8542396465  W2        13579           0.0000000000
     40736     13579  TIP3      H1            -39.0908266405       40.1722777139      -13.5591796465  W2        13579           0.0000000000
     40737     13579  TIP3      H2            -37.9390566405       40.8648377139      -14.2560696465  W2        13579           0.0000000000
     40738     13580  TIP3      OH2           -50.1250466405       48.8210977139      -11.8805496465  W2        13580           0.0000000000
     40739     13580  TIP3      H1            -50.4169166405       49.5892677139      -12.3714196465  W2        13580           0.0000000000
     40740     13580  TIP3      H2            -50.7995266405       48.1617177139      -12.0434096465  W2        13580           0.0000000000
     40741     13581  TIP3      OH2           -37.0017566405       54.3996177139      -15.4778496465  W2        13581           0.0000000000
     40742     13581  TIP3      H1            -36.9284066405       55.3386377139      -15.3073196465  W2        13581           0.0000000000
     40743     13581  TIP3      H2            -36.0962466405       54.0944777139      -15.5341196465  W2        13581           0.0000000000
     40744     13582  TIP3      OH2           -54.0320366405       51.1840177139       -3.0655696465  W2        13582           0.0000000000
     40745     13582  TIP3      H1            -54.5331966405       51.1559577139       -3.8805996465  W2        13582           0.0000000000
     40746     13582  TIP3      H2            -54.0266666405       50.2783377139       -2.7558396465  W2        13582           0.0000000000
     40747     13583  TIP3      OH2           -54.2817666405       53.9643977139       -6.1815496465  W2        13583           0.0000000000
     40748     13583  TIP3      H1            -53.3357066405       53.8200977139       -6.2005996465  W2        13583           0.0000000000
     40749     13583  TIP3      H2            -54.3941366405       54.7486777139       -5.6444296465  W2        13583           0.0000000000
     40750     13584  TIP3      OH2           -36.0839166405       54.6303677139       -0.4991796465  W2        13584           0.0000000000
     40751     13584  TIP3      H1            -36.1332366405       53.6751777139       -0.5364196465  W2        13584           0.0000000000
     40752     13584  TIP3      H2            -36.9106866405       54.8978977139       -0.0977996465  W2        13584           0.0000000000
     40753     13585  TIP3      OH2           -45.1055166405       54.2042877139       -1.6230396465  W2        13585           0.0000000000
     40754     13585  TIP3      H1            -45.0180566405       55.0307477139       -1.1481296465  W2        13585           0.0000000000
     40755     13585  TIP3      H2            -45.9690066405       53.8746677139       -1.3741096465  W2        13585           0.0000000000
     40756     13586  TIP3      OH2           -38.9319366405       46.1236177139       -0.0189596465  W2        13586           0.0000000000
     40757     13586  TIP3      H1            -39.3392566405       46.6041777139       -0.7396296465  W2        13586           0.0000000000
     40758     13586  TIP3      H2            -38.8913666405       45.2182177139       -0.3268796465  W2        13586           0.0000000000
     40759     13587  TIP3      OH2           -51.7829866405       52.5075577139       -2.0222896465  W2        13587           0.0000000000
     40760     13587  TIP3      H1            -51.5668566405       52.1461177139       -1.1627096465  W2        13587           0.0000000000
     40761     13587  TIP3      H2            -52.6385166405       52.1329377139       -2.2319396465  W2        13587           0.0000000000
     40762     13588  TIP3      OH2           -49.1641866405       40.9776077139       -6.0268696465  W2        13588           0.0000000000
     40763     13588  TIP3      H1            -50.0258166405       40.8904277139       -6.4345796465  W2        13588           0.0000000000
     40764     13588  TIP3      H2            -49.1866166405       41.8336177139       -5.5991096465  W2        13588           0.0000000000
     40765     13589  TIP3      OH2           -44.5014066405       40.6996477139       -2.6521696465  W2        13589           0.0000000000
     40766     13589  TIP3      H1            -44.0810966405       40.2843577139       -1.8991096465  W2        13589           0.0000000000
     40767     13589  TIP3      H2            -45.4344466405       40.5209777139       -2.5349696465  W2        13589           0.0000000000
     40768     13590  TIP3      OH2           -41.1749166405       44.4551677139       -1.7987196465  W2        13590           0.0000000000
     40769     13590  TIP3      H1            -41.6889666405       44.3293877139       -1.0011196465  W2        13590           0.0000000000
     40770     13590  TIP3      H2            -41.3304466405       45.3674777139       -2.0430996465  W2        13590           0.0000000000
     40771     13591  TIP3      OH2           -40.4124266405       49.3161677139      -16.0374196465  W2        13591           0.0000000000
     40772     13591  TIP3      H1            -40.3703466405       49.0935577139      -16.9674196465  W2        13591           0.0000000000
     40773     13591  TIP3      H2            -39.5632166405       49.7148777139      -15.8474296465  W2        13591           0.0000000000
     40774     13592  TIP3      OH2           -44.8396766405       43.1919877139      -15.3670896465  W2        13592           0.0000000000
     40775     13592  TIP3      H1            -45.0931966405       43.2111477139      -14.4442796465  W2        13592           0.0000000000
     40776     13592  TIP3      H2            -45.0964666405       42.3205277139      -15.6684696465  W2        13592           0.0000000000
     40777     13593  TIP3      OH2           -49.0731766405       45.9430577139       -4.9318496465  W2        13593           0.0000000000
     40778     13593  TIP3      H1            -49.7149666405       45.9027877139       -4.2228396465  W2        13593           0.0000000000
     40779     13593  TIP3      H2            -49.0359766405       46.8695277139       -5.1695496465  W2        13593           0.0000000000
     40780     13594  TIP3      OH2           -49.0762666405       46.1640677139      -10.0198496465  W2        13594           0.0000000000
     40781     13594  TIP3      H1            -49.9689766405       45.8236777139      -10.0784696465  W2        13594           0.0000000000
     40782     13594  TIP3      H2            -48.6256066405       45.7871577139      -10.7755296465  W2        13594           0.0000000000
     40783     13595  TIP3      OH2           -43.5407166405       46.5800977139      -11.2027696465  W2        13595           0.0000000000
     40784     13595  TIP3      H1            -43.9496866405       47.3949577139      -11.4942896465  W2        13595           0.0000000000
     40785     13595  TIP3      H2            -42.8200966405       46.4401077139      -11.8170596465  W2        13595           0.0000000000
     40786     13596  TIP3      OH2           -44.4385566405       46.7557377139        0.2853003535  W2        13596           0.0000000000
     40787     13596  TIP3      H1            -45.0011766405       46.0508977139        0.6060803535  W2        13596           0.0000000000
     40788     13596  TIP3      H2            -43.6122166405       46.6349277139        0.7530603535  W2        13596           0.0000000000
     40789     13597  TIP3      OH2           -42.5359466405       46.0261377139       -8.3887996465  W2        13597           0.0000000000
     40790     13597  TIP3      H1            -42.7314966405       46.6318177139       -9.1037396465  W2        13597           0.0000000000
     40791     13597  TIP3      H2            -42.3546866405       45.1926577139       -8.8231696465  W2        13597           0.0000000000
     40792     13598  TIP3      OH2           -51.3231266405       46.2634077139       -3.0646496465  W2        13598           0.0000000000
     40793     13598  TIP3      H1            -51.3611866405       46.6635677139       -2.1959396465  W2        13598           0.0000000000
     40794     13598  TIP3      H2            -51.8140166405       45.4466477139       -2.9743596465  W2        13598           0.0000000000
     40795     13599  TIP3      OH2           -47.9573866405       43.6376377139      -16.2660496465  W2        13599           0.0000000000
     40796     13599  TIP3      H1            -48.3883166405       43.1926477139      -15.5363096465  W2        13599           0.0000000000
     40797     13599  TIP3      H2            -48.6755166405       44.0092677139      -16.7782996465  W2        13599           0.0000000000
     40798     13600  TIP3      OH2           -54.7150466405       43.3795877139       -9.2141796465  W2        13600           0.0000000000
     40799     13600  TIP3      H1            -54.0842766405       43.3507977139       -8.4947896465  W2        13600           0.0000000000
     40800     13600  TIP3      H2            -54.2656166405       42.9544577139       -9.9445896465  W2        13600           0.0000000000
     40801     13601  TIP3      OH2           -53.4408366405       44.1257877139      -13.7901396465  W2        13601           0.0000000000
     40802     13601  TIP3      H1            -52.9666666405       44.7167777139      -14.3750496465  W2        13601           0.0000000000
     40803     13601  TIP3      H2            -54.1581966405       44.6560777139      -13.4431296465  W2        13601           0.0000000000
     40804     13602  TIP3      OH2           -43.2720266405       47.6642677139       -3.7175596465  W2        13602           0.0000000000
     40805     13602  TIP3      H1            -42.9485466405       47.0332377139       -4.3605096465  W2        13602           0.0000000000
     40806     13602  TIP3      H2            -43.7120966405       47.1294877139       -3.0568196465  W2        13602           0.0000000000
     40807     13603  TIP3      OH2           -46.4947366405       43.5918177139       -8.9334396465  W2        13603           0.0000000000
     40808     13603  TIP3      H1            -47.4056266405       43.6484977139       -8.6448396465  W2        13603           0.0000000000
     40809     13603  TIP3      H2            -45.9894466405       43.5313677139       -8.1227196465  W2        13603           0.0000000000
     40810     13604  TIP3      OH2           -51.6663966405       45.2204477139      -10.1066796465  W2        13604           0.0000000000
     40811     13604  TIP3      H1            -52.5555966405       45.3199977139      -10.4467196465  W2        13604           0.0000000000
     40812     13604  TIP3      H2            -51.3699066405       44.3787477139      -10.4528896465  W2        13604           0.0000000000
     40813     13605  TIP3      OH2           -48.0132166405       45.2207077139      -12.4502196465  W2        13605           0.0000000000
     40814     13605  TIP3      H1            -47.0816666405       45.3497077139      -12.2719096465  W2        13605           0.0000000000
     40815     13605  TIP3      H2            -48.2281866405       45.8901377139      -13.0997496465  W2        13605           0.0000000000
     40816     13606  TIP3      OH2           -42.0895466405       42.8264477139       -5.6692596465  W2        13606           0.0000000000
     40817     13606  TIP3      H1            -42.7663866405       42.9577577139       -5.0052896465  W2        13606           0.0000000000
     40818     13606  TIP3      H2            -42.5750566405       42.6713977139       -6.4794896465  W2        13606           0.0000000000
     40819     13607  TIP3      OH2           -49.3391966405       46.4149277139      -14.8836096465  W2        13607           0.0000000000
     40820     13607  TIP3      H1            -49.8816866405       46.0353077139      -15.5748496465  W2        13607           0.0000000000
     40821     13607  TIP3      H2            -48.5057066405       46.6093977139      -15.3121996465  W2        13607           0.0000000000
     40822     13608  TIP3      OH2           -51.2040566405       50.9721177139        0.2155503535  W2        13608           0.0000000000
     40823     13608  TIP3      H1            -50.4718166405       51.2267077139        0.7770003535  W2        13608           0.0000000000
     40824     13608  TIP3      H2            -51.9841866405       51.1766577139        0.7310903535  W2        13608           0.0000000000
     40825     13609  TIP3      OH2           -45.1747666405       46.3791177139       -7.0464796465  W2        13609           0.0000000000
     40826     13609  TIP3      H1            -44.6104266405       45.8327777139       -7.5935196465  W2        13609           0.0000000000
     40827     13609  TIP3      H2            -45.3224266405       45.8573077139       -6.2577196465  W2        13609           0.0000000000
     40828     13610  TIP3      OH2           -50.1727966405       42.5157277139      -10.6279996465  W2        13610           0.0000000000
     40829     13610  TIP3      H1            -50.4898466405       41.6132577139      -10.6634596465  W2        13610           0.0000000000
     40830     13610  TIP3      H2            -49.3913866405       42.5174677139      -11.1808396465  W2        13610           0.0000000000
     40831     13611  TIP3      OH2           -46.5481766405       44.7677277139       -4.6324396465  W2        13611           0.0000000000
     40832     13611  TIP3      H1            -47.3836466405       45.2216777139       -4.5221996465  W2        13611           0.0000000000
     40833     13611  TIP3      H2            -46.0241166405       45.0435777139       -3.8804496465  W2        13611           0.0000000000
     40834     13612  TIP3      OH2           -46.0039166405       50.9804977139      -12.9477996465  W2        13612           0.0000000000
     40835     13612  TIP3      H1            -46.7488166405       50.4730277139      -13.2700096465  W2        13612           0.0000000000
     40836     13612  TIP3      H2            -46.1381966405       51.0292977139      -12.0013196465  W2        13612           0.0000000000
     40837     13613  TIP3      OH2           -38.8540266405       50.1133177139       -4.1610396465  W2        13613           0.0000000000
     40838     13613  TIP3      H1            -38.2121466405       50.5699477139       -4.7048196465  W2        13613           0.0000000000
     40839     13613  TIP3      H2            -39.6843366405       50.2265577139       -4.6236296465  W2        13613           0.0000000000
     40840     13614  TIP3      OH2           -42.1062366405       43.7944877139      -14.7485396465  W2        13614           0.0000000000
     40841     13614  TIP3      H1            -43.0448166405       43.9060477139      -14.8996596465  W2        13614           0.0000000000
     40842     13614  TIP3      H2            -41.8090266405       44.6511777139      -14.4419696465  W2        13614           0.0000000000
     40843     13615  TIP3      OH2           -44.4847066405       51.1648277139       -1.7108896465  W2        13615           0.0000000000
     40844     13615  TIP3      H1            -44.8300966405       50.7830677139       -0.9039296465  W2        13615           0.0000000000
     40845     13615  TIP3      H2            -44.6846966405       52.0981877139       -1.6395996465  W2        13615           0.0000000000
     40846     13616  TIP3      OH2           -41.3878866405       45.6617577139      -13.0877996465  W2        13616           0.0000000000
     40847     13616  TIP3      H1            -40.4959866405       45.5242577139      -12.7686796465  W2        13616           0.0000000000
     40848     13616  TIP3      H2            -41.3315266405       46.4523677139      -13.6244496465  W2        13616           0.0000000000
     40849     13617  TIP3      OH2           -50.8790866405       50.2754977139       -7.1780096465  W2        13617           0.0000000000
     40850     13617  TIP3      H1            -50.1343666405       50.2730677139       -7.7793596465  W2        13617           0.0000000000
     40851     13617  TIP3      H2            -50.8014266405       49.4518777139       -6.6964996465  W2        13617           0.0000000000
     40852     13618  TIP3      OH2           -43.8785066405       52.4389277139      -13.9223396465  W2        13618           0.0000000000
     40853     13618  TIP3      H1            -44.1736666405       53.2657177139      -13.5408596465  W2        13618           0.0000000000
     40854     13618  TIP3      H2            -44.5815066405       51.8196177139      -13.7261996465  W2        13618           0.0000000000
     40855     13619  TIP3      OH2           -53.8711166405       48.7361877139       -1.8631596465  W2        13619           0.0000000000
     40856     13619  TIP3      H1            -53.6482566405       48.3181477139       -1.0314096465  W2        13619           0.0000000000
     40857     13619  TIP3      H2            -54.4731066405       48.1236877139       -2.2858796465  W2        13619           0.0000000000
     40858     13620  TIP3      OH2           -46.8546266405       48.2531777139        0.3498103535  W2        13620           0.0000000000
     40859     13620  TIP3      H1            -47.1505466405       48.0874777139       -0.5452796465  W2        13620           0.0000000000
     40860     13620  TIP3      H2            -45.9231066405       48.0332077139        0.3392003535  W2        13620           0.0000000000
     40861     13621  TIP3      OH2           -42.2343466405       53.6263777139       -1.7603896465  W2        13621           0.0000000000
     40862     13621  TIP3      H1            -43.1349166405       53.8096377139       -2.0279996465  W2        13621           0.0000000000
     40863     13621  TIP3      H2            -42.2002366405       53.8853077139       -0.8395096465  W2        13621           0.0000000000
     40864     13622  TIP3      OH2           -36.5030166405       45.8711677139      -13.3931296465  W2        13622           0.0000000000
     40865     13622  TIP3      H1            -37.0573866405       45.4749677139      -14.0653796465  W2        13622           0.0000000000
     40866     13622  TIP3      H2            -36.4026566405       46.7816877139      -13.6707996465  W2        13622           0.0000000000
     40867     13623  TIP3      OH2           -36.5398166405       51.6713377139       -0.5559796465  W2        13623           0.0000000000
     40868     13623  TIP3      H1            -37.3909666405       51.9097177139       -0.9233396465  W2        13623           0.0000000000
     40869     13623  TIP3      H2            -35.9494766405       51.6546577139       -1.3092696465  W2        13623           0.0000000000
     40870     13624  TIP3      OH2           -38.2078466405       54.6572077139      -12.9279196465  W2        13624           0.0000000000
     40871     13624  TIP3      H1            -38.5807366405       53.8315877139      -12.6188596465  W2        13624           0.0000000000
     40872     13624  TIP3      H2            -37.9304966405       54.4741477139      -13.8255796465  W2        13624           0.0000000000
     40873     13625  TIP3      OH2           -41.0474566405       49.4651577139       -5.9067296465  W2        13625           0.0000000000
     40874     13625  TIP3      H1            -41.9757666405       49.2333477139       -5.9337996465  W2        13625           0.0000000000
     40875     13625  TIP3      H2            -40.5963466405       48.6881377139       -6.2368496465  W2        13625           0.0000000000
     40876     13626  TIP3      OH2           -48.5041466405       53.7933177139       -9.7738596465  W2        13626           0.0000000000
     40877     13626  TIP3      H1            -47.9769266405       54.5667577139       -9.9739796465  W2        13626           0.0000000000
     40878     13626  TIP3      H2            -49.3842966405       54.0182377139      -10.0754596465  W2        13626           0.0000000000
     40879     13627  TIP3      OH2           -52.7493766405       48.6557277139      -15.1866196465  W2        13627           0.0000000000
     40880     13627  TIP3      H1            -52.1333866405       49.2824477139      -14.8071396465  W2        13627           0.0000000000
     40881     13627  TIP3      H2            -53.6111166405       48.9717077139      -14.9149696465  W2        13627           0.0000000000
     40882     13628  TIP3      OH2           -47.0769166405       51.4563077139      -10.1974296465  W2        13628           0.0000000000
     40883     13628  TIP3      H1            -47.3179166405       52.3817477139      -10.1558996465  W2        13628           0.0000000000
     40884     13628  TIP3      H2            -47.8175566405       50.9974377139       -9.8010396465  W2        13628           0.0000000000
     40885     13629  TIP3      OH2           -43.0181766405       51.7047377139       -4.1817596465  W2        13629           0.0000000000
     40886     13629  TIP3      H1            -43.4440466405       51.4769077139       -3.3553596465  W2        13629           0.0000000000
     40887     13629  TIP3      H2            -42.4375966405       50.9659177139       -4.3642296465  W2        13629           0.0000000000
     40888     13630  TIP3      OH2           -40.8152866405       52.6337877139      -15.1078596465  W2        13630           0.0000000000
     40889     13630  TIP3      H1            -40.4619766405       52.2537677139      -14.3035096465  W2        13630           0.0000000000
     40890     13630  TIP3      H2            -41.7639366405       52.5402677139      -15.0209296465  W2        13630           0.0000000000
     40891     13631  TIP3      OH2           -52.2371666405       43.4894577139       -2.3050196465  W2        13631           0.0000000000
     40892     13631  TIP3      H1            -53.1299366405       43.8279977139       -2.3726196465  W2        13631           0.0000000000
     40893     13631  TIP3      H2            -52.3358866405       42.6340677139       -1.8869396465  W2        13631           0.0000000000
     40894     13632  TIP3      OH2           -39.9493566405       51.3059877139      -12.8810696465  W2        13632           0.0000000000
     40895     13632  TIP3      H1            -40.2265966405       50.5779177139      -12.3249596465  W2        13632           0.0000000000
     40896     13632  TIP3      H2            -39.0220566405       51.4251877139      -12.6758096465  W2        13632           0.0000000000
     40897     13633  TIP3      OH2           -46.7245066405       53.7453977139      -16.6608596465  W2        13633           0.0000000000
     40898     13633  TIP3      H1            -46.4855266405       52.9972077139      -17.2079696465  W2        13633           0.0000000000
     40899     13633  TIP3      H2            -46.9933766405       53.3575677139      -15.8280796465  W2        13633           0.0000000000
     40900     13634  TIP3      OH2           -47.7874466405       53.3157777139      -14.2045996465  W2        13634           0.0000000000
     40901     13634  TIP3      H1            -47.6406466405       52.7957577139      -13.4145096465  W2        13634           0.0000000000
     40902     13634  TIP3      H2            -47.7902766405       54.2225377139      -13.8980096465  W2        13634           0.0000000000
     40903     13635  TIP3      OH2           -51.3343366405       50.5681077139      -13.6940596465  W2        13635           0.0000000000
     40904     13635  TIP3      H1            -52.0204066405       50.9203577139      -13.1270896465  W2        13635           0.0000000000
     40905     13635  TIP3      H2            -50.8115466405       51.3310677139      -13.9406296465  W2        13635           0.0000000000
     40906     13636  TIP3      OH2           -43.5028266405       43.2304877139       -3.4151596465  W2        13636           0.0000000000
     40907     13636  TIP3      H1            -42.8040366405       43.3043577139       -2.7651896465  W2        13636           0.0000000000
     40908     13636  TIP3      H2            -43.8836866405       42.3659877139       -3.2608696465  W2        13636           0.0000000000
     40909     13637  TIP3      OH2           -42.7183366405       42.8826577139      -12.3179296465  W2        13637           0.0000000000
     40910     13637  TIP3      H1            -42.4985066405       43.3541977139      -13.1213896465  W2        13637           0.0000000000
     40911     13637  TIP3      H2            -42.1599366405       43.2769177139      -11.6478696465  W2        13637           0.0000000000
     40912     13638  TIP3      OH2           -45.5183466405       44.6105377139      -11.4830896465  W2        13638           0.0000000000
     40913     13638  TIP3      H1            -44.7060866405       45.1148577139      -11.4369196465  W2        13638           0.0000000000
     40914     13638  TIP3      H2            -45.7630466405       44.4655077139      -10.5691296465  W2        13638           0.0000000000
     40915     13639  TIP3      OH2           -44.9827066405       45.5968077139       -2.2984296465  W2        13639           0.0000000000
     40916     13639  TIP3      H1            -44.8636766405       46.1703477139       -1.5413896465  W2        13639           0.0000000000
     40917     13639  TIP3      H2            -44.3272466405       44.9087477139       -2.1836496465  W2        13639           0.0000000000
     40918     13640  TIP3      OH2           -44.6346766405       41.6918377139      -10.5449796465  W2        13640           0.0000000000
     40919     13640  TIP3      H1            -44.9813266405       42.3088977139       -9.9005496465  W2        13640           0.0000000000
     40920     13640  TIP3      H2            -43.9759866405       42.1924077139      -11.0264296465  W2        13640           0.0000000000
     40921     13641  TIP3      OH2           -48.9769766405       42.7547777139      -13.8577296465  W2        13641           0.0000000000
     40922     13641  TIP3      H1            -49.0604966405       43.6430877139      -13.5110896465  W2        13641           0.0000000000
     40923     13641  TIP3      H2            -48.0869466405       42.4894477139      -13.6260496465  W2        13641           0.0000000000
     40924     13642  TIP3      OH2           -38.7781266405       43.5038377139       -1.4634596465  W2        13642           0.0000000000
     40925     13642  TIP3      H1            -39.6945466405       43.7660077139       -1.5510896465  W2        13642           0.0000000000
     40926     13642  TIP3      H2            -38.4426266405       43.5007377139       -2.3599296465  W2        13642           0.0000000000
     40927     13643  TIP3      OH2           -40.1760266405       47.2539377139       -7.3677296465  W2        13643           0.0000000000
     40928     13643  TIP3      H1            -40.9735866405       46.8389577139       -7.6962296465  W2        13643           0.0000000000
     40929     13643  TIP3      H2            -39.7309166405       46.5633077139       -6.8766796465  W2        13643           0.0000000000
     40930     13644  TIP3      OH2           -50.7184466405       53.1819977139      -14.7972796465  W2        13644           0.0000000000
     40931     13644  TIP3      H1            -50.1262966405       53.8814777139      -14.5210396465  W2        13644           0.0000000000
     40932     13644  TIP3      H2            -50.2591466405       52.7489477139      -15.5168196465  W2        13644           0.0000000000
     40933     13645  TIP3      OH2           -52.4025266405       45.8462977139      -15.6813396465  W2        13645           0.0000000000
     40934     13645  TIP3      H1            -52.4472666405       46.7856077139      -15.5026396465  W2        13645           0.0000000000
     40935     13645  TIP3      H2            -53.2902066405       45.6107877139      -15.9511296465  W2        13645           0.0000000000
     40936     13646  TIP3      OH2           -51.5943266405       40.6279577139       -7.0082396465  W2        13646           0.0000000000
     40937     13646  TIP3      H1            -51.8233466405       40.6872077139       -7.9357396465  W2        13646           0.0000000000
     40938     13646  TIP3      H2            -52.0369866405       39.8365077139       -6.7018296465  W2        13646           0.0000000000
     40939     13647  TIP3      OH2           -52.6639966405       54.5686677139      -10.8476596465  W2        13647           0.0000000000
     40940     13647  TIP3      H1            -53.4961366405       55.0409377139      -10.8205196465  W2        13647           0.0000000000
     40941     13647  TIP3      H2            -52.1181666405       55.0784277139      -11.4463496465  W2        13647           0.0000000000
     40942     13648  TIP3      OH2           -42.2014166405       54.4805877139        0.8317103535  W2        13648           0.0000000000
     40943     13648  TIP3      H1            -42.5524666405       53.6238877139        1.0747503535  W2        13648           0.0000000000
     40944     13648  TIP3      H2            -41.4750966405       54.6232577139        1.4386103535  W2        13648           0.0000000000
     40945     13649  TIP3      OH2           -53.4686766405       50.9914477139        1.4365703535  W2        13649           0.0000000000
     40946     13649  TIP3      H1            -53.3246266405       50.0895177139        1.1502403535  W2        13649           0.0000000000
     40947     13649  TIP3      H2            -54.2409366405       51.2776577139        0.9488003535  W2        13649           0.0000000000
     40948     13650  TIP3      OH2           -49.1273066405       51.3350177139      -16.4309696465  W2        13650           0.0000000000
     40949     13650  TIP3      H1            -49.0628966405       50.5409777139      -15.9003296465  W2        13650           0.0000000000
     40950     13650  TIP3      H2            -48.4743866405       51.2162977139      -17.1207696465  W2        13650           0.0000000000
     40951     13651  TIP3      OH2           -46.8130666405       50.9612577139        0.8692103535  W2        13651           0.0000000000
     40952     13651  TIP3      H1            -47.1416866405       51.2320677139        0.0119503535  W2        13651           0.0000000000
     40953     13651  TIP3      H2            -46.6612466405       50.0202377139        0.7817103535  W2        13651           0.0000000000
     40954     13652  TIP3      OH2           -43.7749666405       52.3821877139      -16.6951696465  W2        13652           0.0000000000
     40955     13652  TIP3      H1            -44.0435566405       52.5623977139      -15.7942796465  W2        13652           0.0000000000
     40956     13652  TIP3      H2            -43.9814066405       51.4568077139      -16.8265896465  W2        13652           0.0000000000
     40957     13653  TIP3      OH2           -41.0785466405       50.8769877139       -1.7475596465  W2        13653           0.0000000000
     40958     13653  TIP3      H1            -40.3330666405       51.4653577139       -1.8671596465  W2        13653           0.0000000000
     40959     13653  TIP3      H2            -41.8358666405       51.4589577139       -1.6842496465  W2        13653           0.0000000000
     40960     13654  TIP3      OH2           -52.6360266405       48.1917777139        0.8565003535  W2        13654           0.0000000000
     40961     13654  TIP3      H1            -52.2279066405       47.3344377139        0.7355603535  W2        13654           0.0000000000
     40962     13654  TIP3      H2            -52.8962666405       48.2059077139        1.7775303535  W2        13654           0.0000000000
     40963     13655  TIP3      OH2           -47.9779266405       49.3076377139      -14.1251696465  W2        13655           0.0000000000
     40964     13655  TIP3      H1            -48.4377266405       48.8234677139      -13.4393196465  W2        13655           0.0000000000
     40965     13655  TIP3      H2            -47.7230566405       48.6391777139      -14.7611196465  W2        13655           0.0000000000
     40966     13656  TIP3      OH2           -48.6889966405       47.2003477139       -1.7692096465  W2        13656           0.0000000000
     40967     13656  TIP3      H1            -49.3073866405       47.8750077139       -1.4887396465  W2        13656           0.0000000000
     40968     13656  TIP3      H2            -48.3448766405       47.5217377139       -2.6025896465  W2        13656           0.0000000000
     40969     13657  TIP3      OH2           -46.9068866405       47.5508177139      -15.8628496465  W2        13657           0.0000000000
     40970     13657  TIP3      H1            -47.0873866405       47.3959377139      -16.7900196465  W2        13657           0.0000000000
     40971     13657  TIP3      H2            -45.9568366405       47.6586877139      -15.8180596465  W2        13657           0.0000000000
     40972     13658  TIP3      OH2           -43.6691766405       49.6718777139        1.5082703535  W2        13658           0.0000000000
     40973     13658  TIP3      H1            -42.7160566405       49.7557877139        1.4808703535  W2        13658           0.0000000000
     40974     13658  TIP3      H2            -43.8297166405       48.9600577139        2.1277603535  W2        13658           0.0000000000
     40975     13659  TIP3      OH2           -37.5170566405       49.9052377139      -16.4170396465  W2        13659           0.0000000000
     40976     13659  TIP3      H1            -37.7905766405       49.4807877139      -17.2302096465  W2        13659           0.0000000000
     40977     13659  TIP3      H2            -37.4776466405       50.8366877139      -16.6339996465  W2        13659           0.0000000000
     40978     13660  TIP3      OH2           -48.3496266405       44.5554277139       -0.6868996465  W2        13660           0.0000000000
     40979     13660  TIP3      H1            -48.1995366405       43.8265577139       -1.2889296465  W2        13660           0.0000000000
     40980     13660  TIP3      H2            -48.3473866405       45.3325977139       -1.2456796465  W2        13660           0.0000000000
     40981     13661  TIP3      OH2           -47.9370566405       42.9250077139       -3.1941596465  W2        13661           0.0000000000
     40982     13661  TIP3      H1            -47.4013066405       43.3766777139       -3.8462296465  W2        13661           0.0000000000
     40983     13661  TIP3      H2            -48.7890966405       42.8169877139       -3.6167496465  W2        13661           0.0000000000
     40984     13662  TIP3      OH2           -46.3552166405       48.3646277139       -2.9546396465  W2        13662           0.0000000000
     40985     13662  TIP3      H1            -45.6047366405       48.2083777139       -3.5278596465  W2        13662           0.0000000000
     40986     13662  TIP3      H2            -46.6943866405       49.2162877139       -3.2300896465  W2        13662           0.0000000000
     40987     13663  TIP3      OH2           -41.9395966405       46.1798077139        2.0738903535  W2        13663           0.0000000000
     40988     13663  TIP3      H1            -41.7474666405       45.2487477139        1.9623403535  W2        13663           0.0000000000
     40989     13663  TIP3      H2            -41.0819666405       46.6047577139        2.0634303535  W2        13663           0.0000000000
     40990     13664  TIP3      OH2           -40.6228766405       48.9683277139        0.1511603535  W2        13664           0.0000000000
     40991     13664  TIP3      H1            -40.9043766405       49.6777877139       -0.4264596465  W2        13664           0.0000000000
     40992     13664  TIP3      H2            -39.6804466405       48.8956277139        0.0002803535  W2        13664           0.0000000000
     40993     13665  TIP3      OH2           -49.8709966405       45.7537777139        1.2246603535  W2        13665           0.0000000000
     40994     13665  TIP3      H1            -50.6380966405       45.2212577139        1.0144203535  W2        13665           0.0000000000
     40995     13665  TIP3      H2            -49.1920966405       45.4438177139        0.6252903535  W2        13665           0.0000000000
     40996     13666  TIP3      OH2           -47.1315066405       40.3815777139       -2.7627996465  W2        13666           0.0000000000
     40997     13666  TIP3      H1            -47.2295466405       41.3278977139       -2.8681796465  W2        13666           0.0000000000
     40998     13666  TIP3      H2            -47.8738866405       40.0089577139       -3.2384496465  W2        13666           0.0000000000
     40999     13667  TIP3      OH2           -45.8674566405       44.7031177139        0.8010403535  W2        13667           0.0000000000
     41000     13667  TIP3      H1            -46.1029166405       44.4837877139        1.7025303535  W2        13667           0.0000000000
     41001     13667  TIP3      H2            -46.6507666405       44.4962377139        0.2912903535  W2        13667           0.0000000000
     41002     13668  TIP3      OH2           -43.1517966405       43.8304677139       -0.1236096465  W2        13668           0.0000000000
     41003     13668  TIP3      H1            -44.0992566405       43.8624377139        0.0087203535  W2        13668           0.0000000000
     41004     13668  TIP3      H2            -42.8391266405       43.2051777139        0.5302103535  W2        13668           0.0000000000
     41005     13669  TIP3      OH2           -41.5176466405       42.4645777139        1.8815803535  W2        13669           0.0000000000
     41006     13669  TIP3      H1            -41.6144666405       41.5123077139        1.8757703535  W2        13669           0.0000000000
     41007     13669  TIP3      H2            -41.8393366405       42.7332577139        2.7421303535  W2        13669           0.0000000000
     41008     13670  TIP3      OH2           -51.6907166405       43.6741577139        0.9291303535  W2        13670           0.0000000000
     41009     13670  TIP3      H1            -51.4789766405       42.9677677139        0.3188803535  W2        13670           0.0000000000
     41010     13670  TIP3      H2            -51.8019666405       43.2367577139        1.7732503535  W2        13670           0.0000000000
     41011     13671  TIP3      OH2           -46.9096966405       39.6753177139       -0.0915196465  W2        13671           0.0000000000
     41012     13671  TIP3      H1            -46.1978566405       39.0355377139       -0.1056096465  W2        13671           0.0000000000
     41013     13671  TIP3      H2            -47.0106566405       39.9421477139       -1.0052096465  W2        13671           0.0000000000
     41014     13672  TIP3      OH2           -46.5559466405       41.3581577139        1.9621103535  W2        13672           0.0000000000
     41015     13672  TIP3      H1            -46.6877266405       40.8825377139        1.1419603535  W2        13672           0.0000000000
     41016     13672  TIP3      H2            -47.1552066405       42.1025177139        1.9068203535  W2        13672           0.0000000000
     41017     13673  TIP3      OH2           -53.4412266405       52.8775677139      -15.3786796465  W2        13673           0.0000000000
     41018     13673  TIP3      H1            -52.5273066405       52.9564577139      -15.1052896465  W2        13673           0.0000000000
     41019     13673  TIP3      H2            -53.4339166405       52.1905277139      -16.0451196465  W2        13673           0.0000000000
     41020     13674  TIP3      OH2           -38.3597466405       52.5176777139        2.0437503535  W2        13674           0.0000000000
     41021     13674  TIP3      H1            -39.2256366405       52.4126477139        2.4379803535  W2        13674           0.0000000000
     41022     13674  TIP3      H2            -37.9831566405       53.2760077139        2.4902203535  W2        13674           0.0000000000
     41023     13675  TIP3      OH2           -37.0587766405       50.7740477139      -12.4419996465  W2        13675           0.0000000000
     41024     13675  TIP3      H1            -36.2086366405       51.1951377139      -12.3148396465  W2        13675           0.0000000000
     41025     13675  TIP3      H2            -37.0532666405       50.0340577139      -11.8348596465  W2        13675           0.0000000000
     41026     13676  TIP3      OH2           -36.6642166405       48.8277877139      -10.6184296465  W2        13676           0.0000000000
     41027     13676  TIP3      H1            -37.3907566405       48.3480477139      -10.2206696465  W2        13676           0.0000000000
     41028     13676  TIP3      H2            -36.0828866405       49.0332577139       -9.8862696465  W2        13676           0.0000000000
     41029     13677  TIP3      OH2           -36.9050966405       51.6125377139       -5.6706696465  W2        13677           0.0000000000
     41030     13677  TIP3      H1            -36.0716766405       51.2345377139       -5.9513096465  W2        13677           0.0000000000
     41031     13677  TIP3      H2            -36.7930666405       52.5556577139       -5.7897596465  W2        13677           0.0000000000
     41032     13678  TIP3      OH2           -38.4188666405       54.4902877139       -3.3638296465  W2        13678           0.0000000000
     41033     13678  TIP3      H1            -39.0663366405       54.8154377139       -2.7383096465  W2        13678           0.0000000000
     41034     13678  TIP3      H2            -38.9364666405       54.0500577139       -4.0379996465  W2        13678           0.0000000000
     41035     13679  TIP3      OH2           -36.3959066405       48.7286377139      -14.2272996465  W2        13679           0.0000000000
     41036     13679  TIP3      H1            -36.9177966405       49.0850477139      -14.9462096465  W2        13679           0.0000000000
     41037     13679  TIP3      H2            -36.4289866405       49.4034177139      -13.5492096465  W2        13679           0.0000000000
     41038     13680  TIP3      OH2           -38.0470066405       45.9681977139      -15.6765896465  W2        13680           0.0000000000
     41039     13680  TIP3      H1            -37.9505666405       46.6348977139      -16.3566196465  W2        13680           0.0000000000
     41040     13680  TIP3      H2            -38.1870466405       45.1528277139      -16.1580396465  W2        13680           0.0000000000
     41041     13681  TIP3      OH2           -38.8775366405       47.3484377139      -10.0555596465  W2        13681           0.0000000000
     41042     13681  TIP3      H1            -39.0276566405       46.4032977139      -10.0757796465  W2        13681           0.0000000000
     41043     13681  TIP3      H2            -39.2310866405       47.6295777139       -9.2116496465  W2        13681           0.0000000000
     41044     13682  TIP3      OH2           -53.8422966405       49.4266577139       -6.0451796465  W2        13682           0.0000000000
     41045     13682  TIP3      H1            -53.6580066405       49.3448277139       -6.9808896465  W2        13682           0.0000000000
     41046     13682  TIP3      H2            -52.9930066405       49.3023577139       -5.6215396465  W2        13682           0.0000000000
     41047     13683  TIP3      OH2           -38.0212466405       49.3187677139       -0.4167296465  W2        13683           0.0000000000
     41048     13683  TIP3      H1            -37.4385166405       48.5839977139       -0.2250096465  W2        13683           0.0000000000
     41049     13683  TIP3      H2            -37.4573166405       50.0907977139       -0.3701496465  W2        13683           0.0000000000
     41050     13684  TIP3      OH2           -36.5245366405       47.2213477139        0.2678103535  W2        13684           0.0000000000
     41051     13684  TIP3      H1            -37.3878666405       46.8425577139        0.1022803535  W2        13684           0.0000000000
     41052     13684  TIP3      H2            -35.9201666405       46.4828277139        0.1933903535  W2        13684           0.0000000000
     41053     13685  TIP3      OH2           -38.7996266405       43.3761777139      -16.5590396465  W2        13685           0.0000000000
     41054     13685  TIP3      H1            -38.1890466405       43.0048577139      -15.9222196465  W2        13685           0.0000000000
     41055     13685  TIP3      H2            -39.6364766405       42.9548677139      -16.3630396465  W2        13685           0.0000000000
     41056     13686  TIP3      OH2           -39.1670566405       44.9310177139      -11.5930496465  W2        13686           0.0000000000
     41057     13686  TIP3      H1            -38.8873466405       44.0240577139      -11.4688796465  W2        13686           0.0000000000
     41058     13686  TIP3      H2            -38.4078866405       45.3651677139      -11.9821296465  W2        13686           0.0000000000
     41059     13687  TIP3      OH2           -38.5552266405       45.5127577139       -6.1571596465  W2        13687           0.0000000000
     41060     13687  TIP3      H1            -37.6224266405       45.7247477139       -6.1915596465  W2        13687           0.0000000000
     41061     13687  TIP3      H2            -38.7904766405       45.6139677139       -5.2348596465  W2        13687           0.0000000000
     41062     13688  TIP3      OH2           -38.5260366405       46.2492877139       -3.3812196465  W2        13688           0.0000000000
     41063     13688  TIP3      H1            -39.3689066405       46.5173277139       -3.0152396465  W2        13688           0.0000000000
     41064     13688  TIP3      H2            -38.0836066405       47.0714777139       -3.5921096465  W2        13688           0.0000000000
     41065     13689  TIP3      OH2           -54.2448166405       44.6971577139        0.0957003535  W2        13689           0.0000000000
     41066     13689  TIP3      H1            -53.3253266405       44.5749877139        0.3320103535  W2        13689           0.0000000000
     41067     13689  TIP3      H2            -54.6943666405       43.9471277139        0.4850503535  W2        13689           0.0000000000
     41068     13690  TIP3      OH2           -36.2428766405       40.2293077139        1.9722803535  W2        13690           0.0000000000
     41069     13690  TIP3      H1            -35.8931766405       39.5756577139        1.3667503535  W2        13690           0.0000000000
     41070     13690  TIP3      H2            -36.0959266405       41.0667177139        1.5325403535  W2        13690           0.0000000000
     41071     13691  TIP3      OH2           -38.5535766405       42.1939477139      -11.5448496465  W2        13691           0.0000000000
     41072     13691  TIP3      H1            -38.3710766405       41.7450977139      -10.7193496465  W2        13691           0.0000000000
     41073     13691  TIP3      H2            -39.1532866405       41.6093877139      -12.0083896465  W2        13691           0.0000000000
     41074     13692  TIP3      OH2           -53.0235666405       43.0093177139       -7.0130096465  W2        13692           0.0000000000
     41075     13692  TIP3      H1            -52.5784066405       42.2175677139       -6.7110396465  W2        13692           0.0000000000
     41076     13692  TIP3      H2            -52.5572666405       43.7258377139       -6.5824496465  W2        13692           0.0000000000
     41077     13693  TIP3      OH2           -54.7195366405       46.0086177139       -5.9439896465  W2        13693           0.0000000000
     41078     13693  TIP3      H1            -54.2275566405       45.7876677139       -6.7347896465  W2        13693           0.0000000000
     41079     13693  TIP3      H2            -54.3574466405       46.8489577139       -5.6630396465  W2        13693           0.0000000000
     41080     13694  TIP3      OH2           -36.7231566405       42.3387677139        0.3214103535  W2        13694           0.0000000000
     41081     13694  TIP3      H1            -37.6405866405       42.6094777139        0.2857603535  W2        13694           0.0000000000
     41082     13694  TIP3      H2            -36.6002166405       41.8036077139       -0.4626196465  W2        13694           0.0000000000
     41083     13695  TIP3      OH2           -36.6869566405       42.2617577139      -15.0168196465  W2        13695           0.0000000000
     41084     13695  TIP3      H1            -36.2746966405       41.5403277139      -15.4920196465  W2        13695           0.0000000000
     41085     13695  TIP3      H2            -36.0053066405       42.9312177139      -14.9583896465  W2        13695           0.0000000000
     41086     13696  TIP3      OH2           -54.4058866405       42.2665277139      -11.8897496465  W2        13696           0.0000000000
     41087     13696  TIP3      H1            -55.3310466405       42.4751877139      -12.0191996465  W2        13696           0.0000000000
     41088     13696  TIP3      H2            -53.9518966405       42.7506077139      -12.5795196465  W2        13696           0.0000000000
     41089     13697  TIP3      OH2           -54.4423466405       41.0044277139       -3.5454996465  W2        13697           0.0000000000
     41090     13697  TIP3      H1            -55.1072966405       40.7584577139       -2.9024096465  W2        13697           0.0000000000
     41091     13697  TIP3      H2            -54.8852166405       41.6264677139       -4.1226996465  W2        13697           0.0000000000
     41092     13698  TIP3      OH2           -52.2504166405       54.1798377139        0.5990803535  W2        13698           0.0000000000
     41093     13698  TIP3      H1            -53.0711666405       54.3544877139        0.1385503535  W2        13698           0.0000000000
     41094     13698  TIP3      H2            -52.5026366405       54.1063077139        1.5195203535  W2        13698           0.0000000000
     41095     13699  TIP3      OH2           -37.7225666405       40.4283977139       -1.8595096465  W2        13699           0.0000000000
     41096     13699  TIP3      H1            -38.5352166405       40.7534277139       -2.2470396465  W2        13699           0.0000000000
     41097     13699  TIP3      H2            -37.4897166405       39.6682477139       -2.3925996465  W2        13699           0.0000000000
     41098     13700  TIP3      OH2           -44.2927166405       41.8774577139       -7.5366896465  W2        13700           0.0000000000
     41099     13700  TIP3      H1            -44.9670366405       41.2480177139       -7.2811096465  W2        13700           0.0000000000
     41100     13700  TIP3      H2            -43.7287966405       41.3933477139       -8.1398996465  W2        13700           0.0000000000
     41101     13701  TIP3      OH2           -39.1499966405       39.9848577139       -7.4239796465  W2        13701           0.0000000000
     41102     13701  TIP3      H1            -38.5462366405       40.5323977139       -7.9258796465  W2        13701           0.0000000000
     41103     13701  TIP3      H2            -40.0197966405       40.3038977139       -7.6645696465  W2        13701           0.0000000000
     41104     13702  TIP3      OH2           -37.4229566405       41.1237277139       -9.0908896465  W2        13702           0.0000000000
     41105     13702  TIP3      H1            -36.8112066405       40.6092977139       -9.6175296465  W2        13702           0.0000000000
     41106     13702  TIP3      H2            -37.0406166405       42.0009377139       -9.0674496465  W2        13702           0.0000000000
     41107     13703  TIP3      OH2           -51.9659666405       40.5114877139       -9.7146996465  W2        13703           0.0000000000
     41108     13703  TIP3      H1            -52.7429866405       40.2769777139      -10.2221096465  W2        13703           0.0000000000
     41109     13703  TIP3      H2            -51.4356066405       39.7146977139       -9.7058996465  W2        13703           0.0000000000
     41110     13704  TIP3      OH2           -53.1296266405       40.3092977139      -13.9110896465  W2        13704           0.0000000000
     41111     13704  TIP3      H1            -52.6905566405       40.9203477139      -14.5027396465  W2        13704           0.0000000000
     41112     13704  TIP3      H2            -53.7633866405       40.8477077139      -13.4370896465  W2        13704           0.0000000000
     41113     13705  TIP3      OH2           -47.3867066405       40.4381977139       -9.9013896465  W2        13705           0.0000000000
     41114     13705  TIP3      H1            -46.5123666405       40.8266277139       -9.9309596465  W2        13705           0.0000000000
     41115     13705  TIP3      H2            -47.5226266405       40.2229777139       -8.9786696465  W2        13705           0.0000000000
     41116     13706  TIP3      OH2           -41.8298666405       40.4681777139       -8.2522196465  W2        13706           0.0000000000
     41117     13706  TIP3      H1            -41.7537066405       40.5633377139       -9.2016196465  W2        13706           0.0000000000
     41118     13706  TIP3      H2            -42.1049466405       39.5604677139       -8.1233096465  W2        13706           0.0000000000
     41119     13707  TIP3      OH2           -40.4766066405       40.4939577139      -12.5597196465  W2        13707           0.0000000000
     41120     13707  TIP3      H1            -41.1794966405       41.1088777139      -12.7695796465  W2        13707           0.0000000000
     41121     13707  TIP3      H2            -40.9214666405       39.6566277139      -12.4286296465  W2        13707           0.0000000000
     41122     13708  TIP3      OH2           -51.2687166405       42.2254477139      -15.4686796465  W2        13708           0.0000000000
     41123     13708  TIP3      H1            -50.7773766405       41.5956877139      -15.9961296465  W2        13708           0.0000000000
     41124     13708  TIP3      H2            -50.6450866405       42.5213877139      -14.8055596465  W2        13708           0.0000000000
     41125     13709  TIP3      OH2           -46.2427066405       42.5185977139      -13.0116296465  W2        13709           0.0000000000
     41126     13709  TIP3      H1            -46.0645766405       41.8719177139      -12.3287696465  W2        13709           0.0000000000
     41127     13709  TIP3      H2            -46.2960866405       43.3523677139      -12.5445196465  W2        13709           0.0000000000
     41128     13710  TIP3      OH2           -52.0081666405       41.0256777139       -0.1970796465  W2        13710           0.0000000000
     41129     13710  TIP3      H1            -52.3743466405       40.2599377139        0.2453903535  W2        13710           0.0000000000
     41130     13710  TIP3      H2            -51.0953166405       41.0546977139        0.0894303535  W2        13710           0.0000000000
     41131     13711  TIP3      OH2           -50.0350866405       40.3761177139        1.3386303535  W2        13711           0.0000000000
     41132     13711  TIP3      H1            -49.1367266405       40.1021377139        1.1539703535  W2        13711           0.0000000000
     41133     13711  TIP3      H2            -50.4217766405       39.6337177139        1.8028903535  W2        13711           0.0000000000
     41134     13712  TIP3      OH2           -41.6138566405       39.7086477139        1.5209103535  W2        13712           0.0000000000
     41135     13712  TIP3      H1            -41.5371366405       39.2827177139        2.3746803535  W2        13712           0.0000000000
     41136     13712  TIP3      H2            -40.7201966405       39.7221177139        1.1782603535  W2        13712           0.0000000000
     41137     13713  TIP3      OH2           -24.0317066405       49.6677177139       -9.7559496465  W2        13713           0.0000000000
     41138     13713  TIP3      H1            -23.9425966405       50.6115377139       -9.8882396465  W2        13713           0.0000000000
     41139     13713  TIP3      H2            -24.6699466405       49.3923577139      -10.4140096465  W2        13713           0.0000000000
     41140     13714  TIP3      OH2           -25.0985766405       48.9227877139       -6.3371296465  W2        13714           0.0000000000
     41141     13714  TIP3      H1            -25.1368266405       48.2764177139       -5.6321696465  W2        13714           0.0000000000
     41142     13714  TIP3      H2            -25.4209266405       48.4562277139       -7.1082596465  W2        13714           0.0000000000
     41143     13715  TIP3      OH2           -32.7300766405       48.5369977139       -4.7441396465  W2        13715           0.0000000000
     41144     13715  TIP3      H1            -32.6888666405       47.9113277139       -4.0208996465  W2        13715           0.0000000000
     41145     13715  TIP3      H2            -32.0273066405       49.1608577139       -4.5620996465  W2        13715           0.0000000000
     41146     13716  TIP3      OH2           -21.3925566405       51.8618277139       -8.0356196465  W2        13716           0.0000000000
     41147     13716  TIP3      H1            -21.8332866405       51.1414277139       -7.5850596465  W2        13716           0.0000000000
     41148     13716  TIP3      H2            -21.4055866405       52.5825477139       -7.4058496465  W2        13716           0.0000000000
     41149     13717  TIP3      OH2           -31.8067666405       52.9868877139       -6.2092296465  W2        13717           0.0000000000
     41150     13717  TIP3      H1            -32.1762466405       52.1849377139       -6.5787996465  W2        13717           0.0000000000
     41151     13717  TIP3      H2            -30.8656566405       52.8183777139       -6.1628896465  W2        13717           0.0000000000
     41152     13718  TIP3      OH2           -35.1967166405       46.6471477139      -10.8163496465  W2        13718           0.0000000000
     41153     13718  TIP3      H1            -35.6443766405       47.4930177139      -10.8346996465  W2        13718           0.0000000000
     41154     13718  TIP3      H2            -35.7575966405       46.0675677139      -11.3318396465  W2        13718           0.0000000000
     41155     13719  TIP3      OH2           -34.4861066405       48.8091077139       -8.6905496465  W2        13719           0.0000000000
     41156     13719  TIP3      H1            -34.2727566405       48.0392677139       -8.1632496465  W2        13719           0.0000000000
     41157     13719  TIP3      H2            -33.7483466405       48.8987777139       -9.2937896465  W2        13719           0.0000000000
     41158     13720  TIP3      OH2           -26.7091366405       51.3549277139       -5.9310296465  W2        13720           0.0000000000
     41159     13720  TIP3      H1            -26.4053466405       50.6690677139       -6.5256196465  W2        13720           0.0000000000
     41160     13720  TIP3      H2            -25.9877366405       51.4737977139       -5.3132296465  W2        13720           0.0000000000
     41161     13721  TIP3      OH2           -18.0461566405       42.9564577139       -5.0704096465  W2        13721           0.0000000000
     41162     13721  TIP3      H1            -17.9969366405       43.5665777139       -4.3344996465  W2        13721           0.0000000000
     41163     13721  TIP3      H2            -17.6206466405       43.4175477139       -5.7932996465  W2        13721           0.0000000000
     41164     13722  TIP3      OH2           -23.5684366405       45.7491677139       -5.6035496465  W2        13722           0.0000000000
     41165     13722  TIP3      H1            -23.4258466405       44.8028677139       -5.5833896465  W2        13722           0.0000000000
     41166     13722  TIP3      H2            -23.6745366405       45.9561477139       -6.5320596465  W2        13722           0.0000000000
     41167     13723  TIP3      OH2           -30.4136066405       43.8508077139       -8.3310696465  W2        13723           0.0000000000
     41168     13723  TIP3      H1            -30.3704966405       44.7106577139       -8.7494396465  W2        13723           0.0000000000
     41169     13723  TIP3      H2            -30.8711966405       43.2982777139       -8.9647496465  W2        13723           0.0000000000
     41170     13724  TIP3      OH2           -22.6913366405       43.9813677139       -9.9302396465  W2        13724           0.0000000000
     41171     13724  TIP3      H1            -22.0449066405       43.6526877139       -9.3054796465  W2        13724           0.0000000000
     41172     13724  TIP3      H2            -22.1813966405       44.4992677139      -10.5530996465  W2        13724           0.0000000000
     41173     13725  TIP3      OH2           -33.7934566405       46.2473877139       -7.5689296465  W2        13725           0.0000000000
     41174     13725  TIP3      H1            -33.1397966405       45.6975577139       -7.1369196465  W2        13725           0.0000000000
     41175     13725  TIP3      H2            -33.7695266405       45.9732877139       -8.4857296465  W2        13725           0.0000000000
     41176     13726  TIP3      OH2           -28.6370066405       47.7975177139       -8.3537796465  W2        13726           0.0000000000
     41177     13726  TIP3      H1            -28.0209066405       47.2710577139       -7.8443796465  W2        13726           0.0000000000
     41178     13726  TIP3      H2            -29.2231266405       47.1573877139       -8.7574196465  W2        13726           0.0000000000
     41179     13727  TIP3      OH2           -17.6546966405       44.4343777139       -2.8344296465  W2        13727           0.0000000000
     41180     13727  TIP3      H1            -18.3432366405       45.0924477139       -2.9297696465  W2        13727           0.0000000000
     41181     13727  TIP3      H2            -17.6392366405       44.2371677139       -1.8978896465  W2        13727           0.0000000000
     41182     13728  TIP3      OH2           -31.6034166405       42.7686477139       -4.2569896465  W2        13728           0.0000000000
     41183     13728  TIP3      H1            -31.8222466405       43.2987077139       -5.0233896465  W2        13728           0.0000000000
     41184     13728  TIP3      H2            -32.2713266405       42.9951977139       -3.6098496465  W2        13728           0.0000000000
     41185     13729  TIP3      OH2           -24.2344366405       52.2687577139      -10.7130796465  W2        13729           0.0000000000
     41186     13729  TIP3      H1            -24.5299266405       51.9459877139      -11.5643896465  W2        13729           0.0000000000
     41187     13729  TIP3      H2            -24.5586566405       53.1684277139      -10.6718196465  W2        13729           0.0000000000
     41188     13730  TIP3      OH2           -29.0342766405       50.4442177139       -3.9696196465  W2        13730           0.0000000000
     41189     13730  TIP3      H1            -29.7743666405       51.0423677139       -3.8660996465  W2        13730           0.0000000000
     41190     13730  TIP3      H2            -28.3203266405       50.9981777139       -4.2852596465  W2        13730           0.0000000000
     41191     13731  TIP3      OH2           -20.9274966405       43.2722977139       -7.9496496465  W2        13731           0.0000000000
     41192     13731  TIP3      H1            -21.1426966405       42.5066377139       -7.4170496465  W2        13731           0.0000000000
     41193     13731  TIP3      H2            -20.2717566405       43.7447577139       -7.4367996465  W2        13731           0.0000000000
     41194     13732  TIP3      OH2           -32.0096866405       44.6608277139       -6.3047696465  W2        13732           0.0000000000
     41195     13732  TIP3      H1            -31.3960566405       45.2935877139       -5.9315296465  W2        13732           0.0000000000
     41196     13732  TIP3      H2            -31.4976166405       44.1883277139       -6.9610796465  W2        13732           0.0000000000
     41197     13733  TIP3      OH2           -30.6268466405       52.4085177139       -3.1824696465  W2        13733           0.0000000000
     41198     13733  TIP3      H1            -30.6320866405       53.2878677139       -3.5605396465  W2        13733           0.0000000000
     41199     13733  TIP3      H2            -31.4804366405       52.3249277139       -2.7574796465  W2        13733           0.0000000000
     41200     13734  TIP3      OH2           -34.5057566405       52.0793077139      -12.4005396465  W2        13734           0.0000000000
     41201     13734  TIP3      H1            -34.7776666405       52.3084077139      -13.2892496465  W2        13734           0.0000000000
     41202     13734  TIP3      H2            -34.4601866405       52.9171877139      -11.9400096465  W2        13734           0.0000000000
     41203     13735  TIP3      OH2           -20.8807866405       53.7008977139       -5.6876896465  W2        13735           0.0000000000
     41204     13735  TIP3      H1            -21.8224166405       53.7592877139       -5.5259996465  W2        13735           0.0000000000
     41205     13735  TIP3      H2            -20.6041766405       54.6069477139       -5.8247196465  W2        13735           0.0000000000
     41206     13736  TIP3      OH2           -20.5800866405       41.9874277139       -4.2702996465  W2        13736           0.0000000000
     41207     13736  TIP3      H1            -21.3161666405       42.5981377139       -4.3081696465  W2        13736           0.0000000000
     41208     13736  TIP3      H2            -19.8966866405       42.4023277139       -4.7966596465  W2        13736           0.0000000000
     41209     13737  TIP3      OH2           -27.5769466405       40.0741577139       -6.8044996465  W2        13737           0.0000000000
     41210     13737  TIP3      H1            -27.6945266405       39.1257577139       -6.8586696465  W2        13737           0.0000000000
     41211     13737  TIP3      H2            -28.4319366405       40.4067677139       -6.5313896465  W2        13737           0.0000000000
     41212     13738  TIP3      OH2           -21.4690166405       53.3830977139      -10.5538696465  W2        13738           0.0000000000
     41213     13738  TIP3      H1            -21.7265366405       52.6931077139      -11.1652796465  W2        13738           0.0000000000
     41214     13738  TIP3      H2            -21.3979366405       52.9402177139       -9.7082796465  W2        13738           0.0000000000
     41215     13739  TIP3      OH2           -19.7829966405       51.9497677139       -2.0765196465  W2        13739           0.0000000000
     41216     13739  TIP3      H1            -19.6433666405       51.3580177139       -2.8158196465  W2        13739           0.0000000000
     41217     13739  TIP3      H2            -19.6157166405       52.8223577139       -2.4326396465  W2        13739           0.0000000000
     41218     13740  TIP3      OH2           -25.3104566405       48.9117177139      -12.3039196465  W2        13740           0.0000000000
     41219     13740  TIP3      H1            -26.0219066405       49.4466877139      -12.6558696465  W2        13740           0.0000000000
     41220     13740  TIP3      H2            -24.6194966405       48.9669277139      -12.9640296465  W2        13740           0.0000000000
     41221     13741  TIP3      OH2           -25.2565366405       47.3691477139      -15.2654196465  W2        13741           0.0000000000
     41222     13741  TIP3      H1            -24.5555466405       47.3918377139      -14.6140196465  W2        13741           0.0000000000
     41223     13741  TIP3      H2            -24.9542466405       46.7411177139      -15.9214896465  W2        13741           0.0000000000
     41224     13742  TIP3      OH2           -17.9410666405       48.2895677139       -4.0104796465  W2        13742           0.0000000000
     41225     13742  TIP3      H1            -18.5936566405       48.9841277139       -3.9213896465  W2        13742           0.0000000000
     41226     13742  TIP3      H2            -17.4760366405       48.4996577139       -4.8203196465  W2        13742           0.0000000000
     41227     13743  TIP3      OH2           -21.9046866405       49.1210477139      -11.3523296465  W2        13743           0.0000000000
     41228     13743  TIP3      H1            -22.6365866405       49.3494177139      -10.7792696465  W2        13743           0.0000000000
     41229     13743  TIP3      H2            -21.4574666405       48.4073177139      -10.8975796465  W2        13743           0.0000000000
     41230     13744  TIP3      OH2           -22.0073366405       47.2953077139       -2.2846296465  W2        13744           0.0000000000
     41231     13744  TIP3      H1            -21.9274266405       48.0587477139       -1.7127796465  W2        13744           0.0000000000
     41232     13744  TIP3      H2            -22.6085666405       47.5745477139       -2.9751196465  W2        13744           0.0000000000
     41233     13745  TIP3      OH2           -30.2593166405       49.7516677139       -9.4698296465  W2        13745           0.0000000000
     41234     13745  TIP3      H1            -30.5897966405       49.3810077139      -10.2881296465  W2        13745           0.0000000000
     41235     13745  TIP3      H2            -29.6709066405       49.0810677139       -9.1229996465  W2        13745           0.0000000000
     41236     13746  TIP3      OH2           -28.8925666405       53.1797277139       -6.7886096465  W2        13746           0.0000000000
     41237     13746  TIP3      H1            -28.9874366405       52.6010377139       -7.5451496465  W2        13746           0.0000000000
     41238     13746  TIP3      H2            -28.1632066405       52.8082977139       -6.2923296465  W2        13746           0.0000000000
     41239     13747  TIP3      OH2           -29.8927666405       48.5202277139       -5.8363296465  W2        13747           0.0000000000
     41240     13747  TIP3      H1            -29.3275166405       48.6416477139       -6.5992096465  W2        13747           0.0000000000
     41241     13747  TIP3      H2            -29.5738766405       49.1577277139       -5.1974796465  W2        13747           0.0000000000
     41242     13748  TIP3      OH2           -23.5835466405       54.0234177139       -5.1022796465  W2        13748           0.0000000000
     41243     13748  TIP3      H1            -23.8238866405       54.6857277139       -4.4543596465  W2        13748           0.0000000000
     41244     13748  TIP3      H2            -23.7817266405       53.1889377139       -4.6773196465  W2        13748           0.0000000000
     41245     13749  TIP3      OH2           -29.0126966405       52.9194977139       -1.1191396465  W2        13749           0.0000000000
     41246     13749  TIP3      H1            -29.3239466405       53.7018177139       -0.6638196465  W2        13749           0.0000000000
     41247     13749  TIP3      H2            -29.6626766405       52.7664077139       -1.8049396465  W2        13749           0.0000000000
     41248     13750  TIP3      OH2           -23.0337366405       48.2833377139      -13.6672096465  W2        13750           0.0000000000
     41249     13750  TIP3      H1            -22.4541866405       48.4333677139      -12.9203196465  W2        13750           0.0000000000
     41250     13750  TIP3      H2            -22.6197366405       48.7540777139      -14.3905696465  W2        13750           0.0000000000
     41251     13751  TIP3      OH2           -32.0927066405       49.1176077139       -1.8905696465  W2        13751           0.0000000000
     41252     13751  TIP3      H1            -32.0223866405       49.7682877139       -1.1920696465  W2        13751           0.0000000000
     41253     13751  TIP3      H2            -32.9834866405       49.2203577139       -2.2254796465  W2        13751           0.0000000000
     41254     13752  TIP3      OH2           -30.7731066405       54.9909977139       -0.3557596465  W2        13752           0.0000000000
     41255     13752  TIP3      H1            -30.7655766405       54.8549677139       -1.3032096465  W2        13752           0.0000000000
     41256     13752  TIP3      H2            -31.6890666405       54.8738077139       -0.1037596465  W2        13752           0.0000000000
     41257     13753  TIP3      OH2           -19.3348966405       40.0333777139      -13.8542396465  W2        13753           0.0000000000
     41258     13753  TIP3      H1            -20.2348266405       40.1722777139      -13.5591796465  W2        13753           0.0000000000
     41259     13753  TIP3      H2            -19.0830566405       40.8648377139      -14.2560696465  W2        13753           0.0000000000
     41260     13754  TIP3      OH2           -31.2690466405       48.8210977139      -11.8805496465  W2        13754           0.0000000000
     41261     13754  TIP3      H1            -31.5609166405       49.5892677139      -12.3714196465  W2        13754           0.0000000000
     41262     13754  TIP3      H2            -31.9435266405       48.1617177139      -12.0434096465  W2        13754           0.0000000000
     41263     13755  TIP3      OH2           -18.1457566405       54.3996177139      -15.4778496465  W2        13755           0.0000000000
     41264     13755  TIP3      H1            -18.0724066405       55.3386377139      -15.3073196465  W2        13755           0.0000000000
     41265     13755  TIP3      H2            -17.2402466405       54.0944777139      -15.5341196465  W2        13755           0.0000000000
     41266     13756  TIP3      OH2           -35.1760366405       51.1840177139       -3.0655696465  W2        13756           0.0000000000
     41267     13756  TIP3      H1            -35.6771966405       51.1559577139       -3.8805996465  W2        13756           0.0000000000
     41268     13756  TIP3      H2            -35.1706666405       50.2783377139       -2.7558396465  W2        13756           0.0000000000
     41269     13757  TIP3      OH2           -35.4257666405       53.9643977139       -6.1815496465  W2        13757           0.0000000000
     41270     13757  TIP3      H1            -34.4797066405       53.8200977139       -6.2005996465  W2        13757           0.0000000000
     41271     13757  TIP3      H2            -35.5381366405       54.7486777139       -5.6444296465  W2        13757           0.0000000000
     41272     13758  TIP3      OH2           -17.2279166405       54.6303677139       -0.4991796465  W2        13758           0.0000000000
     41273     13758  TIP3      H1            -17.2772366405       53.6751777139       -0.5364196465  W2        13758           0.0000000000
     41274     13758  TIP3      H2            -18.0546866405       54.8978977139       -0.0977996465  W2        13758           0.0000000000
     41275     13759  TIP3      OH2           -26.2495166405       54.2042877139       -1.6230396465  W2        13759           0.0000000000
     41276     13759  TIP3      H1            -26.1620566405       55.0307477139       -1.1481296465  W2        13759           0.0000000000
     41277     13759  TIP3      H2            -27.1130066405       53.8746677139       -1.3741096465  W2        13759           0.0000000000
     41278     13760  TIP3      OH2           -20.0759366405       46.1236177139       -0.0189596465  W2        13760           0.0000000000
     41279     13760  TIP3      H1            -20.4832566405       46.6041777139       -0.7396296465  W2        13760           0.0000000000
     41280     13760  TIP3      H2            -20.0353666405       45.2182177139       -0.3268796465  W2        13760           0.0000000000
     41281     13761  TIP3      OH2           -32.9269866405       52.5075577139       -2.0222896465  W2        13761           0.0000000000
     41282     13761  TIP3      H1            -32.7108566405       52.1461177139       -1.1627096465  W2        13761           0.0000000000
     41283     13761  TIP3      H2            -33.7825166405       52.1329377139       -2.2319396465  W2        13761           0.0000000000
     41284     13762  TIP3      OH2           -30.3081866405       40.9776077139       -6.0268696465  W2        13762           0.0000000000
     41285     13762  TIP3      H1            -31.1698166405       40.8904277139       -6.4345796465  W2        13762           0.0000000000
     41286     13762  TIP3      H2            -30.3306166405       41.8336177139       -5.5991096465  W2        13762           0.0000000000
     41287     13763  TIP3      OH2           -25.6454066405       40.6996477139       -2.6521696465  W2        13763           0.0000000000
     41288     13763  TIP3      H1            -25.2250966405       40.2843577139       -1.8991096465  W2        13763           0.0000000000
     41289     13763  TIP3      H2            -26.5784466405       40.5209777139       -2.5349696465  W2        13763           0.0000000000
     41290     13764  TIP3      OH2           -22.3189166405       44.4551677139       -1.7987196465  W2        13764           0.0000000000
     41291     13764  TIP3      H1            -22.8329666405       44.3293877139       -1.0011196465  W2        13764           0.0000000000
     41292     13764  TIP3      H2            -22.4744466405       45.3674777139       -2.0430996465  W2        13764           0.0000000000
     41293     13765  TIP3      OH2           -21.5564266405       49.3161677139      -16.0374196465  W2        13765           0.0000000000
     41294     13765  TIP3      H1            -21.5143466405       49.0935577139      -16.9674196465  W2        13765           0.0000000000
     41295     13765  TIP3      H2            -20.7072166405       49.7148777139      -15.8474296465  W2        13765           0.0000000000
     41296     13766  TIP3      OH2           -25.9836766405       43.1919877139      -15.3670896465  W2        13766           0.0000000000
     41297     13766  TIP3      H1            -26.2371966405       43.2111477139      -14.4442796465  W2        13766           0.0000000000
     41298     13766  TIP3      H2            -26.2404666405       42.3205277139      -15.6684696465  W2        13766           0.0000000000
     41299     13767  TIP3      OH2           -30.2171766405       45.9430577139       -4.9318496465  W2        13767           0.0000000000
     41300     13767  TIP3      H1            -30.8589666405       45.9027877139       -4.2228396465  W2        13767           0.0000000000
     41301     13767  TIP3      H2            -30.1799766405       46.8695277139       -5.1695496465  W2        13767           0.0000000000
     41302     13768  TIP3      OH2           -30.2202666405       46.1640677139      -10.0198496465  W2        13768           0.0000000000
     41303     13768  TIP3      H1            -31.1129766405       45.8236777139      -10.0784696465  W2        13768           0.0000000000
     41304     13768  TIP3      H2            -29.7696066405       45.7871577139      -10.7755296465  W2        13768           0.0000000000
     41305     13769  TIP3      OH2           -24.6847166405       46.5800977139      -11.2027696465  W2        13769           0.0000000000
     41306     13769  TIP3      H1            -25.0936866405       47.3949577139      -11.4942896465  W2        13769           0.0000000000
     41307     13769  TIP3      H2            -23.9640966405       46.4401077139      -11.8170596465  W2        13769           0.0000000000
     41308     13770  TIP3      OH2           -25.5825566405       46.7557377139        0.2853003535  W2        13770           0.0000000000
     41309     13770  TIP3      H1            -26.1451766405       46.0508977139        0.6060803535  W2        13770           0.0000000000
     41310     13770  TIP3      H2            -24.7562166405       46.6349277139        0.7530603535  W2        13770           0.0000000000
     41311     13771  TIP3      OH2           -23.6799466405       46.0261377139       -8.3887996465  W2        13771           0.0000000000
     41312     13771  TIP3      H1            -23.8754966405       46.6318177139       -9.1037396465  W2        13771           0.0000000000
     41313     13771  TIP3      H2            -23.4986866405       45.1926577139       -8.8231696465  W2        13771           0.0000000000
     41314     13772  TIP3      OH2           -32.4671266405       46.2634077139       -3.0646496465  W2        13772           0.0000000000
     41315     13772  TIP3      H1            -32.5051866405       46.6635677139       -2.1959396465  W2        13772           0.0000000000
     41316     13772  TIP3      H2            -32.9580166405       45.4466477139       -2.9743596465  W2        13772           0.0000000000
     41317     13773  TIP3      OH2           -29.1013866405       43.6376377139      -16.2660496465  W2        13773           0.0000000000
     41318     13773  TIP3      H1            -29.5323166405       43.1926477139      -15.5363096465  W2        13773           0.0000000000
     41319     13773  TIP3      H2            -29.8195166405       44.0092677139      -16.7782996465  W2        13773           0.0000000000
     41320     13774  TIP3      OH2           -35.8590466405       43.3795877139       -9.2141796465  W2        13774           0.0000000000
     41321     13774  TIP3      H1            -35.2282766405       43.3507977139       -8.4947896465  W2        13774           0.0000000000
     41322     13774  TIP3      H2            -35.4096166405       42.9544577139       -9.9445896465  W2        13774           0.0000000000
     41323     13775  TIP3      OH2           -34.5848366405       44.1257877139      -13.7901396465  W2        13775           0.0000000000
     41324     13775  TIP3      H1            -34.1106666405       44.7167777139      -14.3750496465  W2        13775           0.0000000000
     41325     13775  TIP3      H2            -35.3021966405       44.6560777139      -13.4431296465  W2        13775           0.0000000000
     41326     13776  TIP3      OH2           -24.4160266405       47.6642677139       -3.7175596465  W2        13776           0.0000000000
     41327     13776  TIP3      H1            -24.0925466405       47.0332377139       -4.3605096465  W2        13776           0.0000000000
     41328     13776  TIP3      H2            -24.8560966405       47.1294877139       -3.0568196465  W2        13776           0.0000000000
     41329     13777  TIP3      OH2           -27.6387366405       43.5918177139       -8.9334396465  W2        13777           0.0000000000
     41330     13777  TIP3      H1            -28.5496266405       43.6484977139       -8.6448396465  W2        13777           0.0000000000
     41331     13777  TIP3      H2            -27.1334466405       43.5313677139       -8.1227196465  W2        13777           0.0000000000
     41332     13778  TIP3      OH2           -32.8103966405       45.2204477139      -10.1066796465  W2        13778           0.0000000000
     41333     13778  TIP3      H1            -33.6995966405       45.3199977139      -10.4467196465  W2        13778           0.0000000000
     41334     13778  TIP3      H2            -32.5139066405       44.3787477139      -10.4528896465  W2        13778           0.0000000000
     41335     13779  TIP3      OH2           -29.1572166405       45.2207077139      -12.4502196465  W2        13779           0.0000000000
     41336     13779  TIP3      H1            -28.2256666405       45.3497077139      -12.2719096465  W2        13779           0.0000000000
     41337     13779  TIP3      H2            -29.3721866405       45.8901377139      -13.0997496465  W2        13779           0.0000000000
     41338     13780  TIP3      OH2           -23.2335466405       42.8264477139       -5.6692596465  W2        13780           0.0000000000
     41339     13780  TIP3      H1            -23.9103866405       42.9577577139       -5.0052896465  W2        13780           0.0000000000
     41340     13780  TIP3      H2            -23.7190566405       42.6713977139       -6.4794896465  W2        13780           0.0000000000
     41341     13781  TIP3      OH2           -30.4831966405       46.4149277139      -14.8836096465  W2        13781           0.0000000000
     41342     13781  TIP3      H1            -31.0256866405       46.0353077139      -15.5748496465  W2        13781           0.0000000000
     41343     13781  TIP3      H2            -29.6497066405       46.6093977139      -15.3121996465  W2        13781           0.0000000000
     41344     13782  TIP3      OH2           -32.3480566405       50.9721177139        0.2155503535  W2        13782           0.0000000000
     41345     13782  TIP3      H1            -31.6158166405       51.2267077139        0.7770003535  W2        13782           0.0000000000
     41346     13782  TIP3      H2            -33.1281866405       51.1766577139        0.7310903535  W2        13782           0.0000000000
     41347     13783  TIP3      OH2           -26.3187666405       46.3791177139       -7.0464796465  W2        13783           0.0000000000
     41348     13783  TIP3      H1            -25.7544266405       45.8327777139       -7.5935196465  W2        13783           0.0000000000
     41349     13783  TIP3      H2            -26.4664266405       45.8573077139       -6.2577196465  W2        13783           0.0000000000
     41350     13784  TIP3      OH2           -31.3167966405       42.5157277139      -10.6279996465  W2        13784           0.0000000000
     41351     13784  TIP3      H1            -31.6338466405       41.6132577139      -10.6634596465  W2        13784           0.0000000000
     41352     13784  TIP3      H2            -30.5353866405       42.5174677139      -11.1808396465  W2        13784           0.0000000000
     41353     13785  TIP3      OH2           -27.6921766405       44.7677277139       -4.6324396465  W2        13785           0.0000000000
     41354     13785  TIP3      H1            -28.5276466405       45.2216777139       -4.5221996465  W2        13785           0.0000000000
     41355     13785  TIP3      H2            -27.1681166405       45.0435777139       -3.8804496465  W2        13785           0.0000000000
     41356     13786  TIP3      OH2           -27.1479166405       50.9804977139      -12.9477996465  W2        13786           0.0000000000
     41357     13786  TIP3      H1            -27.8928166405       50.4730277139      -13.2700096465  W2        13786           0.0000000000
     41358     13786  TIP3      H2            -27.2821966405       51.0292977139      -12.0013196465  W2        13786           0.0000000000
     41359     13787  TIP3      OH2           -19.9980266405       50.1133177139       -4.1610396465  W2        13787           0.0000000000
     41360     13787  TIP3      H1            -19.3561466405       50.5699477139       -4.7048196465  W2        13787           0.0000000000
     41361     13787  TIP3      H2            -20.8283366405       50.2265577139       -4.6236296465  W2        13787           0.0000000000
     41362     13788  TIP3      OH2           -23.2502366405       43.7944877139      -14.7485396465  W2        13788           0.0000000000
     41363     13788  TIP3      H1            -24.1888166405       43.9060477139      -14.8996596465  W2        13788           0.0000000000
     41364     13788  TIP3      H2            -22.9530266405       44.6511777139      -14.4419696465  W2        13788           0.0000000000
     41365     13789  TIP3      OH2           -25.6287066405       51.1648277139       -1.7108896465  W2        13789           0.0000000000
     41366     13789  TIP3      H1            -25.9740966405       50.7830677139       -0.9039296465  W2        13789           0.0000000000
     41367     13789  TIP3      H2            -25.8286966405       52.0981877139       -1.6395996465  W2        13789           0.0000000000
     41368     13790  TIP3      OH2           -22.5318866405       45.6617577139      -13.0877996465  W2        13790           0.0000000000
     41369     13790  TIP3      H1            -21.6399866405       45.5242577139      -12.7686796465  W2        13790           0.0000000000
     41370     13790  TIP3      H2            -22.4755266405       46.4523677139      -13.6244496465  W2        13790           0.0000000000
     41371     13791  TIP3      OH2           -32.0230866405       50.2754977139       -7.1780096465  W2        13791           0.0000000000
     41372     13791  TIP3      H1            -31.2783666405       50.2730677139       -7.7793596465  W2        13791           0.0000000000
     41373     13791  TIP3      H2            -31.9454266405       49.4518777139       -6.6964996465  W2        13791           0.0000000000
     41374     13792  TIP3      OH2           -25.0225066405       52.4389277139      -13.9223396465  W2        13792           0.0000000000
     41375     13792  TIP3      H1            -25.3176666405       53.2657177139      -13.5408596465  W2        13792           0.0000000000
     41376     13792  TIP3      H2            -25.7255066405       51.8196177139      -13.7261996465  W2        13792           0.0000000000
     41377     13793  TIP3      OH2           -35.0151166405       48.7361877139       -1.8631596465  W2        13793           0.0000000000
     41378     13793  TIP3      H1            -34.7922566405       48.3181477139       -1.0314096465  W2        13793           0.0000000000
     41379     13793  TIP3      H2            -35.6171066405       48.1236877139       -2.2858796465  W2        13793           0.0000000000
     41380     13794  TIP3      OH2           -27.9986266405       48.2531777139        0.3498103535  W2        13794           0.0000000000
     41381     13794  TIP3      H1            -28.2945466405       48.0874777139       -0.5452796465  W2        13794           0.0000000000
     41382     13794  TIP3      H2            -27.0671066405       48.0332077139        0.3392003535  W2        13794           0.0000000000
     41383     13795  TIP3      OH2           -23.3783466405       53.6263777139       -1.7603896465  W2        13795           0.0000000000
     41384     13795  TIP3      H1            -24.2789166405       53.8096377139       -2.0279996465  W2        13795           0.0000000000
     41385     13795  TIP3      H2            -23.3442366405       53.8853077139       -0.8395096465  W2        13795           0.0000000000
     41386     13796  TIP3      OH2           -17.6470166405       45.8711677139      -13.3931296465  W2        13796           0.0000000000
     41387     13796  TIP3      H1            -18.2013866405       45.4749677139      -14.0653796465  W2        13796           0.0000000000
     41388     13796  TIP3      H2            -17.5466566405       46.7816877139      -13.6707996465  W2        13796           0.0000000000
     41389     13797  TIP3      OH2           -17.6838166405       51.6713377139       -0.5559796465  W2        13797           0.0000000000
     41390     13797  TIP3      H1            -18.5349666405       51.9097177139       -0.9233396465  W2        13797           0.0000000000
     41391     13797  TIP3      H2            -17.0934766405       51.6546577139       -1.3092696465  W2        13797           0.0000000000
     41392     13798  TIP3      OH2           -19.3518466405       54.6572077139      -12.9279196465  W2        13798           0.0000000000
     41393     13798  TIP3      H1            -19.7247366405       53.8315877139      -12.6188596465  W2        13798           0.0000000000
     41394     13798  TIP3      H2            -19.0744966405       54.4741477139      -13.8255796465  W2        13798           0.0000000000
     41395     13799  TIP3      OH2           -22.1914566405       49.4651577139       -5.9067296465  W2        13799           0.0000000000
     41396     13799  TIP3      H1            -23.1197666405       49.2333477139       -5.9337996465  W2        13799           0.0000000000
     41397     13799  TIP3      H2            -21.7403466405       48.6881377139       -6.2368496465  W2        13799           0.0000000000
     41398     13800  TIP3      OH2           -29.6481466405       53.7933177139       -9.7738596465  W2        13800           0.0000000000
     41399     13800  TIP3      H1            -29.1209266405       54.5667577139       -9.9739796465  W2        13800           0.0000000000
     41400     13800  TIP3      H2            -30.5282966405       54.0182377139      -10.0754596465  W2        13800           0.0000000000
     41401     13801  TIP3      OH2           -33.8933766405       48.6557277139      -15.1866196465  W2        13801           0.0000000000
     41402     13801  TIP3      H1            -33.2773866405       49.2824477139      -14.8071396465  W2        13801           0.0000000000
     41403     13801  TIP3      H2            -34.7551166405       48.9717077139      -14.9149696465  W2        13801           0.0000000000
     41404     13802  TIP3      OH2           -28.2209166405       51.4563077139      -10.1974296465  W2        13802           0.0000000000
     41405     13802  TIP3      H1            -28.4619166405       52.3817477139      -10.1558996465  W2        13802           0.0000000000
     41406     13802  TIP3      H2            -28.9615566405       50.9974377139       -9.8010396465  W2        13802           0.0000000000
     41407     13803  TIP3      OH2           -24.1621766405       51.7047377139       -4.1817596465  W2        13803           0.0000000000
     41408     13803  TIP3      H1            -24.5880466405       51.4769077139       -3.3553596465  W2        13803           0.0000000000
     41409     13803  TIP3      H2            -23.5815966405       50.9659177139       -4.3642296465  W2        13803           0.0000000000
     41410     13804  TIP3      OH2           -21.9592866405       52.6337877139      -15.1078596465  W2        13804           0.0000000000
     41411     13804  TIP3      H1            -21.6059766405       52.2537677139      -14.3035096465  W2        13804           0.0000000000
     41412     13804  TIP3      H2            -22.9079366405       52.5402677139      -15.0209296465  W2        13804           0.0000000000
     41413     13805  TIP3      OH2           -33.3811666405       43.4894577139       -2.3050196465  W2        13805           0.0000000000
     41414     13805  TIP3      H1            -34.2739366405       43.8279977139       -2.3726196465  W2        13805           0.0000000000
     41415     13805  TIP3      H2            -33.4798866405       42.6340677139       -1.8869396465  W2        13805           0.0000000000
     41416     13806  TIP3      OH2           -21.0933566405       51.3059877139      -12.8810696465  W2        13806           0.0000000000
     41417     13806  TIP3      H1            -21.3705966405       50.5779177139      -12.3249596465  W2        13806           0.0000000000
     41418     13806  TIP3      H2            -20.1660566405       51.4251877139      -12.6758096465  W2        13806           0.0000000000
     41419     13807  TIP3      OH2           -27.8685066405       53.7453977139      -16.6608596465  W2        13807           0.0000000000
     41420     13807  TIP3      H1            -27.6295266405       52.9972077139      -17.2079696465  W2        13807           0.0000000000
     41421     13807  TIP3      H2            -28.1373766405       53.3575677139      -15.8280796465  W2        13807           0.0000000000
     41422     13808  TIP3      OH2           -28.9314466405       53.3157777139      -14.2045996465  W2        13808           0.0000000000
     41423     13808  TIP3      H1            -28.7846466405       52.7957577139      -13.4145096465  W2        13808           0.0000000000
     41424     13808  TIP3      H2            -28.9342766405       54.2225377139      -13.8980096465  W2        13808           0.0000000000
     41425     13809  TIP3      OH2           -32.4783366405       50.5681077139      -13.6940596465  W2        13809           0.0000000000
     41426     13809  TIP3      H1            -33.1644066405       50.9203577139      -13.1270896465  W2        13809           0.0000000000
     41427     13809  TIP3      H2            -31.9555466405       51.3310677139      -13.9406296465  W2        13809           0.0000000000
     41428     13810  TIP3      OH2           -24.6468266405       43.2304877139       -3.4151596465  W2        13810           0.0000000000
     41429     13810  TIP3      H1            -23.9480366405       43.3043577139       -2.7651896465  W2        13810           0.0000000000
     41430     13810  TIP3      H2            -25.0276866405       42.3659877139       -3.2608696465  W2        13810           0.0000000000
     41431     13811  TIP3      OH2           -23.8623366405       42.8826577139      -12.3179296465  W2        13811           0.0000000000
     41432     13811  TIP3      H1            -23.6425066405       43.3541977139      -13.1213896465  W2        13811           0.0000000000
     41433     13811  TIP3      H2            -23.3039366405       43.2769177139      -11.6478696465  W2        13811           0.0000000000
     41434     13812  TIP3      OH2           -26.6623466405       44.6105377139      -11.4830896465  W2        13812           0.0000000000
     41435     13812  TIP3      H1            -25.8500866405       45.1148577139      -11.4369196465  W2        13812           0.0000000000
     41436     13812  TIP3      H2            -26.9070466405       44.4655077139      -10.5691296465  W2        13812           0.0000000000
     41437     13813  TIP3      OH2           -26.1267066405       45.5968077139       -2.2984296465  W2        13813           0.0000000000
     41438     13813  TIP3      H1            -26.0076766405       46.1703477139       -1.5413896465  W2        13813           0.0000000000
     41439     13813  TIP3      H2            -25.4712466405       44.9087477139       -2.1836496465  W2        13813           0.0000000000
     41440     13814  TIP3      OH2           -25.7786766405       41.6918377139      -10.5449796465  W2        13814           0.0000000000
     41441     13814  TIP3      H1            -26.1253266405       42.3088977139       -9.9005496465  W2        13814           0.0000000000
     41442     13814  TIP3      H2            -25.1199866405       42.1924077139      -11.0264296465  W2        13814           0.0000000000
     41443     13815  TIP3      OH2           -30.1209766405       42.7547777139      -13.8577296465  W2        13815           0.0000000000
     41444     13815  TIP3      H1            -30.2044966405       43.6430877139      -13.5110896465  W2        13815           0.0000000000
     41445     13815  TIP3      H2            -29.2309466405       42.4894477139      -13.6260496465  W2        13815           0.0000000000
     41446     13816  TIP3      OH2           -19.9221266405       43.5038377139       -1.4634596465  W2        13816           0.0000000000
     41447     13816  TIP3      H1            -20.8385466405       43.7660077139       -1.5510896465  W2        13816           0.0000000000
     41448     13816  TIP3      H2            -19.5866266405       43.5007377139       -2.3599296465  W2        13816           0.0000000000
     41449     13817  TIP3      OH2           -21.3200266405       47.2539377139       -7.3677296465  W2        13817           0.0000000000
     41450     13817  TIP3      H1            -22.1175866405       46.8389577139       -7.6962296465  W2        13817           0.0000000000
     41451     13817  TIP3      H2            -20.8749166405       46.5633077139       -6.8766796465  W2        13817           0.0000000000
     41452     13818  TIP3      OH2           -31.8624466405       53.1819977139      -14.7972796465  W2        13818           0.0000000000
     41453     13818  TIP3      H1            -31.2702966405       53.8814777139      -14.5210396465  W2        13818           0.0000000000
     41454     13818  TIP3      H2            -31.4031466405       52.7489477139      -15.5168196465  W2        13818           0.0000000000
     41455     13819  TIP3      OH2           -33.5465266405       45.8462977139      -15.6813396465  W2        13819           0.0000000000
     41456     13819  TIP3      H1            -33.5912666405       46.7856077139      -15.5026396465  W2        13819           0.0000000000
     41457     13819  TIP3      H2            -34.4342066405       45.6107877139      -15.9511296465  W2        13819           0.0000000000
     41458     13820  TIP3      OH2           -32.7383266405       40.6279577139       -7.0082396465  W2        13820           0.0000000000
     41459     13820  TIP3      H1            -32.9673466405       40.6872077139       -7.9357396465  W2        13820           0.0000000000
     41460     13820  TIP3      H2            -33.1809866405       39.8365077139       -6.7018296465  W2        13820           0.0000000000
     41461     13821  TIP3      OH2           -33.8079966405       54.5686677139      -10.8476596465  W2        13821           0.0000000000
     41462     13821  TIP3      H1            -34.6401366405       55.0409377139      -10.8205196465  W2        13821           0.0000000000
     41463     13821  TIP3      H2            -33.2621666405       55.0784277139      -11.4463496465  W2        13821           0.0000000000
     41464     13822  TIP3      OH2           -23.3454166405       54.4805877139        0.8317103535  W2        13822           0.0000000000
     41465     13822  TIP3      H1            -23.6964666405       53.6238877139        1.0747503535  W2        13822           0.0000000000
     41466     13822  TIP3      H2            -22.6190966405       54.6232577139        1.4386103535  W2        13822           0.0000000000
     41467     13823  TIP3      OH2           -34.6126766405       50.9914477139        1.4365703535  W2        13823           0.0000000000
     41468     13823  TIP3      H1            -34.4686266405       50.0895177139        1.1502403535  W2        13823           0.0000000000
     41469     13823  TIP3      H2            -35.3849366405       51.2776577139        0.9488003535  W2        13823           0.0000000000
     41470     13824  TIP3      OH2           -30.2713066405       51.3350177139      -16.4309696465  W2        13824           0.0000000000
     41471     13824  TIP3      H1            -30.2068966405       50.5409777139      -15.9003296465  W2        13824           0.0000000000
     41472     13824  TIP3      H2            -29.6183866405       51.2162977139      -17.1207696465  W2        13824           0.0000000000
     41473     13825  TIP3      OH2           -27.9570666405       50.9612577139        0.8692103535  W2        13825           0.0000000000
     41474     13825  TIP3      H1            -28.2856866405       51.2320677139        0.0119503535  W2        13825           0.0000000000
     41475     13825  TIP3      H2            -27.8052466405       50.0202377139        0.7817103535  W2        13825           0.0000000000
     41476     13826  TIP3      OH2           -24.9189666405       52.3821877139      -16.6951696465  W2        13826           0.0000000000
     41477     13826  TIP3      H1            -25.1875566405       52.5623977139      -15.7942796465  W2        13826           0.0000000000
     41478     13826  TIP3      H2            -25.1254066405       51.4568077139      -16.8265896465  W2        13826           0.0000000000
     41479     13827  TIP3      OH2           -22.2225466405       50.8769877139       -1.7475596465  W2        13827           0.0000000000
     41480     13827  TIP3      H1            -21.4770666405       51.4653577139       -1.8671596465  W2        13827           0.0000000000
     41481     13827  TIP3      H2            -22.9798666405       51.4589577139       -1.6842496465  W2        13827           0.0000000000
     41482     13828  TIP3      OH2           -33.7800266405       48.1917777139        0.8565003535  W2        13828           0.0000000000
     41483     13828  TIP3      H1            -33.3719066405       47.3344377139        0.7355603535  W2        13828           0.0000000000
     41484     13828  TIP3      H2            -34.0402666405       48.2059077139        1.7775303535  W2        13828           0.0000000000
     41485     13829  TIP3      OH2           -29.1219266405       49.3076377139      -14.1251696465  W2        13829           0.0000000000
     41486     13829  TIP3      H1            -29.5817266405       48.8234677139      -13.4393196465  W2        13829           0.0000000000
     41487     13829  TIP3      H2            -28.8670566405       48.6391777139      -14.7611196465  W2        13829           0.0000000000
     41488     13830  TIP3      OH2           -29.8329966405       47.2003477139       -1.7692096465  W2        13830           0.0000000000
     41489     13830  TIP3      H1            -30.4513866405       47.8750077139       -1.4887396465  W2        13830           0.0000000000
     41490     13830  TIP3      H2            -29.4888766405       47.5217377139       -2.6025896465  W2        13830           0.0000000000
     41491     13831  TIP3      OH2           -28.0508866405       47.5508177139      -15.8628496465  W2        13831           0.0000000000
     41492     13831  TIP3      H1            -28.2313866405       47.3959377139      -16.7900196465  W2        13831           0.0000000000
     41493     13831  TIP3      H2            -27.1008366405       47.6586877139      -15.8180596465  W2        13831           0.0000000000
     41494     13832  TIP3      OH2           -24.8131766405       49.6718777139        1.5082703535  W2        13832           0.0000000000
     41495     13832  TIP3      H1            -23.8600566405       49.7557877139        1.4808703535  W2        13832           0.0000000000
     41496     13832  TIP3      H2            -24.9737166405       48.9600577139        2.1277603535  W2        13832           0.0000000000
     41497     13833  TIP3      OH2           -18.6610566405       49.9052377139      -16.4170396465  W2        13833           0.0000000000
     41498     13833  TIP3      H1            -18.9345766405       49.4807877139      -17.2302096465  W2        13833           0.0000000000
     41499     13833  TIP3      H2            -18.6216466405       50.8366877139      -16.6339996465  W2        13833           0.0000000000
     41500     13834  TIP3      OH2           -29.4936266405       44.5554277139       -0.6868996465  W2        13834           0.0000000000
     41501     13834  TIP3      H1            -29.3435366405       43.8265577139       -1.2889296465  W2        13834           0.0000000000
     41502     13834  TIP3      H2            -29.4913866405       45.3325977139       -1.2456796465  W2        13834           0.0000000000
     41503     13835  TIP3      OH2           -29.0810566405       42.9250077139       -3.1941596465  W2        13835           0.0000000000
     41504     13835  TIP3      H1            -28.5453066405       43.3766777139       -3.8462296465  W2        13835           0.0000000000
     41505     13835  TIP3      H2            -29.9330966405       42.8169877139       -3.6167496465  W2        13835           0.0000000000
     41506     13836  TIP3      OH2           -27.4992166405       48.3646277139       -2.9546396465  W2        13836           0.0000000000
     41507     13836  TIP3      H1            -26.7487366405       48.2083777139       -3.5278596465  W2        13836           0.0000000000
     41508     13836  TIP3      H2            -27.8383866405       49.2162877139       -3.2300896465  W2        13836           0.0000000000
     41509     13837  TIP3      OH2           -23.0835966405       46.1798077139        2.0738903535  W2        13837           0.0000000000
     41510     13837  TIP3      H1            -22.8914666405       45.2487477139        1.9623403535  W2        13837           0.0000000000
     41511     13837  TIP3      H2            -22.2259666405       46.6047577139        2.0634303535  W2        13837           0.0000000000
     41512     13838  TIP3      OH2           -21.7668766405       48.9683277139        0.1511603535  W2        13838           0.0000000000
     41513     13838  TIP3      H1            -22.0483766405       49.6777877139       -0.4264596465  W2        13838           0.0000000000
     41514     13838  TIP3      H2            -20.8244466405       48.8956277139        0.0002803535  W2        13838           0.0000000000
     41515     13839  TIP3      OH2           -31.0149966405       45.7537777139        1.2246603535  W2        13839           0.0000000000
     41516     13839  TIP3      H1            -31.7820966405       45.2212577139        1.0144203535  W2        13839           0.0000000000
     41517     13839  TIP3      H2            -30.3360966405       45.4438177139        0.6252903535  W2        13839           0.0000000000
     41518     13840  TIP3      OH2           -28.2755066405       40.3815777139       -2.7627996465  W2        13840           0.0000000000
     41519     13840  TIP3      H1            -28.3735466405       41.3278977139       -2.8681796465  W2        13840           0.0000000000
     41520     13840  TIP3      H2            -29.0178866405       40.0089577139       -3.2384496465  W2        13840           0.0000000000
     41521     13841  TIP3      OH2           -27.0114566405       44.7031177139        0.8010403535  W2        13841           0.0000000000
     41522     13841  TIP3      H1            -27.2469166405       44.4837877139        1.7025303535  W2        13841           0.0000000000
     41523     13841  TIP3      H2            -27.7947666405       44.4962377139        0.2912903535  W2        13841           0.0000000000
     41524     13842  TIP3      OH2           -24.2957966405       43.8304677139       -0.1236096465  W2        13842           0.0000000000
     41525     13842  TIP3      H1            -25.2432566405       43.8624377139        0.0087203535  W2        13842           0.0000000000
     41526     13842  TIP3      H2            -23.9831266405       43.2051777139        0.5302103535  W2        13842           0.0000000000
     41527     13843  TIP3      OH2           -22.6616466405       42.4645777139        1.8815803535  W2        13843           0.0000000000
     41528     13843  TIP3      H1            -22.7584666405       41.5123077139        1.8757703535  W2        13843           0.0000000000
     41529     13843  TIP3      H2            -22.9833366405       42.7332577139        2.7421303535  W2        13843           0.0000000000
     41530     13844  TIP3      OH2           -32.8347166405       43.6741577139        0.9291303535  W2        13844           0.0000000000
     41531     13844  TIP3      H1            -32.6229766405       42.9677677139        0.3188803535  W2        13844           0.0000000000
     41532     13844  TIP3      H2            -32.9459666405       43.2367577139        1.7732503535  W2        13844           0.0000000000
     41533     13845  TIP3      OH2           -28.0536966405       39.6753177139       -0.0915196465  W2        13845           0.0000000000
     41534     13845  TIP3      H1            -27.3418566405       39.0355377139       -0.1056096465  W2        13845           0.0000000000
     41535     13845  TIP3      H2            -28.1546566405       39.9421477139       -1.0052096465  W2        13845           0.0000000000
     41536     13846  TIP3      OH2           -27.6999466405       41.3581577139        1.9621103535  W2        13846           0.0000000000
     41537     13846  TIP3      H1            -27.8317266405       40.8825377139        1.1419603535  W2        13846           0.0000000000
     41538     13846  TIP3      H2            -28.2992066405       42.1025177139        1.9068203535  W2        13846           0.0000000000
     41539     13847  TIP3      OH2           -34.5852266405       52.8775677139      -15.3786796465  W2        13847           0.0000000000
     41540     13847  TIP3      H1            -33.6713066405       52.9564577139      -15.1052896465  W2        13847           0.0000000000
     41541     13847  TIP3      H2            -34.5779166405       52.1905277139      -16.0451196465  W2        13847           0.0000000000
     41542     13848  TIP3      OH2           -19.5037466405       52.5176777139        2.0437503535  W2        13848           0.0000000000
     41543     13848  TIP3      H1            -20.3696366405       52.4126477139        2.4379803535  W2        13848           0.0000000000
     41544     13848  TIP3      H2            -19.1271566405       53.2760077139        2.4902203535  W2        13848           0.0000000000
     41545     13849  TIP3      OH2           -18.2027766405       50.7740477139      -12.4419996465  W2        13849           0.0000000000
     41546     13849  TIP3      H1            -17.3526366405       51.1951377139      -12.3148396465  W2        13849           0.0000000000
     41547     13849  TIP3      H2            -18.1972666405       50.0340577139      -11.8348596465  W2        13849           0.0000000000
     41548     13850  TIP3      OH2           -17.8082166405       48.8277877139      -10.6184296465  W2        13850           0.0000000000
     41549     13850  TIP3      H1            -18.5347566405       48.3480477139      -10.2206696465  W2        13850           0.0000000000
     41550     13850  TIP3      H2            -17.2268866405       49.0332577139       -9.8862696465  W2        13850           0.0000000000
     41551     13851  TIP3      OH2           -18.0490966405       51.6125377139       -5.6706696465  W2        13851           0.0000000000
     41552     13851  TIP3      H1            -17.2156766405       51.2345377139       -5.9513096465  W2        13851           0.0000000000
     41553     13851  TIP3      H2            -17.9370666405       52.5556577139       -5.7897596465  W2        13851           0.0000000000
     41554     13852  TIP3      OH2           -19.5628666405       54.4902877139       -3.3638296465  W2        13852           0.0000000000
     41555     13852  TIP3      H1            -20.2103366405       54.8154377139       -2.7383096465  W2        13852           0.0000000000
     41556     13852  TIP3      H2            -20.0804666405       54.0500577139       -4.0379996465  W2        13852           0.0000000000
     41557     13853  TIP3      OH2           -17.5399066405       48.7286377139      -14.2272996465  W2        13853           0.0000000000
     41558     13853  TIP3      H1            -18.0617966405       49.0850477139      -14.9462096465  W2        13853           0.0000000000
     41559     13853  TIP3      H2            -17.5729866405       49.4034177139      -13.5492096465  W2        13853           0.0000000000
     41560     13854  TIP3      OH2           -19.1910066405       45.9681977139      -15.6765896465  W2        13854           0.0000000000
     41561     13854  TIP3      H1            -19.0945666405       46.6348977139      -16.3566196465  W2        13854           0.0000000000
     41562     13854  TIP3      H2            -19.3310466405       45.1528277139      -16.1580396465  W2        13854           0.0000000000
     41563     13855  TIP3      OH2           -20.0215366405       47.3484377139      -10.0555596465  W2        13855           0.0000000000
     41564     13855  TIP3      H1            -20.1716566405       46.4032977139      -10.0757796465  W2        13855           0.0000000000
     41565     13855  TIP3      H2            -20.3750866405       47.6295777139       -9.2116496465  W2        13855           0.0000000000
     41566     13856  TIP3      OH2           -34.9862966405       49.4266577139       -6.0451796465  W2        13856           0.0000000000
     41567     13856  TIP3      H1            -34.8020066405       49.3448277139       -6.9808896465  W2        13856           0.0000000000
     41568     13856  TIP3      H2            -34.1370066405       49.3023577139       -5.6215396465  W2        13856           0.0000000000
     41569     13857  TIP3      OH2           -19.1652466405       49.3187677139       -0.4167296465  W2        13857           0.0000000000
     41570     13857  TIP3      H1            -18.5825166405       48.5839977139       -0.2250096465  W2        13857           0.0000000000
     41571     13857  TIP3      H2            -18.6013166405       50.0907977139       -0.3701496465  W2        13857           0.0000000000
     41572     13858  TIP3      OH2           -17.6685366405       47.2213477139        0.2678103535  W2        13858           0.0000000000
     41573     13858  TIP3      H1            -18.5318666405       46.8425577139        0.1022803535  W2        13858           0.0000000000
     41574     13858  TIP3      H2            -17.0641666405       46.4828277139        0.1933903535  W2        13858           0.0000000000
     41575     13859  TIP3      OH2           -19.9436266405       43.3761777139      -16.5590396465  W2        13859           0.0000000000
     41576     13859  TIP3      H1            -19.3330466405       43.0048577139      -15.9222196465  W2        13859           0.0000000000
     41577     13859  TIP3      H2            -20.7804766405       42.9548677139      -16.3630396465  W2        13859           0.0000000000
     41578     13860  TIP3      OH2           -20.3110566405       44.9310177139      -11.5930496465  W2        13860           0.0000000000
     41579     13860  TIP3      H1            -20.0313466405       44.0240577139      -11.4688796465  W2        13860           0.0000000000
     41580     13860  TIP3      H2            -19.5518866405       45.3651677139      -11.9821296465  W2        13860           0.0000000000
     41581     13861  TIP3      OH2           -19.6992266405       45.5127577139       -6.1571596465  W2        13861           0.0000000000
     41582     13861  TIP3      H1            -18.7664266405       45.7247477139       -6.1915596465  W2        13861           0.0000000000
     41583     13861  TIP3      H2            -19.9344766405       45.6139677139       -5.2348596465  W2        13861           0.0000000000
     41584     13862  TIP3      OH2           -19.6700366405       46.2492877139       -3.3812196465  W2        13862           0.0000000000
     41585     13862  TIP3      H1            -20.5129066405       46.5173277139       -3.0152396465  W2        13862           0.0000000000
     41586     13862  TIP3      H2            -19.2276066405       47.0714777139       -3.5921096465  W2        13862           0.0000000000
     41587     13863  TIP3      OH2           -35.3888166405       44.6971577139        0.0957003535  W2        13863           0.0000000000
     41588     13863  TIP3      H1            -34.4693266405       44.5749877139        0.3320103535  W2        13863           0.0000000000
     41589     13863  TIP3      H2            -35.8383666405       43.9471277139        0.4850503535  W2        13863           0.0000000000
     41590     13864  TIP3      OH2           -17.3868766405       40.2293077139        1.9722803535  W2        13864           0.0000000000
     41591     13864  TIP3      H1            -17.0371766405       39.5756577139        1.3667503535  W2        13864           0.0000000000
     41592     13864  TIP3      H2            -17.2399266405       41.0667177139        1.5325403535  W2        13864           0.0000000000
     41593     13865  TIP3      OH2           -19.6975766405       42.1939477139      -11.5448496465  W2        13865           0.0000000000
     41594     13865  TIP3      H1            -19.5150766405       41.7450977139      -10.7193496465  W2        13865           0.0000000000
     41595     13865  TIP3      H2            -20.2972866405       41.6093877139      -12.0083896465  W2        13865           0.0000000000
     41596     13866  TIP3      OH2           -34.1675666405       43.0093177139       -7.0130096465  W2        13866           0.0000000000
     41597     13866  TIP3      H1            -33.7224066405       42.2175677139       -6.7110396465  W2        13866           0.0000000000
     41598     13866  TIP3      H2            -33.7012666405       43.7258377139       -6.5824496465  W2        13866           0.0000000000
     41599     13867  TIP3      OH2           -35.8635366405       46.0086177139       -5.9439896465  W2        13867           0.0000000000
     41600     13867  TIP3      H1            -35.3715566405       45.7876677139       -6.7347896465  W2        13867           0.0000000000
     41601     13867  TIP3      H2            -35.5014466405       46.8489577139       -5.6630396465  W2        13867           0.0000000000
     41602     13868  TIP3      OH2           -17.8671566405       42.3387677139        0.3214103535  W2        13868           0.0000000000
     41603     13868  TIP3      H1            -18.7845866405       42.6094777139        0.2857603535  W2        13868           0.0000000000
     41604     13868  TIP3      H2            -17.7442166405       41.8036077139       -0.4626196465  W2        13868           0.0000000000
     41605     13869  TIP3      OH2           -17.8309566405       42.2617577139      -15.0168196465  W2        13869           0.0000000000
     41606     13869  TIP3      H1            -17.4186966405       41.5403277139      -15.4920196465  W2        13869           0.0000000000
     41607     13869  TIP3      H2            -17.1493066405       42.9312177139      -14.9583896465  W2        13869           0.0000000000
     41608     13870  TIP3      OH2           -35.5498866405       42.2665277139      -11.8897496465  W2        13870           0.0000000000
     41609     13870  TIP3      H1            -36.4750466405       42.4751877139      -12.0191996465  W2        13870           0.0000000000
     41610     13870  TIP3      H2            -35.0958966405       42.7506077139      -12.5795196465  W2        13870           0.0000000000
     41611     13871  TIP3      OH2           -35.5863466405       41.0044277139       -3.5454996465  W2        13871           0.0000000000
     41612     13871  TIP3      H1            -36.2512966405       40.7584577139       -2.9024096465  W2        13871           0.0000000000
     41613     13871  TIP3      H2            -36.0292166405       41.6264677139       -4.1226996465  W2        13871           0.0000000000
     41614     13872  TIP3      OH2           -33.3944166405       54.1798377139        0.5990803535  W2        13872           0.0000000000
     41615     13872  TIP3      H1            -34.2151666405       54.3544877139        0.1385503535  W2        13872           0.0000000000
     41616     13872  TIP3      H2            -33.6466366405       54.1063077139        1.5195203535  W2        13872           0.0000000000
     41617     13873  TIP3      OH2           -18.8665666405       40.4283977139       -1.8595096465  W2        13873           0.0000000000
     41618     13873  TIP3      H1            -19.6792166405       40.7534277139       -2.2470396465  W2        13873           0.0000000000
     41619     13873  TIP3      H2            -18.6337166405       39.6682477139       -2.3925996465  W2        13873           0.0000000000
     41620     13874  TIP3      OH2           -25.4367166405       41.8774577139       -7.5366896465  W2        13874           0.0000000000
     41621     13874  TIP3      H1            -26.1110366405       41.2480177139       -7.2811096465  W2        13874           0.0000000000
     41622     13874  TIP3      H2            -24.8727966405       41.3933477139       -8.1398996465  W2        13874           0.0000000000
     41623     13875  TIP3      OH2           -20.2939966405       39.9848577139       -7.4239796465  W2        13875           0.0000000000
     41624     13875  TIP3      H1            -19.6902366405       40.5323977139       -7.9258796465  W2        13875           0.0000000000
     41625     13875  TIP3      H2            -21.1637966405       40.3038977139       -7.6645696465  W2        13875           0.0000000000
     41626     13876  TIP3      OH2           -18.5669566405       41.1237277139       -9.0908896465  W2        13876           0.0000000000
     41627     13876  TIP3      H1            -17.9552066405       40.6092977139       -9.6175296465  W2        13876           0.0000000000
     41628     13876  TIP3      H2            -18.1846166405       42.0009377139       -9.0674496465  W2        13876           0.0000000000
     41629     13877  TIP3      OH2           -33.1099666405       40.5114877139       -9.7146996465  W2        13877           0.0000000000
     41630     13877  TIP3      H1            -33.8869866405       40.2769777139      -10.2221096465  W2        13877           0.0000000000
     41631     13877  TIP3      H2            -32.5796066405       39.7146977139       -9.7058996465  W2        13877           0.0000000000
     41632     13878  TIP3      OH2           -34.2736266405       40.3092977139      -13.9110896465  W2        13878           0.0000000000
     41633     13878  TIP3      H1            -33.8345566405       40.9203477139      -14.5027396465  W2        13878           0.0000000000
     41634     13878  TIP3      H2            -34.9073866405       40.8477077139      -13.4370896465  W2        13878           0.0000000000
     41635     13879  TIP3      OH2           -28.5307066405       40.4381977139       -9.9013896465  W2        13879           0.0000000000
     41636     13879  TIP3      H1            -27.6563666405       40.8266277139       -9.9309596465  W2        13879           0.0000000000
     41637     13879  TIP3      H2            -28.6666266405       40.2229777139       -8.9786696465  W2        13879           0.0000000000
     41638     13880  TIP3      OH2           -22.9738666405       40.4681777139       -8.2522196465  W2        13880           0.0000000000
     41639     13880  TIP3      H1            -22.8977066405       40.5633377139       -9.2016196465  W2        13880           0.0000000000
     41640     13880  TIP3      H2            -23.2489466405       39.5604677139       -8.1233096465  W2        13880           0.0000000000
     41641     13881  TIP3      OH2           -21.6206066405       40.4939577139      -12.5597196465  W2        13881           0.0000000000
     41642     13881  TIP3      H1            -22.3234966405       41.1088777139      -12.7695796465  W2        13881           0.0000000000
     41643     13881  TIP3      H2            -22.0654666405       39.6566277139      -12.4286296465  W2        13881           0.0000000000
     41644     13882  TIP3      OH2           -32.4127166405       42.2254477139      -15.4686796465  W2        13882           0.0000000000
     41645     13882  TIP3      H1            -31.9213766405       41.5956877139      -15.9961296465  W2        13882           0.0000000000
     41646     13882  TIP3      H2            -31.7890866405       42.5213877139      -14.8055596465  W2        13882           0.0000000000
     41647     13883  TIP3      OH2           -27.3867066405       42.5185977139      -13.0116296465  W2        13883           0.0000000000
     41648     13883  TIP3      H1            -27.2085766405       41.8719177139      -12.3287696465  W2        13883           0.0000000000
     41649     13883  TIP3      H2            -27.4400866405       43.3523677139      -12.5445196465  W2        13883           0.0000000000
     41650     13884  TIP3      OH2           -33.1521666405       41.0256777139       -0.1970796465  W2        13884           0.0000000000
     41651     13884  TIP3      H1            -33.5183466405       40.2599377139        0.2453903535  W2        13884           0.0000000000
     41652     13884  TIP3      H2            -32.2393166405       41.0546977139        0.0894303535  W2        13884           0.0000000000
     41653     13885  TIP3      OH2           -31.1790866405       40.3761177139        1.3386303535  W2        13885           0.0000000000
     41654     13885  TIP3      H1            -30.2807266405       40.1021377139        1.1539703535  W2        13885           0.0000000000
     41655     13885  TIP3      H2            -31.5657766405       39.6337177139        1.8028903535  W2        13885           0.0000000000
     41656     13886  TIP3      OH2           -22.7578566405       39.7086477139        1.5209103535  W2        13886           0.0000000000
     41657     13886  TIP3      H1            -22.6811366405       39.2827177139        2.3746803535  W2        13886           0.0000000000
     41658     13886  TIP3      H2            -21.8641966405       39.7221177139        1.1782603535  W2        13886           0.0000000000
     41659     13887  TIP3      OH2            -5.1757066405       49.6677177139       -9.7559496465  W2        13887           0.0000000000
     41660     13887  TIP3      H1             -5.0865966405       50.6115377139       -9.8882396465  W2        13887           0.0000000000
     41661     13887  TIP3      H2             -5.8139466405       49.3923577139      -10.4140096465  W2        13887           0.0000000000
     41662     13888  TIP3      OH2            -6.2425766405       48.9227877139       -6.3371296465  W2        13888           0.0000000000
     41663     13888  TIP3      H1             -6.2808266405       48.2764177139       -5.6321696465  W2        13888           0.0000000000
     41664     13888  TIP3      H2             -6.5649266405       48.4562277139       -7.1082596465  W2        13888           0.0000000000
     41665     13889  TIP3      OH2           -13.8740766405       48.5369977139       -4.7441396465  W2        13889           0.0000000000
     41666     13889  TIP3      H1            -13.8328666405       47.9113277139       -4.0208996465  W2        13889           0.0000000000
     41667     13889  TIP3      H2            -13.1713066405       49.1608577139       -4.5620996465  W2        13889           0.0000000000
     41668     13890  TIP3      OH2            -2.5365566405       51.8618277139       -8.0356196465  W2        13890           0.0000000000
     41669     13890  TIP3      H1             -2.9772866405       51.1414277139       -7.5850596465  W2        13890           0.0000000000
     41670     13890  TIP3      H2             -2.5495866405       52.5825477139       -7.4058496465  W2        13890           0.0000000000
     41671     13891  TIP3      OH2           -12.9507666405       52.9868877139       -6.2092296465  W2        13891           0.0000000000
     41672     13891  TIP3      H1            -13.3202466405       52.1849377139       -6.5787996465  W2        13891           0.0000000000
     41673     13891  TIP3      H2            -12.0096566405       52.8183777139       -6.1628896465  W2        13891           0.0000000000
     41674     13892  TIP3      OH2           -16.3407166405       46.6471477139      -10.8163496465  W2        13892           0.0000000000
     41675     13892  TIP3      H1            -16.7883766405       47.4930177139      -10.8346996465  W2        13892           0.0000000000
     41676     13892  TIP3      H2            -16.9015966405       46.0675677139      -11.3318396465  W2        13892           0.0000000000
     41677     13893  TIP3      OH2           -15.6301066405       48.8091077139       -8.6905496465  W2        13893           0.0000000000
     41678     13893  TIP3      H1            -15.4167566405       48.0392677139       -8.1632496465  W2        13893           0.0000000000
     41679     13893  TIP3      H2            -14.8923466405       48.8987777139       -9.2937896465  W2        13893           0.0000000000
     41680     13894  TIP3      OH2            -7.8531366405       51.3549277139       -5.9310296465  W2        13894           0.0000000000
     41681     13894  TIP3      H1             -7.5493466405       50.6690677139       -6.5256196465  W2        13894           0.0000000000
     41682     13894  TIP3      H2             -7.1317366405       51.4737977139       -5.3132296465  W2        13894           0.0000000000
     41683     13895  TIP3      OH2             0.8098433595       42.9564577139       -5.0704096465  W2        13895           0.0000000000
     41684     13895  TIP3      H1              0.8590633595       43.5665777139       -4.3344996465  W2        13895           0.0000000000
     41685     13895  TIP3      H2              1.2353533595       43.4175477139       -5.7932996465  W2        13895           0.0000000000
     41686     13896  TIP3      OH2            -4.7124366405       45.7491677139       -5.6035496465  W2        13896           0.0000000000
     41687     13896  TIP3      H1             -4.5698466405       44.8028677139       -5.5833896465  W2        13896           0.0000000000
     41688     13896  TIP3      H2             -4.8185366405       45.9561477139       -6.5320596465  W2        13896           0.0000000000
     41689     13897  TIP3      OH2           -11.5576066405       43.8508077139       -8.3310696465  W2        13897           0.0000000000
     41690     13897  TIP3      H1            -11.5144966405       44.7106577139       -8.7494396465  W2        13897           0.0000000000
     41691     13897  TIP3      H2            -12.0151966405       43.2982777139       -8.9647496465  W2        13897           0.0000000000
     41692     13898  TIP3      OH2            -3.8353366405       43.9813677139       -9.9302396465  W2        13898           0.0000000000
     41693     13898  TIP3      H1             -3.1889066405       43.6526877139       -9.3054796465  W2        13898           0.0000000000
     41694     13898  TIP3      H2             -3.3253966405       44.4992677139      -10.5530996465  W2        13898           0.0000000000
     41695     13899  TIP3      OH2           -14.9374566405       46.2473877139       -7.5689296465  W2        13899           0.0000000000
     41696     13899  TIP3      H1            -14.2837966405       45.6975577139       -7.1369196465  W2        13899           0.0000000000
     41697     13899  TIP3      H2            -14.9135266405       45.9732877139       -8.4857296465  W2        13899           0.0000000000
     41698     13900  TIP3      OH2            -9.7810066405       47.7975177139       -8.3537796465  W2        13900           0.0000000000
     41699     13900  TIP3      H1             -9.1649066405       47.2710577139       -7.8443796465  W2        13900           0.0000000000
     41700     13900  TIP3      H2            -10.3671266405       47.1573877139       -8.7574196465  W2        13900           0.0000000000
     41701     13901  TIP3      OH2             1.2013033595       44.4343777139       -2.8344296465  W2        13901           0.0000000000
     41702     13901  TIP3      H1              0.5127633595       45.0924477139       -2.9297696465  W2        13901           0.0000000000
     41703     13901  TIP3      H2              1.2167633595       44.2371677139       -1.8978896465  W2        13901           0.0000000000
     41704     13902  TIP3      OH2           -12.7474166405       42.7686477139       -4.2569896465  W2        13902           0.0000000000
     41705     13902  TIP3      H1            -12.9662466405       43.2987077139       -5.0233896465  W2        13902           0.0000000000
     41706     13902  TIP3      H2            -13.4153266405       42.9951977139       -3.6098496465  W2        13902           0.0000000000
     41707     13903  TIP3      OH2            -5.3784366405       52.2687577139      -10.7130796465  W2        13903           0.0000000000
     41708     13903  TIP3      H1             -5.6739266405       51.9459877139      -11.5643896465  W2        13903           0.0000000000
     41709     13903  TIP3      H2             -5.7026566405       53.1684277139      -10.6718196465  W2        13903           0.0000000000
     41710     13904  TIP3      OH2           -10.1782766405       50.4442177139       -3.9696196465  W2        13904           0.0000000000
     41711     13904  TIP3      H1            -10.9183666405       51.0423677139       -3.8660996465  W2        13904           0.0000000000
     41712     13904  TIP3      H2             -9.4643266405       50.9981777139       -4.2852596465  W2        13904           0.0000000000
     41713     13905  TIP3      OH2            -2.0714966405       43.2722977139       -7.9496496465  W2        13905           0.0000000000
     41714     13905  TIP3      H1             -2.2866966405       42.5066377139       -7.4170496465  W2        13905           0.0000000000
     41715     13905  TIP3      H2             -1.4157566405       43.7447577139       -7.4367996465  W2        13905           0.0000000000
     41716     13906  TIP3      OH2           -13.1536866405       44.6608277139       -6.3047696465  W2        13906           0.0000000000
     41717     13906  TIP3      H1            -12.5400566405       45.2935877139       -5.9315296465  W2        13906           0.0000000000
     41718     13906  TIP3      H2            -12.6416166405       44.1883277139       -6.9610796465  W2        13906           0.0000000000
     41719     13907  TIP3      OH2           -11.7708466405       52.4085177139       -3.1824696465  W2        13907           0.0000000000
     41720     13907  TIP3      H1            -11.7760866405       53.2878677139       -3.5605396465  W2        13907           0.0000000000
     41721     13907  TIP3      H2            -12.6244366405       52.3249277139       -2.7574796465  W2        13907           0.0000000000
     41722     13908  TIP3      OH2           -15.6497566405       52.0793077139      -12.4005396465  W2        13908           0.0000000000
     41723     13908  TIP3      H1            -15.9216666405       52.3084077139      -13.2892496465  W2        13908           0.0000000000
     41724     13908  TIP3      H2            -15.6041866405       52.9171877139      -11.9400096465  W2        13908           0.0000000000
     41725     13909  TIP3      OH2            -2.0247866405       53.7008977139       -5.6876896465  W2        13909           0.0000000000
     41726     13909  TIP3      H1             -2.9664166405       53.7592877139       -5.5259996465  W2        13909           0.0000000000
     41727     13909  TIP3      H2             -1.7481766405       54.6069477139       -5.8247196465  W2        13909           0.0000000000
     41728     13910  TIP3      OH2            -1.7240866405       41.9874277139       -4.2702996465  W2        13910           0.0000000000
     41729     13910  TIP3      H1             -2.4601666405       42.5981377139       -4.3081696465  W2        13910           0.0000000000
     41730     13910  TIP3      H2             -1.0406866405       42.4023277139       -4.7966596465  W2        13910           0.0000000000
     41731     13911  TIP3      OH2            -8.7209466405       40.0741577139       -6.8044996465  W2        13911           0.0000000000
     41732     13911  TIP3      H1             -8.8385266405       39.1257577139       -6.8586696465  W2        13911           0.0000000000
     41733     13911  TIP3      H2             -9.5759366405       40.4067677139       -6.5313896465  W2        13911           0.0000000000
     41734     13912  TIP3      OH2            -2.6130166405       53.3830977139      -10.5538696465  W2        13912           0.0000000000
     41735     13912  TIP3      H1             -2.8705366405       52.6931077139      -11.1652796465  W2        13912           0.0000000000
     41736     13912  TIP3      H2             -2.5419366405       52.9402177139       -9.7082796465  W2        13912           0.0000000000
     41737     13913  TIP3      OH2            -0.9269966405       51.9497677139       -2.0765196465  W2        13913           0.0000000000
     41738     13913  TIP3      H1             -0.7873666405       51.3580177139       -2.8158196465  W2        13913           0.0000000000
     41739     13913  TIP3      H2             -0.7597166405       52.8223577139       -2.4326396465  W2        13913           0.0000000000
     41740     13914  TIP3      OH2            -6.4544566405       48.9117177139      -12.3039196465  W2        13914           0.0000000000
     41741     13914  TIP3      H1             -7.1659066405       49.4466877139      -12.6558696465  W2        13914           0.0000000000
     41742     13914  TIP3      H2             -5.7634966405       48.9669277139      -12.9640296465  W2        13914           0.0000000000
     41743     13915  TIP3      OH2            -6.4005366405       47.3691477139      -15.2654196465  W2        13915           0.0000000000
     41744     13915  TIP3      H1             -5.6995466405       47.3918377139      -14.6140196465  W2        13915           0.0000000000
     41745     13915  TIP3      H2             -6.0982466405       46.7411177139      -15.9214896465  W2        13915           0.0000000000
     41746     13916  TIP3      OH2             0.9149333595       48.2895677139       -4.0104796465  W2        13916           0.0000000000
     41747     13916  TIP3      H1              0.2623433595       48.9841277139       -3.9213896465  W2        13916           0.0000000000
     41748     13916  TIP3      H2              1.3799633595       48.4996577139       -4.8203196465  W2        13916           0.0000000000
     41749     13917  TIP3      OH2            -3.0486866405       49.1210477139      -11.3523296465  W2        13917           0.0000000000
     41750     13917  TIP3      H1             -3.7805866405       49.3494177139      -10.7792696465  W2        13917           0.0000000000
     41751     13917  TIP3      H2             -2.6014666405       48.4073177139      -10.8975796465  W2        13917           0.0000000000
     41752     13918  TIP3      OH2            -3.1513366405       47.2953077139       -2.2846296465  W2        13918           0.0000000000
     41753     13918  TIP3      H1             -3.0714266405       48.0587477139       -1.7127796465  W2        13918           0.0000000000
     41754     13918  TIP3      H2             -3.7525666405       47.5745477139       -2.9751196465  W2        13918           0.0000000000
     41755     13919  TIP3      OH2           -11.4033166405       49.7516677139       -9.4698296465  W2        13919           0.0000000000
     41756     13919  TIP3      H1            -11.7337966405       49.3810077139      -10.2881296465  W2        13919           0.0000000000
     41757     13919  TIP3      H2            -10.8149066405       49.0810677139       -9.1229996465  W2        13919           0.0000000000
     41758     13920  TIP3      OH2           -10.0365666405       53.1797277139       -6.7886096465  W2        13920           0.0000000000
     41759     13920  TIP3      H1            -10.1314366405       52.6010377139       -7.5451496465  W2        13920           0.0000000000
     41760     13920  TIP3      H2             -9.3072066405       52.8082977139       -6.2923296465  W2        13920           0.0000000000
     41761     13921  TIP3      OH2           -11.0367666405       48.5202277139       -5.8363296465  W2        13921           0.0000000000
     41762     13921  TIP3      H1            -10.4715166405       48.6416477139       -6.5992096465  W2        13921           0.0000000000
     41763     13921  TIP3      H2            -10.7178766405       49.1577277139       -5.1974796465  W2        13921           0.0000000000
     41764     13922  TIP3      OH2            -4.7275466405       54.0234177139       -5.1022796465  W2        13922           0.0000000000
     41765     13922  TIP3      H1             -4.9678866405       54.6857277139       -4.4543596465  W2        13922           0.0000000000
     41766     13922  TIP3      H2             -4.9257266405       53.1889377139       -4.6773196465  W2        13922           0.0000000000
     41767     13923  TIP3      OH2           -10.1566966405       52.9194977139       -1.1191396465  W2        13923           0.0000000000
     41768     13923  TIP3      H1            -10.4679466405       53.7018177139       -0.6638196465  W2        13923           0.0000000000
     41769     13923  TIP3      H2            -10.8066766405       52.7664077139       -1.8049396465  W2        13923           0.0000000000
     41770     13924  TIP3      OH2            -4.1777366405       48.2833377139      -13.6672096465  W2        13924           0.0000000000
     41771     13924  TIP3      H1             -3.5981866405       48.4333677139      -12.9203196465  W2        13924           0.0000000000
     41772     13924  TIP3      H2             -3.7637366405       48.7540777139      -14.3905696465  W2        13924           0.0000000000
     41773     13925  TIP3      OH2           -13.2367066405       49.1176077139       -1.8905696465  W2        13925           0.0000000000
     41774     13925  TIP3      H1            -13.1663866405       49.7682877139       -1.1920696465  W2        13925           0.0000000000
     41775     13925  TIP3      H2            -14.1274866405       49.2203577139       -2.2254796465  W2        13925           0.0000000000
     41776     13926  TIP3      OH2           -11.9171066405       54.9909977139       -0.3557596465  W2        13926           0.0000000000
     41777     13926  TIP3      H1            -11.9095766405       54.8549677139       -1.3032096465  W2        13926           0.0000000000
     41778     13926  TIP3      H2            -12.8330666405       54.8738077139       -0.1037596465  W2        13926           0.0000000000
     41779     13927  TIP3      OH2            -0.4788966405       40.0333777139      -13.8542396465  W2        13927           0.0000000000
     41780     13927  TIP3      H1             -1.3788266405       40.1722777139      -13.5591796465  W2        13927           0.0000000000
     41781     13927  TIP3      H2             -0.2270566405       40.8648377139      -14.2560696465  W2        13927           0.0000000000
     41782     13928  TIP3      OH2           -12.4130466405       48.8210977139      -11.8805496465  W2        13928           0.0000000000
     41783     13928  TIP3      H1            -12.7049166405       49.5892677139      -12.3714196465  W2        13928           0.0000000000
     41784     13928  TIP3      H2            -13.0875266405       48.1617177139      -12.0434096465  W2        13928           0.0000000000
     41785     13929  TIP3      OH2             0.7102433595       54.3996177139      -15.4778496465  W2        13929           0.0000000000
     41786     13929  TIP3      H1              0.7835933595       55.3386377139      -15.3073196465  W2        13929           0.0000000000
     41787     13929  TIP3      H2              1.6157533595       54.0944777139      -15.5341196465  W2        13929           0.0000000000
     41788     13930  TIP3      OH2           -16.3200366405       51.1840177139       -3.0655696465  W2        13930           0.0000000000
     41789     13930  TIP3      H1            -16.8211966405       51.1559577139       -3.8805996465  W2        13930           0.0000000000
     41790     13930  TIP3      H2            -16.3146666405       50.2783377139       -2.7558396465  W2        13930           0.0000000000
     41791     13931  TIP3      OH2           -16.5697666405       53.9643977139       -6.1815496465  W2        13931           0.0000000000
     41792     13931  TIP3      H1            -15.6237066405       53.8200977139       -6.2005996465  W2        13931           0.0000000000
     41793     13931  TIP3      H2            -16.6821366405       54.7486777139       -5.6444296465  W2        13931           0.0000000000
     41794     13932  TIP3      OH2             1.6280833595       54.6303677139       -0.4991796465  W2        13932           0.0000000000
     41795     13932  TIP3      H1              1.5787633595       53.6751777139       -0.5364196465  W2        13932           0.0000000000
     41796     13932  TIP3      H2              0.8013133595       54.8978977139       -0.0977996465  W2        13932           0.0000000000
     41797     13933  TIP3      OH2            -7.3935166405       54.2042877139       -1.6230396465  W2        13933           0.0000000000
     41798     13933  TIP3      H1             -7.3060566405       55.0307477139       -1.1481296465  W2        13933           0.0000000000
     41799     13933  TIP3      H2             -8.2570066405       53.8746677139       -1.3741096465  W2        13933           0.0000000000
     41800     13934  TIP3      OH2            -1.2199366405       46.1236177139       -0.0189596465  W2        13934           0.0000000000
     41801     13934  TIP3      H1             -1.6272566405       46.6041777139       -0.7396296465  W2        13934           0.0000000000
     41802     13934  TIP3      H2             -1.1793666405       45.2182177139       -0.3268796465  W2        13934           0.0000000000
     41803     13935  TIP3      OH2           -14.0709866405       52.5075577139       -2.0222896465  W2        13935           0.0000000000
     41804     13935  TIP3      H1            -13.8548566405       52.1461177139       -1.1627096465  W2        13935           0.0000000000
     41805     13935  TIP3      H2            -14.9265166405       52.1329377139       -2.2319396465  W2        13935           0.0000000000
     41806     13936  TIP3      OH2           -11.4521866405       40.9776077139       -6.0268696465  W2        13936           0.0000000000
     41807     13936  TIP3      H1            -12.3138166405       40.8904277139       -6.4345796465  W2        13936           0.0000000000
     41808     13936  TIP3      H2            -11.4746166405       41.8336177139       -5.5991096465  W2        13936           0.0000000000
     41809     13937  TIP3      OH2            -6.7894066405       40.6996477139       -2.6521696465  W2        13937           0.0000000000
     41810     13937  TIP3      H1             -6.3690966405       40.2843577139       -1.8991096465  W2        13937           0.0000000000
     41811     13937  TIP3      H2             -7.7224466405       40.5209777139       -2.5349696465  W2        13937           0.0000000000
     41812     13938  TIP3      OH2            -3.4629166405       44.4551677139       -1.7987196465  W2        13938           0.0000000000
     41813     13938  TIP3      H1             -3.9769666405       44.3293877139       -1.0011196465  W2        13938           0.0000000000
     41814     13938  TIP3      H2             -3.6184466405       45.3674777139       -2.0430996465  W2        13938           0.0000000000
     41815     13939  TIP3      OH2            -2.7004266405       49.3161677139      -16.0374196465  W2        13939           0.0000000000
     41816     13939  TIP3      H1             -2.6583466405       49.0935577139      -16.9674196465  W2        13939           0.0000000000
     41817     13939  TIP3      H2             -1.8512166405       49.7148777139      -15.8474296465  W2        13939           0.0000000000
     41818     13940  TIP3      OH2            -7.1276766405       43.1919877139      -15.3670896465  W2        13940           0.0000000000
     41819     13940  TIP3      H1             -7.3811966405       43.2111477139      -14.4442796465  W2        13940           0.0000000000
     41820     13940  TIP3      H2             -7.3844666405       42.3205277139      -15.6684696465  W2        13940           0.0000000000
     41821     13941  TIP3      OH2           -11.3611766405       45.9430577139       -4.9318496465  W2        13941           0.0000000000
     41822     13941  TIP3      H1            -12.0029666405       45.9027877139       -4.2228396465  W2        13941           0.0000000000
     41823     13941  TIP3      H2            -11.3239766405       46.8695277139       -5.1695496465  W2        13941           0.0000000000
     41824     13942  TIP3      OH2           -11.3642666405       46.1640677139      -10.0198496465  W2        13942           0.0000000000
     41825     13942  TIP3      H1            -12.2569766405       45.8236777139      -10.0784696465  W2        13942           0.0000000000
     41826     13942  TIP3      H2            -10.9136066405       45.7871577139      -10.7755296465  W2        13942           0.0000000000
     41827     13943  TIP3      OH2            -5.8287166405       46.5800977139      -11.2027696465  W2        13943           0.0000000000
     41828     13943  TIP3      H1             -6.2376866405       47.3949577139      -11.4942896465  W2        13943           0.0000000000
     41829     13943  TIP3      H2             -5.1080966405       46.4401077139      -11.8170596465  W2        13943           0.0000000000
     41830     13944  TIP3      OH2            -6.7265566405       46.7557377139        0.2853003535  W2        13944           0.0000000000
     41831     13944  TIP3      H1             -7.2891766405       46.0508977139        0.6060803535  W2        13944           0.0000000000
     41832     13944  TIP3      H2             -5.9002166405       46.6349277139        0.7530603535  W2        13944           0.0000000000
     41833     13945  TIP3      OH2            -4.8239466405       46.0261377139       -8.3887996465  W2        13945           0.0000000000
     41834     13945  TIP3      H1             -5.0194966405       46.6318177139       -9.1037396465  W2        13945           0.0000000000
     41835     13945  TIP3      H2             -4.6426866405       45.1926577139       -8.8231696465  W2        13945           0.0000000000
     41836     13946  TIP3      OH2           -13.6111266405       46.2634077139       -3.0646496465  W2        13946           0.0000000000
     41837     13946  TIP3      H1            -13.6491866405       46.6635677139       -2.1959396465  W2        13946           0.0000000000
     41838     13946  TIP3      H2            -14.1020166405       45.4466477139       -2.9743596465  W2        13946           0.0000000000
     41839     13947  TIP3      OH2           -10.2453866405       43.6376377139      -16.2660496465  W2        13947           0.0000000000
     41840     13947  TIP3      H1            -10.6763166405       43.1926477139      -15.5363096465  W2        13947           0.0000000000
     41841     13947  TIP3      H2            -10.9635166405       44.0092677139      -16.7782996465  W2        13947           0.0000000000
     41842     13948  TIP3      OH2           -17.0030466405       43.3795877139       -9.2141796465  W2        13948           0.0000000000
     41843     13948  TIP3      H1            -16.3722766405       43.3507977139       -8.4947896465  W2        13948           0.0000000000
     41844     13948  TIP3      H2            -16.5536166405       42.9544577139       -9.9445896465  W2        13948           0.0000000000
     41845     13949  TIP3      OH2           -15.7288366405       44.1257877139      -13.7901396465  W2        13949           0.0000000000
     41846     13949  TIP3      H1            -15.2546666405       44.7167777139      -14.3750496465  W2        13949           0.0000000000
     41847     13949  TIP3      H2            -16.4461966405       44.6560777139      -13.4431296465  W2        13949           0.0000000000
     41848     13950  TIP3      OH2            -5.5600266405       47.6642677139       -3.7175596465  W2        13950           0.0000000000
     41849     13950  TIP3      H1             -5.2365466405       47.0332377139       -4.3605096465  W2        13950           0.0000000000
     41850     13950  TIP3      H2             -6.0000966405       47.1294877139       -3.0568196465  W2        13950           0.0000000000
     41851     13951  TIP3      OH2            -8.7827366405       43.5918177139       -8.9334396465  W2        13951           0.0000000000
     41852     13951  TIP3      H1             -9.6936266405       43.6484977139       -8.6448396465  W2        13951           0.0000000000
     41853     13951  TIP3      H2             -8.2774466405       43.5313677139       -8.1227196465  W2        13951           0.0000000000
     41854     13952  TIP3      OH2           -13.9543966405       45.2204477139      -10.1066796465  W2        13952           0.0000000000
     41855     13952  TIP3      H1            -14.8435966405       45.3199977139      -10.4467196465  W2        13952           0.0000000000
     41856     13952  TIP3      H2            -13.6579066405       44.3787477139      -10.4528896465  W2        13952           0.0000000000
     41857     13953  TIP3      OH2           -10.3012166405       45.2207077139      -12.4502196465  W2        13953           0.0000000000
     41858     13953  TIP3      H1             -9.3696666405       45.3497077139      -12.2719096465  W2        13953           0.0000000000
     41859     13953  TIP3      H2            -10.5161866405       45.8901377139      -13.0997496465  W2        13953           0.0000000000
     41860     13954  TIP3      OH2            -4.3775466405       42.8264477139       -5.6692596465  W2        13954           0.0000000000
     41861     13954  TIP3      H1             -5.0543866405       42.9577577139       -5.0052896465  W2        13954           0.0000000000
     41862     13954  TIP3      H2             -4.8630566405       42.6713977139       -6.4794896465  W2        13954           0.0000000000
     41863     13955  TIP3      OH2           -11.6271966405       46.4149277139      -14.8836096465  W2        13955           0.0000000000
     41864     13955  TIP3      H1            -12.1696866405       46.0353077139      -15.5748496465  W2        13955           0.0000000000
     41865     13955  TIP3      H2            -10.7937066405       46.6093977139      -15.3121996465  W2        13955           0.0000000000
     41866     13956  TIP3      OH2           -13.4920566405       50.9721177139        0.2155503535  W2        13956           0.0000000000
     41867     13956  TIP3      H1            -12.7598166405       51.2267077139        0.7770003535  W2        13956           0.0000000000
     41868     13956  TIP3      H2            -14.2721866405       51.1766577139        0.7310903535  W2        13956           0.0000000000
     41869     13957  TIP3      OH2            -7.4627666405       46.3791177139       -7.0464796465  W2        13957           0.0000000000
     41870     13957  TIP3      H1             -6.8984266405       45.8327777139       -7.5935196465  W2        13957           0.0000000000
     41871     13957  TIP3      H2             -7.6104266405       45.8573077139       -6.2577196465  W2        13957           0.0000000000
     41872     13958  TIP3      OH2           -12.4607966405       42.5157277139      -10.6279996465  W2        13958           0.0000000000
     41873     13958  TIP3      H1            -12.7778466405       41.6132577139      -10.6634596465  W2        13958           0.0000000000
     41874     13958  TIP3      H2            -11.6793866405       42.5174677139      -11.1808396465  W2        13958           0.0000000000
     41875     13959  TIP3      OH2            -8.8361766405       44.7677277139       -4.6324396465  W2        13959           0.0000000000
     41876     13959  TIP3      H1             -9.6716466405       45.2216777139       -4.5221996465  W2        13959           0.0000000000
     41877     13959  TIP3      H2             -8.3121166405       45.0435777139       -3.8804496465  W2        13959           0.0000000000
     41878     13960  TIP3      OH2            -8.2919166405       50.9804977139      -12.9477996465  W2        13960           0.0000000000
     41879     13960  TIP3      H1             -9.0368166405       50.4730277139      -13.2700096465  W2        13960           0.0000000000
     41880     13960  TIP3      H2             -8.4261966405       51.0292977139      -12.0013196465  W2        13960           0.0000000000
     41881     13961  TIP3      OH2            -1.1420266405       50.1133177139       -4.1610396465  W2        13961           0.0000000000
     41882     13961  TIP3      H1             -0.5001466405       50.5699477139       -4.7048196465  W2        13961           0.0000000000
     41883     13961  TIP3      H2             -1.9723366405       50.2265577139       -4.6236296465  W2        13961           0.0000000000
     41884     13962  TIP3      OH2            -4.3942366405       43.7944877139      -14.7485396465  W2        13962           0.0000000000
     41885     13962  TIP3      H1             -5.3328166405       43.9060477139      -14.8996596465  W2        13962           0.0000000000
     41886     13962  TIP3      H2             -4.0970266405       44.6511777139      -14.4419696465  W2        13962           0.0000000000
     41887     13963  TIP3      OH2            -6.7727066405       51.1648277139       -1.7108896465  W2        13963           0.0000000000
     41888     13963  TIP3      H1             -7.1180966405       50.7830677139       -0.9039296465  W2        13963           0.0000000000
     41889     13963  TIP3      H2             -6.9726966405       52.0981877139       -1.6395996465  W2        13963           0.0000000000
     41890     13964  TIP3      OH2            -3.6758866405       45.6617577139      -13.0877996465  W2        13964           0.0000000000
     41891     13964  TIP3      H1             -2.7839866405       45.5242577139      -12.7686796465  W2        13964           0.0000000000
     41892     13964  TIP3      H2             -3.6195266405       46.4523677139      -13.6244496465  W2        13964           0.0000000000
     41893     13965  TIP3      OH2           -13.1670866405       50.2754977139       -7.1780096465  W2        13965           0.0000000000
     41894     13965  TIP3      H1            -12.4223666405       50.2730677139       -7.7793596465  W2        13965           0.0000000000
     41895     13965  TIP3      H2            -13.0894266405       49.4518777139       -6.6964996465  W2        13965           0.0000000000
     41896     13966  TIP3      OH2            -6.1665066405       52.4389277139      -13.9223396465  W2        13966           0.0000000000
     41897     13966  TIP3      H1             -6.4616666405       53.2657177139      -13.5408596465  W2        13966           0.0000000000
     41898     13966  TIP3      H2             -6.8695066405       51.8196177139      -13.7261996465  W2        13966           0.0000000000
     41899     13967  TIP3      OH2           -16.1591166405       48.7361877139       -1.8631596465  W2        13967           0.0000000000
     41900     13967  TIP3      H1            -15.9362566405       48.3181477139       -1.0314096465  W2        13967           0.0000000000
     41901     13967  TIP3      H2            -16.7611066405       48.1236877139       -2.2858796465  W2        13967           0.0000000000
     41902     13968  TIP3      OH2            -9.1426266405       48.2531777139        0.3498103535  W2        13968           0.0000000000
     41903     13968  TIP3      H1             -9.4385466405       48.0874777139       -0.5452796465  W2        13968           0.0000000000
     41904     13968  TIP3      H2             -8.2111066405       48.0332077139        0.3392003535  W2        13968           0.0000000000
     41905     13969  TIP3      OH2            -4.5223466405       53.6263777139       -1.7603896465  W2        13969           0.0000000000
     41906     13969  TIP3      H1             -5.4229166405       53.8096377139       -2.0279996465  W2        13969           0.0000000000
     41907     13969  TIP3      H2             -4.4882366405       53.8853077139       -0.8395096465  W2        13969           0.0000000000
     41908     13970  TIP3      OH2             1.2089833595       45.8711677139      -13.3931296465  W2        13970           0.0000000000
     41909     13970  TIP3      H1              0.6546133595       45.4749677139      -14.0653796465  W2        13970           0.0000000000
     41910     13970  TIP3      H2              1.3093433595       46.7816877139      -13.6707996465  W2        13970           0.0000000000
     41911     13971  TIP3      OH2             1.1721833595       51.6713377139       -0.5559796465  W2        13971           0.0000000000
     41912     13971  TIP3      H1              0.3210333595       51.9097177139       -0.9233396465  W2        13971           0.0000000000
     41913     13971  TIP3      H2              1.7625233595       51.6546577139       -1.3092696465  W2        13971           0.0000000000
     41914     13972  TIP3      OH2            -0.4958466405       54.6572077139      -12.9279196465  W2        13972           0.0000000000
     41915     13972  TIP3      H1             -0.8687366405       53.8315877139      -12.6188596465  W2        13972           0.0000000000
     41916     13972  TIP3      H2             -0.2184966405       54.4741477139      -13.8255796465  W2        13972           0.0000000000
     41917     13973  TIP3      OH2            -3.3354566405       49.4651577139       -5.9067296465  W2        13973           0.0000000000
     41918     13973  TIP3      H1             -4.2637666405       49.2333477139       -5.9337996465  W2        13973           0.0000000000
     41919     13973  TIP3      H2             -2.8843466405       48.6881377139       -6.2368496465  W2        13973           0.0000000000
     41920     13974  TIP3      OH2           -10.7921466405       53.7933177139       -9.7738596465  W2        13974           0.0000000000
     41921     13974  TIP3      H1            -10.2649266405       54.5667577139       -9.9739796465  W2        13974           0.0000000000
     41922     13974  TIP3      H2            -11.6722966405       54.0182377139      -10.0754596465  W2        13974           0.0000000000
     41923     13975  TIP3      OH2           -15.0373766405       48.6557277139      -15.1866196465  W2        13975           0.0000000000
     41924     13975  TIP3      H1            -14.4213866405       49.2824477139      -14.8071396465  W2        13975           0.0000000000
     41925     13975  TIP3      H2            -15.8991166405       48.9717077139      -14.9149696465  W2        13975           0.0000000000
     41926     13976  TIP3      OH2            -9.3649166405       51.4563077139      -10.1974296465  W2        13976           0.0000000000
     41927     13976  TIP3      H1             -9.6059166405       52.3817477139      -10.1558996465  W2        13976           0.0000000000
     41928     13976  TIP3      H2            -10.1055566405       50.9974377139       -9.8010396465  W2        13976           0.0000000000
     41929     13977  TIP3      OH2            -5.3061766405       51.7047377139       -4.1817596465  W2        13977           0.0000000000
     41930     13977  TIP3      H1             -5.7320466405       51.4769077139       -3.3553596465  W2        13977           0.0000000000
     41931     13977  TIP3      H2             -4.7255966405       50.9659177139       -4.3642296465  W2        13977           0.0000000000
     41932     13978  TIP3      OH2            -3.1032866405       52.6337877139      -15.1078596465  W2        13978           0.0000000000
     41933     13978  TIP3      H1             -2.7499766405       52.2537677139      -14.3035096465  W2        13978           0.0000000000
     41934     13978  TIP3      H2             -4.0519366405       52.5402677139      -15.0209296465  W2        13978           0.0000000000
     41935     13979  TIP3      OH2           -14.5251666405       43.4894577139       -2.3050196465  W2        13979           0.0000000000
     41936     13979  TIP3      H1            -15.4179366405       43.8279977139       -2.3726196465  W2        13979           0.0000000000
     41937     13979  TIP3      H2            -14.6238866405       42.6340677139       -1.8869396465  W2        13979           0.0000000000
     41938     13980  TIP3      OH2            -2.2373566405       51.3059877139      -12.8810696465  W2        13980           0.0000000000
     41939     13980  TIP3      H1             -2.5145966405       50.5779177139      -12.3249596465  W2        13980           0.0000000000
     41940     13980  TIP3      H2             -1.3100566405       51.4251877139      -12.6758096465  W2        13980           0.0000000000
     41941     13981  TIP3      OH2            -9.0125066405       53.7453977139      -16.6608596465  W2        13981           0.0000000000
     41942     13981  TIP3      H1             -8.7735266405       52.9972077139      -17.2079696465  W2        13981           0.0000000000
     41943     13981  TIP3      H2             -9.2813766405       53.3575677139      -15.8280796465  W2        13981           0.0000000000
     41944     13982  TIP3      OH2           -10.0754466405       53.3157777139      -14.2045996465  W2        13982           0.0000000000
     41945     13982  TIP3      H1             -9.9286466405       52.7957577139      -13.4145096465  W2        13982           0.0000000000
     41946     13982  TIP3      H2            -10.0782766405       54.2225377139      -13.8980096465  W2        13982           0.0000000000
     41947     13983  TIP3      OH2           -13.6223366405       50.5681077139      -13.6940596465  W2        13983           0.0000000000
     41948     13983  TIP3      H1            -14.3084066405       50.9203577139      -13.1270896465  W2        13983           0.0000000000
     41949     13983  TIP3      H2            -13.0995466405       51.3310677139      -13.9406296465  W2        13983           0.0000000000
     41950     13984  TIP3      OH2            -5.7908266405       43.2304877139       -3.4151596465  W2        13984           0.0000000000
     41951     13984  TIP3      H1             -5.0920366405       43.3043577139       -2.7651896465  W2        13984           0.0000000000
     41952     13984  TIP3      H2             -6.1716866405       42.3659877139       -3.2608696465  W2        13984           0.0000000000
     41953     13985  TIP3      OH2            -5.0063366405       42.8826577139      -12.3179296465  W2        13985           0.0000000000
     41954     13985  TIP3      H1             -4.7865066405       43.3541977139      -13.1213896465  W2        13985           0.0000000000
     41955     13985  TIP3      H2             -4.4479366405       43.2769177139      -11.6478696465  W2        13985           0.0000000000
     41956     13986  TIP3      OH2            -7.8063466405       44.6105377139      -11.4830896465  W2        13986           0.0000000000
     41957     13986  TIP3      H1             -6.9940866405       45.1148577139      -11.4369196465  W2        13986           0.0000000000
     41958     13986  TIP3      H2             -8.0510466405       44.4655077139      -10.5691296465  W2        13986           0.0000000000
     41959     13987  TIP3      OH2            -7.2707066405       45.5968077139       -2.2984296465  W2        13987           0.0000000000
     41960     13987  TIP3      H1             -7.1516766405       46.1703477139       -1.5413896465  W2        13987           0.0000000000
     41961     13987  TIP3      H2             -6.6152466405       44.9087477139       -2.1836496465  W2        13987           0.0000000000
     41962     13988  TIP3      OH2            -6.9226766405       41.6918377139      -10.5449796465  W2        13988           0.0000000000
     41963     13988  TIP3      H1             -7.2693266405       42.3088977139       -9.9005496465  W2        13988           0.0000000000
     41964     13988  TIP3      H2             -6.2639866405       42.1924077139      -11.0264296465  W2        13988           0.0000000000
     41965     13989  TIP3      OH2           -11.2649766405       42.7547777139      -13.8577296465  W2        13989           0.0000000000
     41966     13989  TIP3      H1            -11.3484966405       43.6430877139      -13.5110896465  W2        13989           0.0000000000
     41967     13989  TIP3      H2            -10.3749466405       42.4894477139      -13.6260496465  W2        13989           0.0000000000
     41968     13990  TIP3      OH2            -1.0661266405       43.5038377139       -1.4634596465  W2        13990           0.0000000000
     41969     13990  TIP3      H1             -1.9825466405       43.7660077139       -1.5510896465  W2        13990           0.0000000000
     41970     13990  TIP3      H2             -0.7306266405       43.5007377139       -2.3599296465  W2        13990           0.0000000000
     41971     13991  TIP3      OH2            -2.4640266405       47.2539377139       -7.3677296465  W2        13991           0.0000000000
     41972     13991  TIP3      H1             -3.2615866405       46.8389577139       -7.6962296465  W2        13991           0.0000000000
     41973     13991  TIP3      H2             -2.0189166405       46.5633077139       -6.8766796465  W2        13991           0.0000000000
     41974     13992  TIP3      OH2           -13.0064466405       53.1819977139      -14.7972796465  W2        13992           0.0000000000
     41975     13992  TIP3      H1            -12.4142966405       53.8814777139      -14.5210396465  W2        13992           0.0000000000
     41976     13992  TIP3      H2            -12.5471466405       52.7489477139      -15.5168196465  W2        13992           0.0000000000
     41977     13993  TIP3      OH2           -14.6905266405       45.8462977139      -15.6813396465  W2        13993           0.0000000000
     41978     13993  TIP3      H1            -14.7352666405       46.7856077139      -15.5026396465  W2        13993           0.0000000000
     41979     13993  TIP3      H2            -15.5782066405       45.6107877139      -15.9511296465  W2        13993           0.0000000000
     41980     13994  TIP3      OH2           -13.8823266405       40.6279577139       -7.0082396465  W2        13994           0.0000000000
     41981     13994  TIP3      H1            -14.1113466405       40.6872077139       -7.9357396465  W2        13994           0.0000000000
     41982     13994  TIP3      H2            -14.3249866405       39.8365077139       -6.7018296465  W2        13994           0.0000000000
     41983     13995  TIP3      OH2           -14.9519966405       54.5686677139      -10.8476596465  W2        13995           0.0000000000
     41984     13995  TIP3      H1            -15.7841366405       55.0409377139      -10.8205196465  W2        13995           0.0000000000
     41985     13995  TIP3      H2            -14.4061666405       55.0784277139      -11.4463496465  W2        13995           0.0000000000
     41986     13996  TIP3      OH2            -4.4894166405       54.4805877139        0.8317103535  W2        13996           0.0000000000
     41987     13996  TIP3      H1             -4.8404666405       53.6238877139        1.0747503535  W2        13996           0.0000000000
     41988     13996  TIP3      H2             -3.7630966405       54.6232577139        1.4386103535  W2        13996           0.0000000000
     41989     13997  TIP3      OH2           -15.7566766405       50.9914477139        1.4365703535  W2        13997           0.0000000000
     41990     13997  TIP3      H1            -15.6126266405       50.0895177139        1.1502403535  W2        13997           0.0000000000
     41991     13997  TIP3      H2            -16.5289366405       51.2776577139        0.9488003535  W2        13997           0.0000000000
     41992     13998  TIP3      OH2           -11.4153066405       51.3350177139      -16.4309696465  W2        13998           0.0000000000
     41993     13998  TIP3      H1            -11.3508966405       50.5409777139      -15.9003296465  W2        13998           0.0000000000
     41994     13998  TIP3      H2            -10.7623866405       51.2162977139      -17.1207696465  W2        13998           0.0000000000
     41995     13999  TIP3      OH2            -9.1010666405       50.9612577139        0.8692103535  W2        13999           0.0000000000
     41996     13999  TIP3      H1             -9.4296866405       51.2320677139        0.0119503535  W2        13999           0.0000000000
     41997     13999  TIP3      H2             -8.9492466405       50.0202377139        0.7817103535  W2        13999           0.0000000000
     41998     14000  TIP3      OH2            -6.0629666405       52.3821877139      -16.6951696465  W2        14000           0.0000000000
     41999     14000  TIP3      H1             -6.3315566405       52.5623977139      -15.7942796465  W2        14000           0.0000000000
     42000     14000  TIP3      H2             -6.2694066405       51.4568077139      -16.8265896465  W2        14000           0.0000000000
     42001     14001  TIP3      OH2            -3.3665466405       50.8769877139       -1.7475596465  W2        14001           0.0000000000
     42002     14001  TIP3      H1             -2.6210666405       51.4653577139       -1.8671596465  W2        14001           0.0000000000
     42003     14001  TIP3      H2             -4.1238666405       51.4589577139       -1.6842496465  W2        14001           0.0000000000
     42004     14002  TIP3      OH2           -14.9240266405       48.1917777139        0.8565003535  W2        14002           0.0000000000
     42005     14002  TIP3      H1            -14.5159066405       47.3344377139        0.7355603535  W2        14002           0.0000000000
     42006     14002  TIP3      H2            -15.1842666405       48.2059077139        1.7775303535  W2        14002           0.0000000000
     42007     14003  TIP3      OH2           -10.2659266405       49.3076377139      -14.1251696465  W2        14003           0.0000000000
     42008     14003  TIP3      H1            -10.7257266405       48.8234677139      -13.4393196465  W2        14003           0.0000000000
     42009     14003  TIP3      H2            -10.0110566405       48.6391777139      -14.7611196465  W2        14003           0.0000000000
     42010     14004  TIP3      OH2           -10.9769966405       47.2003477139       -1.7692096465  W2        14004           0.0000000000
     42011     14004  TIP3      H1            -11.5953866405       47.8750077139       -1.4887396465  W2        14004           0.0000000000
     42012     14004  TIP3      H2            -10.6328766405       47.5217377139       -2.6025896465  W2        14004           0.0000000000
     42013     14005  TIP3      OH2            -9.1948866405       47.5508177139      -15.8628496465  W2        14005           0.0000000000
     42014     14005  TIP3      H1             -9.3753866405       47.3959377139      -16.7900196465  W2        14005           0.0000000000
     42015     14005  TIP3      H2             -8.2448366405       47.6586877139      -15.8180596465  W2        14005           0.0000000000
     42016     14006  TIP3      OH2            -5.9571766405       49.6718777139        1.5082703535  W2        14006           0.0000000000
     42017     14006  TIP3      H1             -5.0040566405       49.7557877139        1.4808703535  W2        14006           0.0000000000
     42018     14006  TIP3      H2             -6.1177166405       48.9600577139        2.1277603535  W2        14006           0.0000000000
     42019     14007  TIP3      OH2             0.1949433595       49.9052377139      -16.4170396465  W2        14007           0.0000000000
     42020     14007  TIP3      H1             -0.0785766405       49.4807877139      -17.2302096465  W2        14007           0.0000000000
     42021     14007  TIP3      H2              0.2343533595       50.8366877139      -16.6339996465  W2        14007           0.0000000000
     42022     14008  TIP3      OH2           -10.6376266405       44.5554277139       -0.6868996465  W2        14008           0.0000000000
     42023     14008  TIP3      H1            -10.4875366405       43.8265577139       -1.2889296465  W2        14008           0.0000000000
     42024     14008  TIP3      H2            -10.6353866405       45.3325977139       -1.2456796465  W2        14008           0.0000000000
     42025     14009  TIP3      OH2           -10.2250566405       42.9250077139       -3.1941596465  W2        14009           0.0000000000
     42026     14009  TIP3      H1             -9.6893066405       43.3766777139       -3.8462296465  W2        14009           0.0000000000
     42027     14009  TIP3      H2            -11.0770966405       42.8169877139       -3.6167496465  W2        14009           0.0000000000
     42028     14010  TIP3      OH2            -8.6432166405       48.3646277139       -2.9546396465  W2        14010           0.0000000000
     42029     14010  TIP3      H1             -7.8927366405       48.2083777139       -3.5278596465  W2        14010           0.0000000000
     42030     14010  TIP3      H2             -8.9823866405       49.2162877139       -3.2300896465  W2        14010           0.0000000000
     42031     14011  TIP3      OH2            -4.2275966405       46.1798077139        2.0738903535  W2        14011           0.0000000000
     42032     14011  TIP3      H1             -4.0354666405       45.2487477139        1.9623403535  W2        14011           0.0000000000
     42033     14011  TIP3      H2             -3.3699666405       46.6047577139        2.0634303535  W2        14011           0.0000000000
     42034     14012  TIP3      OH2            -2.9108766405       48.9683277139        0.1511603535  W2        14012           0.0000000000
     42035     14012  TIP3      H1             -3.1923766405       49.6777877139       -0.4264596465  W2        14012           0.0000000000
     42036     14012  TIP3      H2             -1.9684466405       48.8956277139        0.0002803535  W2        14012           0.0000000000
     42037     14013  TIP3      OH2           -12.1589966405       45.7537777139        1.2246603535  W2        14013           0.0000000000
     42038     14013  TIP3      H1            -12.9260966405       45.2212577139        1.0144203535  W2        14013           0.0000000000
     42039     14013  TIP3      H2            -11.4800966405       45.4438177139        0.6252903535  W2        14013           0.0000000000
     42040     14014  TIP3      OH2            -9.4195066405       40.3815777139       -2.7627996465  W2        14014           0.0000000000
     42041     14014  TIP3      H1             -9.5175466405       41.3278977139       -2.8681796465  W2        14014           0.0000000000
     42042     14014  TIP3      H2            -10.1618866405       40.0089577139       -3.2384496465  W2        14014           0.0000000000
     42043     14015  TIP3      OH2            -8.1554566405       44.7031177139        0.8010403535  W2        14015           0.0000000000
     42044     14015  TIP3      H1             -8.3909166405       44.4837877139        1.7025303535  W2        14015           0.0000000000
     42045     14015  TIP3      H2             -8.9387666405       44.4962377139        0.2912903535  W2        14015           0.0000000000
     42046     14016  TIP3      OH2            -5.4397966405       43.8304677139       -0.1236096465  W2        14016           0.0000000000
     42047     14016  TIP3      H1             -6.3872566405       43.8624377139        0.0087203535  W2        14016           0.0000000000
     42048     14016  TIP3      H2             -5.1271266405       43.2051777139        0.5302103535  W2        14016           0.0000000000
     42049     14017  TIP3      OH2            -3.8056466405       42.4645777139        1.8815803535  W2        14017           0.0000000000
     42050     14017  TIP3      H1             -3.9024666405       41.5123077139        1.8757703535  W2        14017           0.0000000000
     42051     14017  TIP3      H2             -4.1273366405       42.7332577139        2.7421303535  W2        14017           0.0000000000
     42052     14018  TIP3      OH2           -13.9787166405       43.6741577139        0.9291303535  W2        14018           0.0000000000
     42053     14018  TIP3      H1            -13.7669766405       42.9677677139        0.3188803535  W2        14018           0.0000000000
     42054     14018  TIP3      H2            -14.0899666405       43.2367577139        1.7732503535  W2        14018           0.0000000000
     42055     14019  TIP3      OH2            -9.1976966405       39.6753177139       -0.0915196465  W2        14019           0.0000000000
     42056     14019  TIP3      H1             -8.4858566405       39.0355377139       -0.1056096465  W2        14019           0.0000000000
     42057     14019  TIP3      H2             -9.2986566405       39.9421477139       -1.0052096465  W2        14019           0.0000000000
     42058     14020  TIP3      OH2            -8.8439466405       41.3581577139        1.9621103535  W2        14020           0.0000000000
     42059     14020  TIP3      H1             -8.9757266405       40.8825377139        1.1419603535  W2        14020           0.0000000000
     42060     14020  TIP3      H2             -9.4432066405       42.1025177139        1.9068203535  W2        14020           0.0000000000
     42061     14021  TIP3      OH2           -15.7292266405       52.8775677139      -15.3786796465  W2        14021           0.0000000000
     42062     14021  TIP3      H1            -14.8153066405       52.9564577139      -15.1052896465  W2        14021           0.0000000000
     42063     14021  TIP3      H2            -15.7219166405       52.1905277139      -16.0451196465  W2        14021           0.0000000000
     42064     14022  TIP3      OH2            -0.6477466405       52.5176777139        2.0437503535  W2        14022           0.0000000000
     42065     14022  TIP3      H1             -1.5136366405       52.4126477139        2.4379803535  W2        14022           0.0000000000
     42066     14022  TIP3      H2             -0.2711566405       53.2760077139        2.4902203535  W2        14022           0.0000000000
     42067     14023  TIP3      OH2             0.6532233595       50.7740477139      -12.4419996465  W2        14023           0.0000000000
     42068     14023  TIP3      H1              1.5033633595       51.1951377139      -12.3148396465  W2        14023           0.0000000000
     42069     14023  TIP3      H2              0.6587333595       50.0340577139      -11.8348596465  W2        14023           0.0000000000
     42070     14024  TIP3      OH2             1.0477833595       48.8277877139      -10.6184296465  W2        14024           0.0000000000
     42071     14024  TIP3      H1              0.3212433595       48.3480477139      -10.2206696465  W2        14024           0.0000000000
     42072     14024  TIP3      H2              1.6291133595       49.0332577139       -9.8862696465  W2        14024           0.0000000000
     42073     14025  TIP3      OH2             0.8069033595       51.6125377139       -5.6706696465  W2        14025           0.0000000000
     42074     14025  TIP3      H1              1.6403233595       51.2345377139       -5.9513096465  W2        14025           0.0000000000
     42075     14025  TIP3      H2              0.9189333595       52.5556577139       -5.7897596465  W2        14025           0.0000000000
     42076     14026  TIP3      OH2            -0.7068666405       54.4902877139       -3.3638296465  W2        14026           0.0000000000
     42077     14026  TIP3      H1             -1.3543366405       54.8154377139       -2.7383096465  W2        14026           0.0000000000
     42078     14026  TIP3      H2             -1.2244666405       54.0500577139       -4.0379996465  W2        14026           0.0000000000
     42079     14027  TIP3      OH2             1.3160933595       48.7286377139      -14.2272996465  W2        14027           0.0000000000
     42080     14027  TIP3      H1              0.7942033595       49.0850477139      -14.9462096465  W2        14027           0.0000000000
     42081     14027  TIP3      H2              1.2830133595       49.4034177139      -13.5492096465  W2        14027           0.0000000000
     42082     14028  TIP3      OH2            -0.3350066405       45.9681977139      -15.6765896465  W2        14028           0.0000000000
     42083     14028  TIP3      H1             -0.2385666405       46.6348977139      -16.3566196465  W2        14028           0.0000000000
     42084     14028  TIP3      H2             -0.4750466405       45.1528277139      -16.1580396465  W2        14028           0.0000000000
     42085     14029  TIP3      OH2            -1.1655366405       47.3484377139      -10.0555596465  W2        14029           0.0000000000
     42086     14029  TIP3      H1             -1.3156566405       46.4032977139      -10.0757796465  W2        14029           0.0000000000
     42087     14029  TIP3      H2             -1.5190866405       47.6295777139       -9.2116496465  W2        14029           0.0000000000
     42088     14030  TIP3      OH2           -16.1302966405       49.4266577139       -6.0451796465  W2        14030           0.0000000000
     42089     14030  TIP3      H1            -15.9460066405       49.3448277139       -6.9808896465  W2        14030           0.0000000000
     42090     14030  TIP3      H2            -15.2810066405       49.3023577139       -5.6215396465  W2        14030           0.0000000000
     42091     14031  TIP3      OH2            -0.3092466405       49.3187677139       -0.4167296465  W2        14031           0.0000000000
     42092     14031  TIP3      H1              0.2734833595       48.5839977139       -0.2250096465  W2        14031           0.0000000000
     42093     14031  TIP3      H2              0.2546833595       50.0907977139       -0.3701496465  W2        14031           0.0000000000
     42094     14032  TIP3      OH2             1.1874633595       47.2213477139        0.2678103535  W2        14032           0.0000000000
     42095     14032  TIP3      H1              0.3241333595       46.8425577139        0.1022803535  W2        14032           0.0000000000
     42096     14032  TIP3      H2              1.7918333595       46.4828277139        0.1933903535  W2        14032           0.0000000000
     42097     14033  TIP3      OH2            -1.0876266405       43.3761777139      -16.5590396465  W2        14033           0.0000000000
     42098     14033  TIP3      H1             -0.4770466405       43.0048577139      -15.9222196465  W2        14033           0.0000000000
     42099     14033  TIP3      H2             -1.9244766405       42.9548677139      -16.3630396465  W2        14033           0.0000000000
     42100     14034  TIP3      OH2            -1.4550566405       44.9310177139      -11.5930496465  W2        14034           0.0000000000
     42101     14034  TIP3      H1             -1.1753466405       44.0240577139      -11.4688796465  W2        14034           0.0000000000
     42102     14034  TIP3      H2             -0.6958866405       45.3651677139      -11.9821296465  W2        14034           0.0000000000
     42103     14035  TIP3      OH2            -0.8432266405       45.5127577139       -6.1571596465  W2        14035           0.0000000000
     42104     14035  TIP3      H1              0.0895733595       45.7247477139       -6.1915596465  W2        14035           0.0000000000
     42105     14035  TIP3      H2             -1.0784766405       45.6139677139       -5.2348596465  W2        14035           0.0000000000
     42106     14036  TIP3      OH2            -0.8140366405       46.2492877139       -3.3812196465  W2        14036           0.0000000000
     42107     14036  TIP3      H1             -1.6569066405       46.5173277139       -3.0152396465  W2        14036           0.0000000000
     42108     14036  TIP3      H2             -0.3716066405       47.0714777139       -3.5921096465  W2        14036           0.0000000000
     42109     14037  TIP3      OH2           -16.5328166405       44.6971577139        0.0957003535  W2        14037           0.0000000000
     42110     14037  TIP3      H1            -15.6133266405       44.5749877139        0.3320103535  W2        14037           0.0000000000
     42111     14037  TIP3      H2            -16.9823666405       43.9471277139        0.4850503535  W2        14037           0.0000000000
     42112     14038  TIP3      OH2             1.4691233595       40.2293077139        1.9722803535  W2        14038           0.0000000000
     42113     14038  TIP3      H1              1.8188233595       39.5756577139        1.3667503535  W2        14038           0.0000000000
     42114     14038  TIP3      H2              1.6160733595       41.0667177139        1.5325403535  W2        14038           0.0000000000
     42115     14039  TIP3      OH2            -0.8415766405       42.1939477139      -11.5448496465  W2        14039           0.0000000000
     42116     14039  TIP3      H1             -0.6590766405       41.7450977139      -10.7193496465  W2        14039           0.0000000000
     42117     14039  TIP3      H2             -1.4412866405       41.6093877139      -12.0083896465  W2        14039           0.0000000000
     42118     14040  TIP3      OH2           -15.3115666405       43.0093177139       -7.0130096465  W2        14040           0.0000000000
     42119     14040  TIP3      H1            -14.8664066405       42.2175677139       -6.7110396465  W2        14040           0.0000000000
     42120     14040  TIP3      H2            -14.8452666405       43.7258377139       -6.5824496465  W2        14040           0.0000000000
     42121     14041  TIP3      OH2           -17.0075366405       46.0086177139       -5.9439896465  W2        14041           0.0000000000
     42122     14041  TIP3      H1            -16.5155566405       45.7876677139       -6.7347896465  W2        14041           0.0000000000
     42123     14041  TIP3      H2            -16.6454466405       46.8489577139       -5.6630396465  W2        14041           0.0000000000
     42124     14042  TIP3      OH2             0.9888433595       42.3387677139        0.3214103535  W2        14042           0.0000000000
     42125     14042  TIP3      H1              0.0714133595       42.6094777139        0.2857603535  W2        14042           0.0000000000
     42126     14042  TIP3      H2              1.1117833595       41.8036077139       -0.4626196465  W2        14042           0.0000000000
     42127     14043  TIP3      OH2             1.0250433595       42.2617577139      -15.0168196465  W2        14043           0.0000000000
     42128     14043  TIP3      H1              1.4373033595       41.5403277139      -15.4920196465  W2        14043           0.0000000000
     42129     14043  TIP3      H2              1.7066933595       42.9312177139      -14.9583896465  W2        14043           0.0000000000
     42130     14044  TIP3      OH2           -16.6938866405       42.2665277139      -11.8897496465  W2        14044           0.0000000000
     42131     14044  TIP3      H1            -17.6190466405       42.4751877139      -12.0191996465  W2        14044           0.0000000000
     42132     14044  TIP3      H2            -16.2398966405       42.7506077139      -12.5795196465  W2        14044           0.0000000000
     42133     14045  TIP3      OH2           -16.7303466405       41.0044277139       -3.5454996465  W2        14045           0.0000000000
     42134     14045  TIP3      H1            -17.3952966405       40.7584577139       -2.9024096465  W2        14045           0.0000000000
     42135     14045  TIP3      H2            -17.1732166405       41.6264677139       -4.1226996465  W2        14045           0.0000000000
     42136     14046  TIP3      OH2           -14.5384166405       54.1798377139        0.5990803535  W2        14046           0.0000000000
     42137     14046  TIP3      H1            -15.3591666405       54.3544877139        0.1385503535  W2        14046           0.0000000000
     42138     14046  TIP3      H2            -14.7906366405       54.1063077139        1.5195203535  W2        14046           0.0000000000
     42139     14047  TIP3      OH2            -0.0105666405       40.4283977139       -1.8595096465  W2        14047           0.0000000000
     42140     14047  TIP3      H1             -0.8232166405       40.7534277139       -2.2470396465  W2        14047           0.0000000000
     42141     14047  TIP3      H2              0.2222833595       39.6682477139       -2.3925996465  W2        14047           0.0000000000
     42142     14048  TIP3      OH2            -6.5807166405       41.8774577139       -7.5366896465  W2        14048           0.0000000000
     42143     14048  TIP3      H1             -7.2550366405       41.2480177139       -7.2811096465  W2        14048           0.0000000000
     42144     14048  TIP3      H2             -6.0167966405       41.3933477139       -8.1398996465  W2        14048           0.0000000000
     42145     14049  TIP3      OH2            -1.4379966405       39.9848577139       -7.4239796465  W2        14049           0.0000000000
     42146     14049  TIP3      H1             -0.8342366405       40.5323977139       -7.9258796465  W2        14049           0.0000000000
     42147     14049  TIP3      H2             -2.3077966405       40.3038977139       -7.6645696465  W2        14049           0.0000000000
     42148     14050  TIP3      OH2             0.2890433595       41.1237277139       -9.0908896465  W2        14050           0.0000000000
     42149     14050  TIP3      H1              0.9007933595       40.6092977139       -9.6175296465  W2        14050           0.0000000000
     42150     14050  TIP3      H2              0.6713833595       42.0009377139       -9.0674496465  W2        14050           0.0000000000
     42151     14051  TIP3      OH2           -14.2539666405       40.5114877139       -9.7146996465  W2        14051           0.0000000000
     42152     14051  TIP3      H1            -15.0309866405       40.2769777139      -10.2221096465  W2        14051           0.0000000000
     42153     14051  TIP3      H2            -13.7236066405       39.7146977139       -9.7058996465  W2        14051           0.0000000000
     42154     14052  TIP3      OH2           -15.4176266405       40.3092977139      -13.9110896465  W2        14052           0.0000000000
     42155     14052  TIP3      H1            -14.9785566405       40.9203477139      -14.5027396465  W2        14052           0.0000000000
     42156     14052  TIP3      H2            -16.0513866405       40.8477077139      -13.4370896465  W2        14052           0.0000000000
     42157     14053  TIP3      OH2            -9.6747066405       40.4381977139       -9.9013896465  W2        14053           0.0000000000
     42158     14053  TIP3      H1             -8.8003666405       40.8266277139       -9.9309596465  W2        14053           0.0000000000
     42159     14053  TIP3      H2             -9.8106266405       40.2229777139       -8.9786696465  W2        14053           0.0000000000
     42160     14054  TIP3      OH2            -4.1178666405       40.4681777139       -8.2522196465  W2        14054           0.0000000000
     42161     14054  TIP3      H1             -4.0417066405       40.5633377139       -9.2016196465  W2        14054           0.0000000000
     42162     14054  TIP3      H2             -4.3929466405       39.5604677139       -8.1233096465  W2        14054           0.0000000000
     42163     14055  TIP3      OH2            -2.7646066405       40.4939577139      -12.5597196465  W2        14055           0.0000000000
     42164     14055  TIP3      H1             -3.4674966405       41.1088777139      -12.7695796465  W2        14055           0.0000000000
     42165     14055  TIP3      H2             -3.2094666405       39.6566277139      -12.4286296465  W2        14055           0.0000000000
     42166     14056  TIP3      OH2           -13.5567166405       42.2254477139      -15.4686796465  W2        14056           0.0000000000
     42167     14056  TIP3      H1            -13.0653766405       41.5956877139      -15.9961296465  W2        14056           0.0000000000
     42168     14056  TIP3      H2            -12.9330866405       42.5213877139      -14.8055596465  W2        14056           0.0000000000
     42169     14057  TIP3      OH2            -8.5307066405       42.5185977139      -13.0116296465  W2        14057           0.0000000000
     42170     14057  TIP3      H1             -8.3525766405       41.8719177139      -12.3287696465  W2        14057           0.0000000000
     42171     14057  TIP3      H2             -8.5840866405       43.3523677139      -12.5445196465  W2        14057           0.0000000000
     42172     14058  TIP3      OH2           -14.2961666405       41.0256777139       -0.1970796465  W2        14058           0.0000000000
     42173     14058  TIP3      H1            -14.6623466405       40.2599377139        0.2453903535  W2        14058           0.0000000000
     42174     14058  TIP3      H2            -13.3833166405       41.0546977139        0.0894303535  W2        14058           0.0000000000
     42175     14059  TIP3      OH2           -12.3230866405       40.3761177139        1.3386303535  W2        14059           0.0000000000
     42176     14059  TIP3      H1            -11.4247266405       40.1021377139        1.1539703535  W2        14059           0.0000000000
     42177     14059  TIP3      H2            -12.7097766405       39.6337177139        1.8028903535  W2        14059           0.0000000000
     42178     14060  TIP3      OH2            -3.9018566405       39.7086477139        1.5209103535  W2        14060           0.0000000000
     42179     14060  TIP3      H1             -3.8251366405       39.2827177139        2.3746803535  W2        14060           0.0000000000
     42180     14060  TIP3      H2             -3.0081966405       39.7221177139        1.1782603535  W2        14060           0.0000000000
     42181     14061  TIP3      OH2            13.6802933595       49.6677177139       -9.7559496465  W2        14061           0.0000000000
     42182     14061  TIP3      H1             13.7694033595       50.6115377139       -9.8882396465  W2        14061           0.0000000000
     42183     14061  TIP3      H2             13.0420533595       49.3923577139      -10.4140096465  W2        14061           0.0000000000
     42184     14062  TIP3      OH2            12.6134233595       48.9227877139       -6.3371296465  W2        14062           0.0000000000
     42185     14062  TIP3      H1             12.5751733595       48.2764177139       -5.6321696465  W2        14062           0.0000000000
     42186     14062  TIP3      H2             12.2910733595       48.4562277139       -7.1082596465  W2        14062           0.0000000000
     42187     14063  TIP3      OH2             4.9819233595       48.5369977139       -4.7441396465  W2        14063           0.0000000000
     42188     14063  TIP3      H1              5.0231333595       47.9113277139       -4.0208996465  W2        14063           0.0000000000
     42189     14063  TIP3      H2              5.6846933595       49.1608577139       -4.5620996465  W2        14063           0.0000000000
     42190     14064  TIP3      OH2            16.3194433595       51.8618277139       -8.0356196465  W2        14064           0.0000000000
     42191     14064  TIP3      H1             15.8787133595       51.1414277139       -7.5850596465  W2        14064           0.0000000000
     42192     14064  TIP3      H2             16.3064133595       52.5825477139       -7.4058496465  W2        14064           0.0000000000
     42193     14065  TIP3      OH2             5.9052333595       52.9868877139       -6.2092296465  W2        14065           0.0000000000
     42194     14065  TIP3      H1              5.5357533595       52.1849377139       -6.5787996465  W2        14065           0.0000000000
     42195     14065  TIP3      H2              6.8463433595       52.8183777139       -6.1628896465  W2        14065           0.0000000000
     42196     14066  TIP3      OH2             2.5152833595       46.6471477139      -10.8163496465  W2        14066           0.0000000000
     42197     14066  TIP3      H1              2.0676233595       47.4930177139      -10.8346996465  W2        14066           0.0000000000
     42198     14066  TIP3      H2              1.9544033595       46.0675677139      -11.3318396465  W2        14066           0.0000000000
     42199     14067  TIP3      OH2             3.2258933595       48.8091077139       -8.6905496465  W2        14067           0.0000000000
     42200     14067  TIP3      H1              3.4392433595       48.0392677139       -8.1632496465  W2        14067           0.0000000000
     42201     14067  TIP3      H2              3.9636533595       48.8987777139       -9.2937896465  W2        14067           0.0000000000
     42202     14068  TIP3      OH2            11.0028633595       51.3549277139       -5.9310296465  W2        14068           0.0000000000
     42203     14068  TIP3      H1             11.3066533595       50.6690677139       -6.5256196465  W2        14068           0.0000000000
     42204     14068  TIP3      H2             11.7242633595       51.4737977139       -5.3132296465  W2        14068           0.0000000000
     42205     14069  TIP3      OH2            19.6658433595       42.9564577139       -5.0704096465  W2        14069           0.0000000000
     42206     14069  TIP3      H1             19.7150633595       43.5665777139       -4.3344996465  W2        14069           0.0000000000
     42207     14069  TIP3      H2             20.0913533595       43.4175477139       -5.7932996465  W2        14069           0.0000000000
     42208     14070  TIP3      OH2            14.1435633595       45.7491677139       -5.6035496465  W2        14070           0.0000000000
     42209     14070  TIP3      H1             14.2861533595       44.8028677139       -5.5833896465  W2        14070           0.0000000000
     42210     14070  TIP3      H2             14.0374633595       45.9561477139       -6.5320596465  W2        14070           0.0000000000
     42211     14071  TIP3      OH2             7.2983933595       43.8508077139       -8.3310696465  W2        14071           0.0000000000
     42212     14071  TIP3      H1              7.3415033595       44.7106577139       -8.7494396465  W2        14071           0.0000000000
     42213     14071  TIP3      H2              6.8408033595       43.2982777139       -8.9647496465  W2        14071           0.0000000000
     42214     14072  TIP3      OH2            15.0206633595       43.9813677139       -9.9302396465  W2        14072           0.0000000000
     42215     14072  TIP3      H1             15.6670933595       43.6526877139       -9.3054796465  W2        14072           0.0000000000
     42216     14072  TIP3      H2             15.5306033595       44.4992677139      -10.5530996465  W2        14072           0.0000000000
     42217     14073  TIP3      OH2             3.9185433595       46.2473877139       -7.5689296465  W2        14073           0.0000000000
     42218     14073  TIP3      H1              4.5722033595       45.6975577139       -7.1369196465  W2        14073           0.0000000000
     42219     14073  TIP3      H2              3.9424733595       45.9732877139       -8.4857296465  W2        14073           0.0000000000
     42220     14074  TIP3      OH2             9.0749933595       47.7975177139       -8.3537796465  W2        14074           0.0000000000
     42221     14074  TIP3      H1              9.6910933595       47.2710577139       -7.8443796465  W2        14074           0.0000000000
     42222     14074  TIP3      H2              8.4888733595       47.1573877139       -8.7574196465  W2        14074           0.0000000000
     42223     14075  TIP3      OH2            20.0573033595       44.4343777139       -2.8344296465  W2        14075           0.0000000000
     42224     14075  TIP3      H1             19.3687633595       45.0924477139       -2.9297696465  W2        14075           0.0000000000
     42225     14075  TIP3      H2             20.0727633595       44.2371677139       -1.8978896465  W2        14075           0.0000000000
     42226     14076  TIP3      OH2             6.1085833595       42.7686477139       -4.2569896465  W2        14076           0.0000000000
     42227     14076  TIP3      H1              5.8897533595       43.2987077139       -5.0233896465  W2        14076           0.0000000000
     42228     14076  TIP3      H2              5.4406733595       42.9951977139       -3.6098496465  W2        14076           0.0000000000
     42229     14077  TIP3      OH2            13.4775633595       52.2687577139      -10.7130796465  W2        14077           0.0000000000
     42230     14077  TIP3      H1             13.1820733595       51.9459877139      -11.5643896465  W2        14077           0.0000000000
     42231     14077  TIP3      H2             13.1533433595       53.1684277139      -10.6718196465  W2        14077           0.0000000000
     42232     14078  TIP3      OH2             8.6777233595       50.4442177139       -3.9696196465  W2        14078           0.0000000000
     42233     14078  TIP3      H1              7.9376333595       51.0423677139       -3.8660996465  W2        14078           0.0000000000
     42234     14078  TIP3      H2              9.3916733595       50.9981777139       -4.2852596465  W2        14078           0.0000000000
     42235     14079  TIP3      OH2            16.7845033595       43.2722977139       -7.9496496465  W2        14079           0.0000000000
     42236     14079  TIP3      H1             16.5693033595       42.5066377139       -7.4170496465  W2        14079           0.0000000000
     42237     14079  TIP3      H2             17.4402433595       43.7447577139       -7.4367996465  W2        14079           0.0000000000
     42238     14080  TIP3      OH2             5.7023133595       44.6608277139       -6.3047696465  W2        14080           0.0000000000
     42239     14080  TIP3      H1              6.3159433595       45.2935877139       -5.9315296465  W2        14080           0.0000000000
     42240     14080  TIP3      H2              6.2143833595       44.1883277139       -6.9610796465  W2        14080           0.0000000000
     42241     14081  TIP3      OH2             7.0851533595       52.4085177139       -3.1824696465  W2        14081           0.0000000000
     42242     14081  TIP3      H1              7.0799133595       53.2878677139       -3.5605396465  W2        14081           0.0000000000
     42243     14081  TIP3      H2              6.2315633595       52.3249277139       -2.7574796465  W2        14081           0.0000000000
     42244     14082  TIP3      OH2             3.2062433595       52.0793077139      -12.4005396465  W2        14082           0.0000000000
     42245     14082  TIP3      H1              2.9343333595       52.3084077139      -13.2892496465  W2        14082           0.0000000000
     42246     14082  TIP3      H2              3.2518133595       52.9171877139      -11.9400096465  W2        14082           0.0000000000
     42247     14083  TIP3      OH2            16.8312133595       53.7008977139       -5.6876896465  W2        14083           0.0000000000
     42248     14083  TIP3      H1             15.8895833595       53.7592877139       -5.5259996465  W2        14083           0.0000000000
     42249     14083  TIP3      H2             17.1078233595       54.6069477139       -5.8247196465  W2        14083           0.0000000000
     42250     14084  TIP3      OH2            17.1319133595       41.9874277139       -4.2702996465  W2        14084           0.0000000000
     42251     14084  TIP3      H1             16.3958333595       42.5981377139       -4.3081696465  W2        14084           0.0000000000
     42252     14084  TIP3      H2             17.8153133595       42.4023277139       -4.7966596465  W2        14084           0.0000000000
     42253     14085  TIP3      OH2            10.1350533595       40.0741577139       -6.8044996465  W2        14085           0.0000000000
     42254     14085  TIP3      H1             10.0174733595       39.1257577139       -6.8586696465  W2        14085           0.0000000000
     42255     14085  TIP3      H2              9.2800633595       40.4067677139       -6.5313896465  W2        14085           0.0000000000
     42256     14086  TIP3      OH2            16.2429833595       53.3830977139      -10.5538696465  W2        14086           0.0000000000
     42257     14086  TIP3      H1             15.9854633595       52.6931077139      -11.1652796465  W2        14086           0.0000000000
     42258     14086  TIP3      H2             16.3140633595       52.9402177139       -9.7082796465  W2        14086           0.0000000000
     42259     14087  TIP3      OH2            17.9290033595       51.9497677139       -2.0765196465  W2        14087           0.0000000000
     42260     14087  TIP3      H1             18.0686333595       51.3580177139       -2.8158196465  W2        14087           0.0000000000
     42261     14087  TIP3      H2             18.0962833595       52.8223577139       -2.4326396465  W2        14087           0.0000000000
     42262     14088  TIP3      OH2            12.4015433595       48.9117177139      -12.3039196465  W2        14088           0.0000000000
     42263     14088  TIP3      H1             11.6900933595       49.4466877139      -12.6558696465  W2        14088           0.0000000000
     42264     14088  TIP3      H2             13.0925033595       48.9669277139      -12.9640296465  W2        14088           0.0000000000
     42265     14089  TIP3      OH2            12.4554633595       47.3691477139      -15.2654196465  W2        14089           0.0000000000
     42266     14089  TIP3      H1             13.1564533595       47.3918377139      -14.6140196465  W2        14089           0.0000000000
     42267     14089  TIP3      H2             12.7577533595       46.7411177139      -15.9214896465  W2        14089           0.0000000000
     42268     14090  TIP3      OH2            19.7709333595       48.2895677139       -4.0104796465  W2        14090           0.0000000000
     42269     14090  TIP3      H1             19.1183433595       48.9841277139       -3.9213896465  W2        14090           0.0000000000
     42270     14090  TIP3      H2             20.2359633595       48.4996577139       -4.8203196465  W2        14090           0.0000000000
     42271     14091  TIP3      OH2            15.8073133595       49.1210477139      -11.3523296465  W2        14091           0.0000000000
     42272     14091  TIP3      H1             15.0754133595       49.3494177139      -10.7792696465  W2        14091           0.0000000000
     42273     14091  TIP3      H2             16.2545333595       48.4073177139      -10.8975796465  W2        14091           0.0000000000
     42274     14092  TIP3      OH2            15.7046633595       47.2953077139       -2.2846296465  W2        14092           0.0000000000
     42275     14092  TIP3      H1             15.7845733595       48.0587477139       -1.7127796465  W2        14092           0.0000000000
     42276     14092  TIP3      H2             15.1034333595       47.5745477139       -2.9751196465  W2        14092           0.0000000000
     42277     14093  TIP3      OH2             7.4526833595       49.7516677139       -9.4698296465  W2        14093           0.0000000000
     42278     14093  TIP3      H1              7.1222033595       49.3810077139      -10.2881296465  W2        14093           0.0000000000
     42279     14093  TIP3      H2              8.0410933595       49.0810677139       -9.1229996465  W2        14093           0.0000000000
     42280     14094  TIP3      OH2             8.8194333595       53.1797277139       -6.7886096465  W2        14094           0.0000000000
     42281     14094  TIP3      H1              8.7245633595       52.6010377139       -7.5451496465  W2        14094           0.0000000000
     42282     14094  TIP3      H2              9.5487933595       52.8082977139       -6.2923296465  W2        14094           0.0000000000
     42283     14095  TIP3      OH2             7.8192333595       48.5202277139       -5.8363296465  W2        14095           0.0000000000
     42284     14095  TIP3      H1              8.3844833595       48.6416477139       -6.5992096465  W2        14095           0.0000000000
     42285     14095  TIP3      H2              8.1381233595       49.1577277139       -5.1974796465  W2        14095           0.0000000000
     42286     14096  TIP3      OH2            14.1284533595       54.0234177139       -5.1022796465  W2        14096           0.0000000000
     42287     14096  TIP3      H1             13.8881133595       54.6857277139       -4.4543596465  W2        14096           0.0000000000
     42288     14096  TIP3      H2             13.9302733595       53.1889377139       -4.6773196465  W2        14096           0.0000000000
     42289     14097  TIP3      OH2             8.6993033595       52.9194977139       -1.1191396465  W2        14097           0.0000000000
     42290     14097  TIP3      H1              8.3880533595       53.7018177139       -0.6638196465  W2        14097           0.0000000000
     42291     14097  TIP3      H2              8.0493233595       52.7664077139       -1.8049396465  W2        14097           0.0000000000
     42292     14098  TIP3      OH2            14.6782633595       48.2833377139      -13.6672096465  W2        14098           0.0000000000
     42293     14098  TIP3      H1             15.2578133595       48.4333677139      -12.9203196465  W2        14098           0.0000000000
     42294     14098  TIP3      H2             15.0922633595       48.7540777139      -14.3905696465  W2        14098           0.0000000000
     42295     14099  TIP3      OH2             5.6192933595       49.1176077139       -1.8905696465  W2        14099           0.0000000000
     42296     14099  TIP3      H1              5.6896133595       49.7682877139       -1.1920696465  W2        14099           0.0000000000
     42297     14099  TIP3      H2              4.7285133595       49.2203577139       -2.2254796465  W2        14099           0.0000000000
     42298     14100  TIP3      OH2             6.9388933595       54.9909977139       -0.3557596465  W2        14100           0.0000000000
     42299     14100  TIP3      H1              6.9464233595       54.8549677139       -1.3032096465  W2        14100           0.0000000000
     42300     14100  TIP3      H2              6.0229333595       54.8738077139       -0.1037596465  W2        14100           0.0000000000
     42301     14101  TIP3      OH2            18.3771033595       40.0333777139      -13.8542396465  W2        14101           0.0000000000
     42302     14101  TIP3      H1             17.4771733595       40.1722777139      -13.5591796465  W2        14101           0.0000000000
     42303     14101  TIP3      H2             18.6289433595       40.8648377139      -14.2560696465  W2        14101           0.0000000000
     42304     14102  TIP3      OH2             6.4429533595       48.8210977139      -11.8805496465  W2        14102           0.0000000000
     42305     14102  TIP3      H1              6.1510833595       49.5892677139      -12.3714196465  W2        14102           0.0000000000
     42306     14102  TIP3      H2              5.7684733595       48.1617177139      -12.0434096465  W2        14102           0.0000000000
     42307     14103  TIP3      OH2            19.5662433595       54.3996177139      -15.4778496465  W2        14103           0.0000000000
     42308     14103  TIP3      H1             19.6395933595       55.3386377139      -15.3073196465  W2        14103           0.0000000000
     42309     14103  TIP3      H2             20.4717533595       54.0944777139      -15.5341196465  W2        14103           0.0000000000
     42310     14104  TIP3      OH2             2.5359633595       51.1840177139       -3.0655696465  W2        14104           0.0000000000
     42311     14104  TIP3      H1              2.0348033595       51.1559577139       -3.8805996465  W2        14104           0.0000000000
     42312     14104  TIP3      H2              2.5413333595       50.2783377139       -2.7558396465  W2        14104           0.0000000000
     42313     14105  TIP3      OH2             2.2862333595       53.9643977139       -6.1815496465  W2        14105           0.0000000000
     42314     14105  TIP3      H1              3.2322933595       53.8200977139       -6.2005996465  W2        14105           0.0000000000
     42315     14105  TIP3      H2              2.1738633595       54.7486777139       -5.6444296465  W2        14105           0.0000000000
     42316     14106  TIP3      OH2            20.4840833595       54.6303677139       -0.4991796465  W2        14106           0.0000000000
     42317     14106  TIP3      H1             20.4347633595       53.6751777139       -0.5364196465  W2        14106           0.0000000000
     42318     14106  TIP3      H2             19.6573133595       54.8978977139       -0.0977996465  W2        14106           0.0000000000
     42319     14107  TIP3      OH2            11.4624833595       54.2042877139       -1.6230396465  W2        14107           0.0000000000
     42320     14107  TIP3      H1             11.5499433595       55.0307477139       -1.1481296465  W2        14107           0.0000000000
     42321     14107  TIP3      H2             10.5989933595       53.8746677139       -1.3741096465  W2        14107           0.0000000000
     42322     14108  TIP3      OH2            17.6360633595       46.1236177139       -0.0189596465  W2        14108           0.0000000000
     42323     14108  TIP3      H1             17.2287433595       46.6041777139       -0.7396296465  W2        14108           0.0000000000
     42324     14108  TIP3      H2             17.6766333595       45.2182177139       -0.3268796465  W2        14108           0.0000000000
     42325     14109  TIP3      OH2             4.7850133595       52.5075577139       -2.0222896465  W2        14109           0.0000000000
     42326     14109  TIP3      H1              5.0011433595       52.1461177139       -1.1627096465  W2        14109           0.0000000000
     42327     14109  TIP3      H2              3.9294833595       52.1329377139       -2.2319396465  W2        14109           0.0000000000
     42328     14110  TIP3      OH2             7.4038133595       40.9776077139       -6.0268696465  W2        14110           0.0000000000
     42329     14110  TIP3      H1              6.5421833595       40.8904277139       -6.4345796465  W2        14110           0.0000000000
     42330     14110  TIP3      H2              7.3813833595       41.8336177139       -5.5991096465  W2        14110           0.0000000000
     42331     14111  TIP3      OH2            12.0665933595       40.6996477139       -2.6521696465  W2        14111           0.0000000000
     42332     14111  TIP3      H1             12.4869033595       40.2843577139       -1.8991096465  W2        14111           0.0000000000
     42333     14111  TIP3      H2             11.1335533595       40.5209777139       -2.5349696465  W2        14111           0.0000000000
     42334     14112  TIP3      OH2            15.3930833595       44.4551677139       -1.7987196465  W2        14112           0.0000000000
     42335     14112  TIP3      H1             14.8790333595       44.3293877139       -1.0011196465  W2        14112           0.0000000000
     42336     14112  TIP3      H2             15.2375533595       45.3674777139       -2.0430996465  W2        14112           0.0000000000
     42337     14113  TIP3      OH2            16.1555733595       49.3161677139      -16.0374196465  W2        14113           0.0000000000
     42338     14113  TIP3      H1             16.1976533595       49.0935577139      -16.9674196465  W2        14113           0.0000000000
     42339     14113  TIP3      H2             17.0047833595       49.7148777139      -15.8474296465  W2        14113           0.0000000000
     42340     14114  TIP3      OH2            11.7283233595       43.1919877139      -15.3670896465  W2        14114           0.0000000000
     42341     14114  TIP3      H1             11.4748033595       43.2111477139      -14.4442796465  W2        14114           0.0000000000
     42342     14114  TIP3      H2             11.4715333595       42.3205277139      -15.6684696465  W2        14114           0.0000000000
     42343     14115  TIP3      OH2             7.4948233595       45.9430577139       -4.9318496465  W2        14115           0.0000000000
     42344     14115  TIP3      H1              6.8530333595       45.9027877139       -4.2228396465  W2        14115           0.0000000000
     42345     14115  TIP3      H2              7.5320233595       46.8695277139       -5.1695496465  W2        14115           0.0000000000
     42346     14116  TIP3      OH2             7.4917333595       46.1640677139      -10.0198496465  W2        14116           0.0000000000
     42347     14116  TIP3      H1              6.5990233595       45.8236777139      -10.0784696465  W2        14116           0.0000000000
     42348     14116  TIP3      H2              7.9423933595       45.7871577139      -10.7755296465  W2        14116           0.0000000000
     42349     14117  TIP3      OH2            13.0272833595       46.5800977139      -11.2027696465  W2        14117           0.0000000000
     42350     14117  TIP3      H1             12.6183133595       47.3949577139      -11.4942896465  W2        14117           0.0000000000
     42351     14117  TIP3      H2             13.7479033595       46.4401077139      -11.8170596465  W2        14117           0.0000000000
     42352     14118  TIP3      OH2            12.1294433595       46.7557377139        0.2853003535  W2        14118           0.0000000000
     42353     14118  TIP3      H1             11.5668233595       46.0508977139        0.6060803535  W2        14118           0.0000000000
     42354     14118  TIP3      H2             12.9557833595       46.6349277139        0.7530603535  W2        14118           0.0000000000
     42355     14119  TIP3      OH2            14.0320533595       46.0261377139       -8.3887996465  W2        14119           0.0000000000
     42356     14119  TIP3      H1             13.8365033595       46.6318177139       -9.1037396465  W2        14119           0.0000000000
     42357     14119  TIP3      H2             14.2133133595       45.1926577139       -8.8231696465  W2        14119           0.0000000000
     42358     14120  TIP3      OH2             5.2448733595       46.2634077139       -3.0646496465  W2        14120           0.0000000000
     42359     14120  TIP3      H1              5.2068133595       46.6635677139       -2.1959396465  W2        14120           0.0000000000
     42360     14120  TIP3      H2              4.7539833595       45.4466477139       -2.9743596465  W2        14120           0.0000000000
     42361     14121  TIP3      OH2             8.6106133595       43.6376377139      -16.2660496465  W2        14121           0.0000000000
     42362     14121  TIP3      H1              8.1796833595       43.1926477139      -15.5363096465  W2        14121           0.0000000000
     42363     14121  TIP3      H2              7.8924833595       44.0092677139      -16.7782996465  W2        14121           0.0000000000
     42364     14122  TIP3      OH2             1.8529533595       43.3795877139       -9.2141796465  W2        14122           0.0000000000
     42365     14122  TIP3      H1              2.4837233595       43.3507977139       -8.4947896465  W2        14122           0.0000000000
     42366     14122  TIP3      H2              2.3023833595       42.9544577139       -9.9445896465  W2        14122           0.0000000000
     42367     14123  TIP3      OH2             3.1271633595       44.1257877139      -13.7901396465  W2        14123           0.0000000000
     42368     14123  TIP3      H1              3.6013333595       44.7167777139      -14.3750496465  W2        14123           0.0000000000
     42369     14123  TIP3      H2              2.4098033595       44.6560777139      -13.4431296465  W2        14123           0.0000000000
     42370     14124  TIP3      OH2            13.2959733595       47.6642677139       -3.7175596465  W2        14124           0.0000000000
     42371     14124  TIP3      H1             13.6194533595       47.0332377139       -4.3605096465  W2        14124           0.0000000000
     42372     14124  TIP3      H2             12.8559033595       47.1294877139       -3.0568196465  W2        14124           0.0000000000
     42373     14125  TIP3      OH2            10.0732633595       43.5918177139       -8.9334396465  W2        14125           0.0000000000
     42374     14125  TIP3      H1              9.1623733595       43.6484977139       -8.6448396465  W2        14125           0.0000000000
     42375     14125  TIP3      H2             10.5785533595       43.5313677139       -8.1227196465  W2        14125           0.0000000000
     42376     14126  TIP3      OH2             4.9016033595       45.2204477139      -10.1066796465  W2        14126           0.0000000000
     42377     14126  TIP3      H1              4.0124033595       45.3199977139      -10.4467196465  W2        14126           0.0000000000
     42378     14126  TIP3      H2              5.1980933595       44.3787477139      -10.4528896465  W2        14126           0.0000000000
     42379     14127  TIP3      OH2             8.5547833595       45.2207077139      -12.4502196465  W2        14127           0.0000000000
     42380     14127  TIP3      H1              9.4863333595       45.3497077139      -12.2719096465  W2        14127           0.0000000000
     42381     14127  TIP3      H2              8.3398133595       45.8901377139      -13.0997496465  W2        14127           0.0000000000
     42382     14128  TIP3      OH2            14.4784533595       42.8264477139       -5.6692596465  W2        14128           0.0000000000
     42383     14128  TIP3      H1             13.8016133595       42.9577577139       -5.0052896465  W2        14128           0.0000000000
     42384     14128  TIP3      H2             13.9929433595       42.6713977139       -6.4794896465  W2        14128           0.0000000000
     42385     14129  TIP3      OH2             7.2288033595       46.4149277139      -14.8836096465  W2        14129           0.0000000000
     42386     14129  TIP3      H1              6.6863133595       46.0353077139      -15.5748496465  W2        14129           0.0000000000
     42387     14129  TIP3      H2              8.0622933595       46.6093977139      -15.3121996465  W2        14129           0.0000000000
     42388     14130  TIP3      OH2             5.3639433595       50.9721177139        0.2155503535  W2        14130           0.0000000000
     42389     14130  TIP3      H1              6.0961833595       51.2267077139        0.7770003535  W2        14130           0.0000000000
     42390     14130  TIP3      H2              4.5838133595       51.1766577139        0.7310903535  W2        14130           0.0000000000
     42391     14131  TIP3      OH2            11.3932333595       46.3791177139       -7.0464796465  W2        14131           0.0000000000
     42392     14131  TIP3      H1             11.9575733595       45.8327777139       -7.5935196465  W2        14131           0.0000000000
     42393     14131  TIP3      H2             11.2455733595       45.8573077139       -6.2577196465  W2        14131           0.0000000000
     42394     14132  TIP3      OH2             6.3952033595       42.5157277139      -10.6279996465  W2        14132           0.0000000000
     42395     14132  TIP3      H1              6.0781533595       41.6132577139      -10.6634596465  W2        14132           0.0000000000
     42396     14132  TIP3      H2              7.1766133595       42.5174677139      -11.1808396465  W2        14132           0.0000000000
     42397     14133  TIP3      OH2            10.0198233595       44.7677277139       -4.6324396465  W2        14133           0.0000000000
     42398     14133  TIP3      H1              9.1843533595       45.2216777139       -4.5221996465  W2        14133           0.0000000000
     42399     14133  TIP3      H2             10.5438833595       45.0435777139       -3.8804496465  W2        14133           0.0000000000
     42400     14134  TIP3      OH2            10.5640833595       50.9804977139      -12.9477996465  W2        14134           0.0000000000
     42401     14134  TIP3      H1              9.8191833595       50.4730277139      -13.2700096465  W2        14134           0.0000000000
     42402     14134  TIP3      H2             10.4298033595       51.0292977139      -12.0013196465  W2        14134           0.0000000000
     42403     14135  TIP3      OH2            17.7139733595       50.1133177139       -4.1610396465  W2        14135           0.0000000000
     42404     14135  TIP3      H1             18.3558533595       50.5699477139       -4.7048196465  W2        14135           0.0000000000
     42405     14135  TIP3      H2             16.8836633595       50.2265577139       -4.6236296465  W2        14135           0.0000000000
     42406     14136  TIP3      OH2            14.4617633595       43.7944877139      -14.7485396465  W2        14136           0.0000000000
     42407     14136  TIP3      H1             13.5231833595       43.9060477139      -14.8996596465  W2        14136           0.0000000000
     42408     14136  TIP3      H2             14.7589733595       44.6511777139      -14.4419696465  W2        14136           0.0000000000
     42409     14137  TIP3      OH2            12.0832933595       51.1648277139       -1.7108896465  W2        14137           0.0000000000
     42410     14137  TIP3      H1             11.7379033595       50.7830677139       -0.9039296465  W2        14137           0.0000000000
     42411     14137  TIP3      H2             11.8833033595       52.0981877139       -1.6395996465  W2        14137           0.0000000000
     42412     14138  TIP3      OH2            15.1801133595       45.6617577139      -13.0877996465  W2        14138           0.0000000000
     42413     14138  TIP3      H1             16.0720133595       45.5242577139      -12.7686796465  W2        14138           0.0000000000
     42414     14138  TIP3      H2             15.2364733595       46.4523677139      -13.6244496465  W2        14138           0.0000000000
     42415     14139  TIP3      OH2             5.6889133595       50.2754977139       -7.1780096465  W2        14139           0.0000000000
     42416     14139  TIP3      H1              6.4336333595       50.2730677139       -7.7793596465  W2        14139           0.0000000000
     42417     14139  TIP3      H2              5.7665733595       49.4518777139       -6.6964996465  W2        14139           0.0000000000
     42418     14140  TIP3      OH2            12.6894933595       52.4389277139      -13.9223396465  W2        14140           0.0000000000
     42419     14140  TIP3      H1             12.3943333595       53.2657177139      -13.5408596465  W2        14140           0.0000000000
     42420     14140  TIP3      H2             11.9864933595       51.8196177139      -13.7261996465  W2        14140           0.0000000000
     42421     14141  TIP3      OH2             2.6968833595       48.7361877139       -1.8631596465  W2        14141           0.0000000000
     42422     14141  TIP3      H1              2.9197433595       48.3181477139       -1.0314096465  W2        14141           0.0000000000
     42423     14141  TIP3      H2              2.0948933595       48.1236877139       -2.2858796465  W2        14141           0.0000000000
     42424     14142  TIP3      OH2             9.7133733595       48.2531777139        0.3498103535  W2        14142           0.0000000000
     42425     14142  TIP3      H1              9.4174533595       48.0874777139       -0.5452796465  W2        14142           0.0000000000
     42426     14142  TIP3      H2             10.6448933595       48.0332077139        0.3392003535  W2        14142           0.0000000000
     42427     14143  TIP3      OH2            14.3336533595       53.6263777139       -1.7603896465  W2        14143           0.0000000000
     42428     14143  TIP3      H1             13.4330833595       53.8096377139       -2.0279996465  W2        14143           0.0000000000
     42429     14143  TIP3      H2             14.3677633595       53.8853077139       -0.8395096465  W2        14143           0.0000000000
     42430     14144  TIP3      OH2            20.0649833595       45.8711677139      -13.3931296465  W2        14144           0.0000000000
     42431     14144  TIP3      H1             19.5106133595       45.4749677139      -14.0653796465  W2        14144           0.0000000000
     42432     14144  TIP3      H2             20.1653433595       46.7816877139      -13.6707996465  W2        14144           0.0000000000
     42433     14145  TIP3      OH2            20.0281833595       51.6713377139       -0.5559796465  W2        14145           0.0000000000
     42434     14145  TIP3      H1             19.1770333595       51.9097177139       -0.9233396465  W2        14145           0.0000000000
     42435     14145  TIP3      H2             20.6185233595       51.6546577139       -1.3092696465  W2        14145           0.0000000000
     42436     14146  TIP3      OH2            18.3601533595       54.6572077139      -12.9279196465  W2        14146           0.0000000000
     42437     14146  TIP3      H1             17.9872633595       53.8315877139      -12.6188596465  W2        14146           0.0000000000
     42438     14146  TIP3      H2             18.6375033595       54.4741477139      -13.8255796465  W2        14146           0.0000000000
     42439     14147  TIP3      OH2            15.5205433595       49.4651577139       -5.9067296465  W2        14147           0.0000000000
     42440     14147  TIP3      H1             14.5922333595       49.2333477139       -5.9337996465  W2        14147           0.0000000000
     42441     14147  TIP3      H2             15.9716533595       48.6881377139       -6.2368496465  W2        14147           0.0000000000
     42442     14148  TIP3      OH2             8.0638533595       53.7933177139       -9.7738596465  W2        14148           0.0000000000
     42443     14148  TIP3      H1              8.5910733595       54.5667577139       -9.9739796465  W2        14148           0.0000000000
     42444     14148  TIP3      H2              7.1837033595       54.0182377139      -10.0754596465  W2        14148           0.0000000000
     42445     14149  TIP3      OH2             3.8186233595       48.6557277139      -15.1866196465  W2        14149           0.0000000000
     42446     14149  TIP3      H1              4.4346133595       49.2824477139      -14.8071396465  W2        14149           0.0000000000
     42447     14149  TIP3      H2              2.9568833595       48.9717077139      -14.9149696465  W2        14149           0.0000000000
     42448     14150  TIP3      OH2             9.4910833595       51.4563077139      -10.1974296465  W2        14150           0.0000000000
     42449     14150  TIP3      H1              9.2500833595       52.3817477139      -10.1558996465  W2        14150           0.0000000000
     42450     14150  TIP3      H2              8.7504433595       50.9974377139       -9.8010396465  W2        14150           0.0000000000
     42451     14151  TIP3      OH2            13.5498233595       51.7047377139       -4.1817596465  W2        14151           0.0000000000
     42452     14151  TIP3      H1             13.1239533595       51.4769077139       -3.3553596465  W2        14151           0.0000000000
     42453     14151  TIP3      H2             14.1304033595       50.9659177139       -4.3642296465  W2        14151           0.0000000000
     42454     14152  TIP3      OH2            15.7527133595       52.6337877139      -15.1078596465  W2        14152           0.0000000000
     42455     14152  TIP3      H1             16.1060233595       52.2537677139      -14.3035096465  W2        14152           0.0000000000
     42456     14152  TIP3      H2             14.8040633595       52.5402677139      -15.0209296465  W2        14152           0.0000000000
     42457     14153  TIP3      OH2             4.3308333595       43.4894577139       -2.3050196465  W2        14153           0.0000000000
     42458     14153  TIP3      H1              3.4380633595       43.8279977139       -2.3726196465  W2        14153           0.0000000000
     42459     14153  TIP3      H2              4.2321133595       42.6340677139       -1.8869396465  W2        14153           0.0000000000
     42460     14154  TIP3      OH2            16.6186433595       51.3059877139      -12.8810696465  W2        14154           0.0000000000
     42461     14154  TIP3      H1             16.3414033595       50.5779177139      -12.3249596465  W2        14154           0.0000000000
     42462     14154  TIP3      H2             17.5459433595       51.4251877139      -12.6758096465  W2        14154           0.0000000000
     42463     14155  TIP3      OH2             9.8434933595       53.7453977139      -16.6608596465  W2        14155           0.0000000000
     42464     14155  TIP3      H1             10.0824733595       52.9972077139      -17.2079696465  W2        14155           0.0000000000
     42465     14155  TIP3      H2              9.5746233595       53.3575677139      -15.8280796465  W2        14155           0.0000000000
     42466     14156  TIP3      OH2             8.7805533595       53.3157777139      -14.2045996465  W2        14156           0.0000000000
     42467     14156  TIP3      H1              8.9273533595       52.7957577139      -13.4145096465  W2        14156           0.0000000000
     42468     14156  TIP3      H2              8.7777233595       54.2225377139      -13.8980096465  W2        14156           0.0000000000
     42469     14157  TIP3      OH2             5.2336633595       50.5681077139      -13.6940596465  W2        14157           0.0000000000
     42470     14157  TIP3      H1              4.5475933595       50.9203577139      -13.1270896465  W2        14157           0.0000000000
     42471     14157  TIP3      H2              5.7564533595       51.3310677139      -13.9406296465  W2        14157           0.0000000000
     42472     14158  TIP3      OH2            13.0651733595       43.2304877139       -3.4151596465  W2        14158           0.0000000000
     42473     14158  TIP3      H1             13.7639633595       43.3043577139       -2.7651896465  W2        14158           0.0000000000
     42474     14158  TIP3      H2             12.6843133595       42.3659877139       -3.2608696465  W2        14158           0.0000000000
     42475     14159  TIP3      OH2            13.8496633595       42.8826577139      -12.3179296465  W2        14159           0.0000000000
     42476     14159  TIP3      H1             14.0694933595       43.3541977139      -13.1213896465  W2        14159           0.0000000000
     42477     14159  TIP3      H2             14.4080633595       43.2769177139      -11.6478696465  W2        14159           0.0000000000
     42478     14160  TIP3      OH2            11.0496533595       44.6105377139      -11.4830896465  W2        14160           0.0000000000
     42479     14160  TIP3      H1             11.8619133595       45.1148577139      -11.4369196465  W2        14160           0.0000000000
     42480     14160  TIP3      H2             10.8049533595       44.4655077139      -10.5691296465  W2        14160           0.0000000000
     42481     14161  TIP3      OH2            11.5852933595       45.5968077139       -2.2984296465  W2        14161           0.0000000000
     42482     14161  TIP3      H1             11.7043233595       46.1703477139       -1.5413896465  W2        14161           0.0000000000
     42483     14161  TIP3      H2             12.2407533595       44.9087477139       -2.1836496465  W2        14161           0.0000000000
     42484     14162  TIP3      OH2            11.9333233595       41.6918377139      -10.5449796465  W2        14162           0.0000000000
     42485     14162  TIP3      H1             11.5866733595       42.3088977139       -9.9005496465  W2        14162           0.0000000000
     42486     14162  TIP3      H2             12.5920133595       42.1924077139      -11.0264296465  W2        14162           0.0000000000
     42487     14163  TIP3      OH2             7.5910233595       42.7547777139      -13.8577296465  W2        14163           0.0000000000
     42488     14163  TIP3      H1              7.5075033595       43.6430877139      -13.5110896465  W2        14163           0.0000000000
     42489     14163  TIP3      H2              8.4810533595       42.4894477139      -13.6260496465  W2        14163           0.0000000000
     42490     14164  TIP3      OH2            17.7898733595       43.5038377139       -1.4634596465  W2        14164           0.0000000000
     42491     14164  TIP3      H1             16.8734533595       43.7660077139       -1.5510896465  W2        14164           0.0000000000
     42492     14164  TIP3      H2             18.1253733595       43.5007377139       -2.3599296465  W2        14164           0.0000000000
     42493     14165  TIP3      OH2            16.3919733595       47.2539377139       -7.3677296465  W2        14165           0.0000000000
     42494     14165  TIP3      H1             15.5944133595       46.8389577139       -7.6962296465  W2        14165           0.0000000000
     42495     14165  TIP3      H2             16.8370833595       46.5633077139       -6.8766796465  W2        14165           0.0000000000
     42496     14166  TIP3      OH2             5.8495533595       53.1819977139      -14.7972796465  W2        14166           0.0000000000
     42497     14166  TIP3      H1              6.4417033595       53.8814777139      -14.5210396465  W2        14166           0.0000000000
     42498     14166  TIP3      H2              6.3088533595       52.7489477139      -15.5168196465  W2        14166           0.0000000000
     42499     14167  TIP3      OH2             4.1654733595       45.8462977139      -15.6813396465  W2        14167           0.0000000000
     42500     14167  TIP3      H1              4.1207333595       46.7856077139      -15.5026396465  W2        14167           0.0000000000
     42501     14167  TIP3      H2              3.2777933595       45.6107877139      -15.9511296465  W2        14167           0.0000000000
     42502     14168  TIP3      OH2             4.9736733595       40.6279577139       -7.0082396465  W2        14168           0.0000000000
     42503     14168  TIP3      H1              4.7446533595       40.6872077139       -7.9357396465  W2        14168           0.0000000000
     42504     14168  TIP3      H2              4.5310133595       39.8365077139       -6.7018296465  W2        14168           0.0000000000
     42505     14169  TIP3      OH2             3.9040033595       54.5686677139      -10.8476596465  W2        14169           0.0000000000
     42506     14169  TIP3      H1              3.0718633595       55.0409377139      -10.8205196465  W2        14169           0.0000000000
     42507     14169  TIP3      H2              4.4498333595       55.0784277139      -11.4463496465  W2        14169           0.0000000000
     42508     14170  TIP3      OH2            14.3665833595       54.4805877139        0.8317103535  W2        14170           0.0000000000
     42509     14170  TIP3      H1             14.0155333595       53.6238877139        1.0747503535  W2        14170           0.0000000000
     42510     14170  TIP3      H2             15.0929033595       54.6232577139        1.4386103535  W2        14170           0.0000000000
     42511     14171  TIP3      OH2             3.0993233595       50.9914477139        1.4365703535  W2        14171           0.0000000000
     42512     14171  TIP3      H1              3.2433733595       50.0895177139        1.1502403535  W2        14171           0.0000000000
     42513     14171  TIP3      H2              2.3270633595       51.2776577139        0.9488003535  W2        14171           0.0000000000
     42514     14172  TIP3      OH2             7.4406933595       51.3350177139      -16.4309696465  W2        14172           0.0000000000
     42515     14172  TIP3      H1              7.5051033595       50.5409777139      -15.9003296465  W2        14172           0.0000000000
     42516     14172  TIP3      H2              8.0936133595       51.2162977139      -17.1207696465  W2        14172           0.0000000000
     42517     14173  TIP3      OH2             9.7549333595       50.9612577139        0.8692103535  W2        14173           0.0000000000
     42518     14173  TIP3      H1              9.4263133595       51.2320677139        0.0119503535  W2        14173           0.0000000000
     42519     14173  TIP3      H2              9.9067533595       50.0202377139        0.7817103535  W2        14173           0.0000000000
     42520     14174  TIP3      OH2            12.7930333595       52.3821877139      -16.6951696465  W2        14174           0.0000000000
     42521     14174  TIP3      H1             12.5244433595       52.5623977139      -15.7942796465  W2        14174           0.0000000000
     42522     14174  TIP3      H2             12.5865933595       51.4568077139      -16.8265896465  W2        14174           0.0000000000
     42523     14175  TIP3      OH2            15.4894533595       50.8769877139       -1.7475596465  W2        14175           0.0000000000
     42524     14175  TIP3      H1             16.2349333595       51.4653577139       -1.8671596465  W2        14175           0.0000000000
     42525     14175  TIP3      H2             14.7321333595       51.4589577139       -1.6842496465  W2        14175           0.0000000000
     42526     14176  TIP3      OH2             3.9319733595       48.1917777139        0.8565003535  W2        14176           0.0000000000
     42527     14176  TIP3      H1              4.3400933595       47.3344377139        0.7355603535  W2        14176           0.0000000000
     42528     14176  TIP3      H2              3.6717333595       48.2059077139        1.7775303535  W2        14176           0.0000000000
     42529     14177  TIP3      OH2             8.5900733595       49.3076377139      -14.1251696465  W2        14177           0.0000000000
     42530     14177  TIP3      H1              8.1302733595       48.8234677139      -13.4393196465  W2        14177           0.0000000000
     42531     14177  TIP3      H2              8.8449433595       48.6391777139      -14.7611196465  W2        14177           0.0000000000
     42532     14178  TIP3      OH2             7.8790033595       47.2003477139       -1.7692096465  W2        14178           0.0000000000
     42533     14178  TIP3      H1              7.2606133595       47.8750077139       -1.4887396465  W2        14178           0.0000000000
     42534     14178  TIP3      H2              8.2231233595       47.5217377139       -2.6025896465  W2        14178           0.0000000000
     42535     14179  TIP3      OH2             9.6611133595       47.5508177139      -15.8628496465  W2        14179           0.0000000000
     42536     14179  TIP3      H1              9.4806133595       47.3959377139      -16.7900196465  W2        14179           0.0000000000
     42537     14179  TIP3      H2             10.6111633595       47.6586877139      -15.8180596465  W2        14179           0.0000000000
     42538     14180  TIP3      OH2            12.8988233595       49.6718777139        1.5082703535  W2        14180           0.0000000000
     42539     14180  TIP3      H1             13.8519433595       49.7557877139        1.4808703535  W2        14180           0.0000000000
     42540     14180  TIP3      H2             12.7382833595       48.9600577139        2.1277603535  W2        14180           0.0000000000
     42541     14181  TIP3      OH2            19.0509433595       49.9052377139      -16.4170396465  W2        14181           0.0000000000
     42542     14181  TIP3      H1             18.7774233595       49.4807877139      -17.2302096465  W2        14181           0.0000000000
     42543     14181  TIP3      H2             19.0903533595       50.8366877139      -16.6339996465  W2        14181           0.0000000000
     42544     14182  TIP3      OH2             8.2183733595       44.5554277139       -0.6868996465  W2        14182           0.0000000000
     42545     14182  TIP3      H1              8.3684633595       43.8265577139       -1.2889296465  W2        14182           0.0000000000
     42546     14182  TIP3      H2              8.2206133595       45.3325977139       -1.2456796465  W2        14182           0.0000000000
     42547     14183  TIP3      OH2             8.6309433595       42.9250077139       -3.1941596465  W2        14183           0.0000000000
     42548     14183  TIP3      H1              9.1666933595       43.3766777139       -3.8462296465  W2        14183           0.0000000000
     42549     14183  TIP3      H2              7.7789033595       42.8169877139       -3.6167496465  W2        14183           0.0000000000
     42550     14184  TIP3      OH2            10.2127833595       48.3646277139       -2.9546396465  W2        14184           0.0000000000
     42551     14184  TIP3      H1             10.9632633595       48.2083777139       -3.5278596465  W2        14184           0.0000000000
     42552     14184  TIP3      H2              9.8736133595       49.2162877139       -3.2300896465  W2        14184           0.0000000000
     42553     14185  TIP3      OH2            14.6284033595       46.1798077139        2.0738903535  W2        14185           0.0000000000
     42554     14185  TIP3      H1             14.8205333595       45.2487477139        1.9623403535  W2        14185           0.0000000000
     42555     14185  TIP3      H2             15.4860333595       46.6047577139        2.0634303535  W2        14185           0.0000000000
     42556     14186  TIP3      OH2            15.9451233595       48.9683277139        0.1511603535  W2        14186           0.0000000000
     42557     14186  TIP3      H1             15.6636233595       49.6777877139       -0.4264596465  W2        14186           0.0000000000
     42558     14186  TIP3      H2             16.8875533595       48.8956277139        0.0002803535  W2        14186           0.0000000000
     42559     14187  TIP3      OH2             6.6970033595       45.7537777139        1.2246603535  W2        14187           0.0000000000
     42560     14187  TIP3      H1              5.9299033595       45.2212577139        1.0144203535  W2        14187           0.0000000000
     42561     14187  TIP3      H2              7.3759033595       45.4438177139        0.6252903535  W2        14187           0.0000000000
     42562     14188  TIP3      OH2             9.4364933595       40.3815777139       -2.7627996465  W2        14188           0.0000000000
     42563     14188  TIP3      H1              9.3384533595       41.3278977139       -2.8681796465  W2        14188           0.0000000000
     42564     14188  TIP3      H2              8.6941133595       40.0089577139       -3.2384496465  W2        14188           0.0000000000
     42565     14189  TIP3      OH2            10.7005433595       44.7031177139        0.8010403535  W2        14189           0.0000000000
     42566     14189  TIP3      H1             10.4650833595       44.4837877139        1.7025303535  W2        14189           0.0000000000
     42567     14189  TIP3      H2              9.9172333595       44.4962377139        0.2912903535  W2        14189           0.0000000000
     42568     14190  TIP3      OH2            13.4162033595       43.8304677139       -0.1236096465  W2        14190           0.0000000000
     42569     14190  TIP3      H1             12.4687433595       43.8624377139        0.0087203535  W2        14190           0.0000000000
     42570     14190  TIP3      H2             13.7288733595       43.2051777139        0.5302103535  W2        14190           0.0000000000
     42571     14191  TIP3      OH2            15.0503533595       42.4645777139        1.8815803535  W2        14191           0.0000000000
     42572     14191  TIP3      H1             14.9535333595       41.5123077139        1.8757703535  W2        14191           0.0000000000
     42573     14191  TIP3      H2             14.7286633595       42.7332577139        2.7421303535  W2        14191           0.0000000000
     42574     14192  TIP3      OH2             4.8772833595       43.6741577139        0.9291303535  W2        14192           0.0000000000
     42575     14192  TIP3      H1              5.0890233595       42.9677677139        0.3188803535  W2        14192           0.0000000000
     42576     14192  TIP3      H2              4.7660333595       43.2367577139        1.7732503535  W2        14192           0.0000000000
     42577     14193  TIP3      OH2             9.6583033595       39.6753177139       -0.0915196465  W2        14193           0.0000000000
     42578     14193  TIP3      H1             10.3701433595       39.0355377139       -0.1056096465  W2        14193           0.0000000000
     42579     14193  TIP3      H2              9.5573433595       39.9421477139       -1.0052096465  W2        14193           0.0000000000
     42580     14194  TIP3      OH2            10.0120533595       41.3581577139        1.9621103535  W2        14194           0.0000000000
     42581     14194  TIP3      H1              9.8802733595       40.8825377139        1.1419603535  W2        14194           0.0000000000
     42582     14194  TIP3      H2              9.4127933595       42.1025177139        1.9068203535  W2        14194           0.0000000000
     42583     14195  TIP3      OH2             3.1267733595       52.8775677139      -15.3786796465  W2        14195           0.0000000000
     42584     14195  TIP3      H1              4.0406933595       52.9564577139      -15.1052896465  W2        14195           0.0000000000
     42585     14195  TIP3      H2              3.1340833595       52.1905277139      -16.0451196465  W2        14195           0.0000000000
     42586     14196  TIP3      OH2            18.2082533595       52.5176777139        2.0437503535  W2        14196           0.0000000000
     42587     14196  TIP3      H1             17.3423633595       52.4126477139        2.4379803535  W2        14196           0.0000000000
     42588     14196  TIP3      H2             18.5848433595       53.2760077139        2.4902203535  W2        14196           0.0000000000
     42589     14197  TIP3      OH2            19.5092233595       50.7740477139      -12.4419996465  W2        14197           0.0000000000
     42590     14197  TIP3      H1             20.3593633595       51.1951377139      -12.3148396465  W2        14197           0.0000000000
     42591     14197  TIP3      H2             19.5147333595       50.0340577139      -11.8348596465  W2        14197           0.0000000000
     42592     14198  TIP3      OH2            19.9037833595       48.8277877139      -10.6184296465  W2        14198           0.0000000000
     42593     14198  TIP3      H1             19.1772433595       48.3480477139      -10.2206696465  W2        14198           0.0000000000
     42594     14198  TIP3      H2             20.4851133595       49.0332577139       -9.8862696465  W2        14198           0.0000000000
     42595     14199  TIP3      OH2            19.6629033595       51.6125377139       -5.6706696465  W2        14199           0.0000000000
     42596     14199  TIP3      H1             20.4963233595       51.2345377139       -5.9513096465  W2        14199           0.0000000000
     42597     14199  TIP3      H2             19.7749333595       52.5556577139       -5.7897596465  W2        14199           0.0000000000
     42598     14200  TIP3      OH2            18.1491333595       54.4902877139       -3.3638296465  W2        14200           0.0000000000
     42599     14200  TIP3      H1             17.5016633595       54.8154377139       -2.7383096465  W2        14200           0.0000000000
     42600     14200  TIP3      H2             17.6315333595       54.0500577139       -4.0379996465  W2        14200           0.0000000000
     42601     14201  TIP3      OH2            20.1720933595       48.7286377139      -14.2272996465  W2        14201           0.0000000000
     42602     14201  TIP3      H1             19.6502033595       49.0850477139      -14.9462096465  W2        14201           0.0000000000
     42603     14201  TIP3      H2             20.1390133595       49.4034177139      -13.5492096465  W2        14201           0.0000000000
     42604     14202  TIP3      OH2            18.5209933595       45.9681977139      -15.6765896465  W2        14202           0.0000000000
     42605     14202  TIP3      H1             18.6174333595       46.6348977139      -16.3566196465  W2        14202           0.0000000000
     42606     14202  TIP3      H2             18.3809533595       45.1528277139      -16.1580396465  W2        14202           0.0000000000
     42607     14203  TIP3      OH2            17.6904633595       47.3484377139      -10.0555596465  W2        14203           0.0000000000
     42608     14203  TIP3      H1             17.5403433595       46.4032977139      -10.0757796465  W2        14203           0.0000000000
     42609     14203  TIP3      H2             17.3369133595       47.6295777139       -9.2116496465  W2        14203           0.0000000000
     42610     14204  TIP3      OH2             2.7257033595       49.4266577139       -6.0451796465  W2        14204           0.0000000000
     42611     14204  TIP3      H1              2.9099933595       49.3448277139       -6.9808896465  W2        14204           0.0000000000
     42612     14204  TIP3      H2              3.5749933595       49.3023577139       -5.6215396465  W2        14204           0.0000000000
     42613     14205  TIP3      OH2            18.5467533595       49.3187677139       -0.4167296465  W2        14205           0.0000000000
     42614     14205  TIP3      H1             19.1294833595       48.5839977139       -0.2250096465  W2        14205           0.0000000000
     42615     14205  TIP3      H2             19.1106833595       50.0907977139       -0.3701496465  W2        14205           0.0000000000
     42616     14206  TIP3      OH2            20.0434633595       47.2213477139        0.2678103535  W2        14206           0.0000000000
     42617     14206  TIP3      H1             19.1801333595       46.8425577139        0.1022803535  W2        14206           0.0000000000
     42618     14206  TIP3      H2             20.6478333595       46.4828277139        0.1933903535  W2        14206           0.0000000000
     42619     14207  TIP3      OH2            17.7683733595       43.3761777139      -16.5590396465  W2        14207           0.0000000000
     42620     14207  TIP3      H1             18.3789533595       43.0048577139      -15.9222196465  W2        14207           0.0000000000
     42621     14207  TIP3      H2             16.9315233595       42.9548677139      -16.3630396465  W2        14207           0.0000000000
     42622     14208  TIP3      OH2            17.4009433595       44.9310177139      -11.5930496465  W2        14208           0.0000000000
     42623     14208  TIP3      H1             17.6806533595       44.0240577139      -11.4688796465  W2        14208           0.0000000000
     42624     14208  TIP3      H2             18.1601133595       45.3651677139      -11.9821296465  W2        14208           0.0000000000
     42625     14209  TIP3      OH2            18.0127733595       45.5127577139       -6.1571596465  W2        14209           0.0000000000
     42626     14209  TIP3      H1             18.9455733595       45.7247477139       -6.1915596465  W2        14209           0.0000000000
     42627     14209  TIP3      H2             17.7775233595       45.6139677139       -5.2348596465  W2        14209           0.0000000000
     42628     14210  TIP3      OH2            18.0419633595       46.2492877139       -3.3812196465  W2        14210           0.0000000000
     42629     14210  TIP3      H1             17.1990933595       46.5173277139       -3.0152396465  W2        14210           0.0000000000
     42630     14210  TIP3      H2             18.4843933595       47.0714777139       -3.5921096465  W2        14210           0.0000000000
     42631     14211  TIP3      OH2             2.3231833595       44.6971577139        0.0957003535  W2        14211           0.0000000000
     42632     14211  TIP3      H1              3.2426733595       44.5749877139        0.3320103535  W2        14211           0.0000000000
     42633     14211  TIP3      H2              1.8736333595       43.9471277139        0.4850503535  W2        14211           0.0000000000
     42634     14212  TIP3      OH2            20.3251233595       40.2293077139        1.9722803535  W2        14212           0.0000000000
     42635     14212  TIP3      H1             20.6748233595       39.5756577139        1.3667503535  W2        14212           0.0000000000
     42636     14212  TIP3      H2             20.4720733595       41.0667177139        1.5325403535  W2        14212           0.0000000000
     42637     14213  TIP3      OH2            18.0144233595       42.1939477139      -11.5448496465  W2        14213           0.0000000000
     42638     14213  TIP3      H1             18.1969233595       41.7450977139      -10.7193496465  W2        14213           0.0000000000
     42639     14213  TIP3      H2             17.4147133595       41.6093877139      -12.0083896465  W2        14213           0.0000000000
     42640     14214  TIP3      OH2             3.5444333595       43.0093177139       -7.0130096465  W2        14214           0.0000000000
     42641     14214  TIP3      H1              3.9895933595       42.2175677139       -6.7110396465  W2        14214           0.0000000000
     42642     14214  TIP3      H2              4.0107333595       43.7258377139       -6.5824496465  W2        14214           0.0000000000
     42643     14215  TIP3      OH2             1.8484633595       46.0086177139       -5.9439896465  W2        14215           0.0000000000
     42644     14215  TIP3      H1              2.3404433595       45.7876677139       -6.7347896465  W2        14215           0.0000000000
     42645     14215  TIP3      H2              2.2105533595       46.8489577139       -5.6630396465  W2        14215           0.0000000000
     42646     14216  TIP3      OH2            19.8448433595       42.3387677139        0.3214103535  W2        14216           0.0000000000
     42647     14216  TIP3      H1             18.9274133595       42.6094777139        0.2857603535  W2        14216           0.0000000000
     42648     14216  TIP3      H2             19.9677833595       41.8036077139       -0.4626196465  W2        14216           0.0000000000
     42649     14217  TIP3      OH2            19.8810433595       42.2617577139      -15.0168196465  W2        14217           0.0000000000
     42650     14217  TIP3      H1             20.2933033595       41.5403277139      -15.4920196465  W2        14217           0.0000000000
     42651     14217  TIP3      H2             20.5626933595       42.9312177139      -14.9583896465  W2        14217           0.0000000000
     42652     14218  TIP3      OH2             2.1621133595       42.2665277139      -11.8897496465  W2        14218           0.0000000000
     42653     14218  TIP3      H1              1.2369533595       42.4751877139      -12.0191996465  W2        14218           0.0000000000
     42654     14218  TIP3      H2              2.6161033595       42.7506077139      -12.5795196465  W2        14218           0.0000000000
     42655     14219  TIP3      OH2             2.1256533595       41.0044277139       -3.5454996465  W2        14219           0.0000000000
     42656     14219  TIP3      H1              1.4607033595       40.7584577139       -2.9024096465  W2        14219           0.0000000000
     42657     14219  TIP3      H2              1.6827833595       41.6264677139       -4.1226996465  W2        14219           0.0000000000
     42658     14220  TIP3      OH2             4.3175833595       54.1798377139        0.5990803535  W2        14220           0.0000000000
     42659     14220  TIP3      H1              3.4968333595       54.3544877139        0.1385503535  W2        14220           0.0000000000
     42660     14220  TIP3      H2              4.0653633595       54.1063077139        1.5195203535  W2        14220           0.0000000000
     42661     14221  TIP3      OH2            18.8454333595       40.4283977139       -1.8595096465  W2        14221           0.0000000000
     42662     14221  TIP3      H1             18.0327833595       40.7534277139       -2.2470396465  W2        14221           0.0000000000
     42663     14221  TIP3      H2             19.0782833595       39.6682477139       -2.3925996465  W2        14221           0.0000000000
     42664     14222  TIP3      OH2            12.2752833595       41.8774577139       -7.5366896465  W2        14222           0.0000000000
     42665     14222  TIP3      H1             11.6009633595       41.2480177139       -7.2811096465  W2        14222           0.0000000000
     42666     14222  TIP3      H2             12.8392033595       41.3933477139       -8.1398996465  W2        14222           0.0000000000
     42667     14223  TIP3      OH2            17.4180033595       39.9848577139       -7.4239796465  W2        14223           0.0000000000
     42668     14223  TIP3      H1             18.0217633595       40.5323977139       -7.9258796465  W2        14223           0.0000000000
     42669     14223  TIP3      H2             16.5482033595       40.3038977139       -7.6645696465  W2        14223           0.0000000000
     42670     14224  TIP3      OH2            19.1450433595       41.1237277139       -9.0908896465  W2        14224           0.0000000000
     42671     14224  TIP3      H1             19.7567933595       40.6092977139       -9.6175296465  W2        14224           0.0000000000
     42672     14224  TIP3      H2             19.5273833595       42.0009377139       -9.0674496465  W2        14224           0.0000000000
     42673     14225  TIP3      OH2             4.6020333595       40.5114877139       -9.7146996465  W2        14225           0.0000000000
     42674     14225  TIP3      H1              3.8250133595       40.2769777139      -10.2221096465  W2        14225           0.0000000000
     42675     14225  TIP3      H2              5.1323933595       39.7146977139       -9.7058996465  W2        14225           0.0000000000
     42676     14226  TIP3      OH2             3.4383733595       40.3092977139      -13.9110896465  W2        14226           0.0000000000
     42677     14226  TIP3      H1              3.8774433595       40.9203477139      -14.5027396465  W2        14226           0.0000000000
     42678     14226  TIP3      H2              2.8046133595       40.8477077139      -13.4370896465  W2        14226           0.0000000000
     42679     14227  TIP3      OH2             9.1812933595       40.4381977139       -9.9013896465  W2        14227           0.0000000000
     42680     14227  TIP3      H1             10.0556333595       40.8266277139       -9.9309596465  W2        14227           0.0000000000
     42681     14227  TIP3      H2              9.0453733595       40.2229777139       -8.9786696465  W2        14227           0.0000000000
     42682     14228  TIP3      OH2            14.7381333595       40.4681777139       -8.2522196465  W2        14228           0.0000000000
     42683     14228  TIP3      H1             14.8142933595       40.5633377139       -9.2016196465  W2        14228           0.0000000000
     42684     14228  TIP3      H2             14.4630533595       39.5604677139       -8.1233096465  W2        14228           0.0000000000
     42685     14229  TIP3      OH2            16.0913933595       40.4939577139      -12.5597196465  W2        14229           0.0000000000
     42686     14229  TIP3      H1             15.3885033595       41.1088777139      -12.7695796465  W2        14229           0.0000000000
     42687     14229  TIP3      H2             15.6465333595       39.6566277139      -12.4286296465  W2        14229           0.0000000000
     42688     14230  TIP3      OH2             5.2992833595       42.2254477139      -15.4686796465  W2        14230           0.0000000000
     42689     14230  TIP3      H1              5.7906233595       41.5956877139      -15.9961296465  W2        14230           0.0000000000
     42690     14230  TIP3      H2              5.9229133595       42.5213877139      -14.8055596465  W2        14230           0.0000000000
     42691     14231  TIP3      OH2            10.3252933595       42.5185977139      -13.0116296465  W2        14231           0.0000000000
     42692     14231  TIP3      H1             10.5034233595       41.8719177139      -12.3287696465  W2        14231           0.0000000000
     42693     14231  TIP3      H2             10.2719133595       43.3523677139      -12.5445196465  W2        14231           0.0000000000
     42694     14232  TIP3      OH2             4.5598333595       41.0256777139       -0.1970796465  W2        14232           0.0000000000
     42695     14232  TIP3      H1              4.1936533595       40.2599377139        0.2453903535  W2        14232           0.0000000000
     42696     14232  TIP3      H2              5.4726833595       41.0546977139        0.0894303535  W2        14232           0.0000000000
     42697     14233  TIP3      OH2             6.5329133595       40.3761177139        1.3386303535  W2        14233           0.0000000000
     42698     14233  TIP3      H1              7.4312733595       40.1021377139        1.1539703535  W2        14233           0.0000000000
     42699     14233  TIP3      H2              6.1462233595       39.6337177139        1.8028903535  W2        14233           0.0000000000
     42700     14234  TIP3      OH2            14.9541433595       39.7086477139        1.5209103535  W2        14234           0.0000000000
     42701     14234  TIP3      H1             15.0308633595       39.2827177139        2.3746803535  W2        14234           0.0000000000
     42702     14234  TIP3      H2             15.8478033595       39.7221177139        1.1782603535  W2        14234           0.0000000000
     42703     14235  TIP3      OH2            32.5362933595       49.6677177139       -9.7559496465  W2        14235           0.0000000000
     42704     14235  TIP3      H1             32.6254033595       50.6115377139       -9.8882396465  W2        14235           0.0000000000
     42705     14235  TIP3      H2             31.8980533595       49.3923577139      -10.4140096465  W2        14235           0.0000000000
     42706     14236  TIP3      OH2            31.4694233595       48.9227877139       -6.3371296465  W2        14236           0.0000000000
     42707     14236  TIP3      H1             31.4311733595       48.2764177139       -5.6321696465  W2        14236           0.0000000000
     42708     14236  TIP3      H2             31.1470733595       48.4562277139       -7.1082596465  W2        14236           0.0000000000
     42709     14237  TIP3      OH2            23.8379233595       48.5369977139       -4.7441396465  W2        14237           0.0000000000
     42710     14237  TIP3      H1             23.8791333595       47.9113277139       -4.0208996465  W2        14237           0.0000000000
     42711     14237  TIP3      H2             24.5406933595       49.1608577139       -4.5620996465  W2        14237           0.0000000000
     42712     14238  TIP3      OH2            35.1754433595       51.8618277139       -8.0356196465  W2        14238           0.0000000000
     42713     14238  TIP3      H1             34.7347133595       51.1414277139       -7.5850596465  W2        14238           0.0000000000
     42714     14238  TIP3      H2             35.1624133595       52.5825477139       -7.4058496465  W2        14238           0.0000000000
     42715     14239  TIP3      OH2            24.7612333595       52.9868877139       -6.2092296465  W2        14239           0.0000000000
     42716     14239  TIP3      H1             24.3917533595       52.1849377139       -6.5787996465  W2        14239           0.0000000000
     42717     14239  TIP3      H2             25.7023433595       52.8183777139       -6.1628896465  W2        14239           0.0000000000
     42718     14240  TIP3      OH2            21.3712833595       46.6471477139      -10.8163496465  W2        14240           0.0000000000
     42719     14240  TIP3      H1             20.9236233595       47.4930177139      -10.8346996465  W2        14240           0.0000000000
     42720     14240  TIP3      H2             20.8104033595       46.0675677139      -11.3318396465  W2        14240           0.0000000000
     42721     14241  TIP3      OH2            22.0818933595       48.8091077139       -8.6905496465  W2        14241           0.0000000000
     42722     14241  TIP3      H1             22.2952433595       48.0392677139       -8.1632496465  W2        14241           0.0000000000
     42723     14241  TIP3      H2             22.8196533595       48.8987777139       -9.2937896465  W2        14241           0.0000000000
     42724     14242  TIP3      OH2            29.8588633595       51.3549277139       -5.9310296465  W2        14242           0.0000000000
     42725     14242  TIP3      H1             30.1626533595       50.6690677139       -6.5256196465  W2        14242           0.0000000000
     42726     14242  TIP3      H2             30.5802633595       51.4737977139       -5.3132296465  W2        14242           0.0000000000
     42727     14243  TIP3      OH2            38.5218433595       42.9564577139       -5.0704096465  W2        14243           0.0000000000
     42728     14243  TIP3      H1             38.5710633595       43.5665777139       -4.3344996465  W2        14243           0.0000000000
     42729     14243  TIP3      H2             38.9473533595       43.4175477139       -5.7932996465  W2        14243           0.0000000000
     42730     14244  TIP3      OH2            32.9995633595       45.7491677139       -5.6035496465  W2        14244           0.0000000000
     42731     14244  TIP3      H1             33.1421533595       44.8028677139       -5.5833896465  W2        14244           0.0000000000
     42732     14244  TIP3      H2             32.8934633595       45.9561477139       -6.5320596465  W2        14244           0.0000000000
     42733     14245  TIP3      OH2            26.1543933595       43.8508077139       -8.3310696465  W2        14245           0.0000000000
     42734     14245  TIP3      H1             26.1975033595       44.7106577139       -8.7494396465  W2        14245           0.0000000000
     42735     14245  TIP3      H2             25.6968033595       43.2982777139       -8.9647496465  W2        14245           0.0000000000
     42736     14246  TIP3      OH2            33.8766633595       43.9813677139       -9.9302396465  W2        14246           0.0000000000
     42737     14246  TIP3      H1             34.5230933595       43.6526877139       -9.3054796465  W2        14246           0.0000000000
     42738     14246  TIP3      H2             34.3866033595       44.4992677139      -10.5530996465  W2        14246           0.0000000000
     42739     14247  TIP3      OH2            22.7745433595       46.2473877139       -7.5689296465  W2        14247           0.0000000000
     42740     14247  TIP3      H1             23.4282033595       45.6975577139       -7.1369196465  W2        14247           0.0000000000
     42741     14247  TIP3      H2             22.7984733595       45.9732877139       -8.4857296465  W2        14247           0.0000000000
     42742     14248  TIP3      OH2            27.9309933595       47.7975177139       -8.3537796465  W2        14248           0.0000000000
     42743     14248  TIP3      H1             28.5470933595       47.2710577139       -7.8443796465  W2        14248           0.0000000000
     42744     14248  TIP3      H2             27.3448733595       47.1573877139       -8.7574196465  W2        14248           0.0000000000
     42745     14249  TIP3      OH2            38.9133033595       44.4343777139       -2.8344296465  W2        14249           0.0000000000
     42746     14249  TIP3      H1             38.2247633595       45.0924477139       -2.9297696465  W2        14249           0.0000000000
     42747     14249  TIP3      H2             38.9287633595       44.2371677139       -1.8978896465  W2        14249           0.0000000000
     42748     14250  TIP3      OH2            24.9645833595       42.7686477139       -4.2569896465  W2        14250           0.0000000000
     42749     14250  TIP3      H1             24.7457533595       43.2987077139       -5.0233896465  W2        14250           0.0000000000
     42750     14250  TIP3      H2             24.2966733595       42.9951977139       -3.6098496465  W2        14250           0.0000000000
     42751     14251  TIP3      OH2            32.3335633595       52.2687577139      -10.7130796465  W2        14251           0.0000000000
     42752     14251  TIP3      H1             32.0380733595       51.9459877139      -11.5643896465  W2        14251           0.0000000000
     42753     14251  TIP3      H2             32.0093433595       53.1684277139      -10.6718196465  W2        14251           0.0000000000
     42754     14252  TIP3      OH2            27.5337233595       50.4442177139       -3.9696196465  W2        14252           0.0000000000
     42755     14252  TIP3      H1             26.7936333595       51.0423677139       -3.8660996465  W2        14252           0.0000000000
     42756     14252  TIP3      H2             28.2476733595       50.9981777139       -4.2852596465  W2        14252           0.0000000000
     42757     14253  TIP3      OH2            35.6405033595       43.2722977139       -7.9496496465  W2        14253           0.0000000000
     42758     14253  TIP3      H1             35.4253033595       42.5066377139       -7.4170496465  W2        14253           0.0000000000
     42759     14253  TIP3      H2             36.2962433595       43.7447577139       -7.4367996465  W2        14253           0.0000000000
     42760     14254  TIP3      OH2            24.5583133595       44.6608277139       -6.3047696465  W2        14254           0.0000000000
     42761     14254  TIP3      H1             25.1719433595       45.2935877139       -5.9315296465  W2        14254           0.0000000000
     42762     14254  TIP3      H2             25.0703833595       44.1883277139       -6.9610796465  W2        14254           0.0000000000
     42763     14255  TIP3      OH2            25.9411533595       52.4085177139       -3.1824696465  W2        14255           0.0000000000
     42764     14255  TIP3      H1             25.9359133595       53.2878677139       -3.5605396465  W2        14255           0.0000000000
     42765     14255  TIP3      H2             25.0875633595       52.3249277139       -2.7574796465  W2        14255           0.0000000000
     42766     14256  TIP3      OH2            22.0622433595       52.0793077139      -12.4005396465  W2        14256           0.0000000000
     42767     14256  TIP3      H1             21.7903333595       52.3084077139      -13.2892496465  W2        14256           0.0000000000
     42768     14256  TIP3      H2             22.1078133595       52.9171877139      -11.9400096465  W2        14256           0.0000000000
     42769     14257  TIP3      OH2            35.6872133595       53.7008977139       -5.6876896465  W2        14257           0.0000000000
     42770     14257  TIP3      H1             34.7455833595       53.7592877139       -5.5259996465  W2        14257           0.0000000000
     42771     14257  TIP3      H2             35.9638233595       54.6069477139       -5.8247196465  W2        14257           0.0000000000
     42772     14258  TIP3      OH2            35.9879133595       41.9874277139       -4.2702996465  W2        14258           0.0000000000
     42773     14258  TIP3      H1             35.2518333595       42.5981377139       -4.3081696465  W2        14258           0.0000000000
     42774     14258  TIP3      H2             36.6713133595       42.4023277139       -4.7966596465  W2        14258           0.0000000000
     42775     14259  TIP3      OH2            28.9910533595       40.0741577139       -6.8044996465  W2        14259           0.0000000000
     42776     14259  TIP3      H1             28.8734733595       39.1257577139       -6.8586696465  W2        14259           0.0000000000
     42777     14259  TIP3      H2             28.1360633595       40.4067677139       -6.5313896465  W2        14259           0.0000000000
     42778     14260  TIP3      OH2            35.0989833595       53.3830977139      -10.5538696465  W2        14260           0.0000000000
     42779     14260  TIP3      H1             34.8414633595       52.6931077139      -11.1652796465  W2        14260           0.0000000000
     42780     14260  TIP3      H2             35.1700633595       52.9402177139       -9.7082796465  W2        14260           0.0000000000
     42781     14261  TIP3      OH2            36.7850033595       51.9497677139       -2.0765196465  W2        14261           0.0000000000
     42782     14261  TIP3      H1             36.9246333595       51.3580177139       -2.8158196465  W2        14261           0.0000000000
     42783     14261  TIP3      H2             36.9522833595       52.8223577139       -2.4326396465  W2        14261           0.0000000000
     42784     14262  TIP3      OH2            31.2575433595       48.9117177139      -12.3039196465  W2        14262           0.0000000000
     42785     14262  TIP3      H1             30.5460933595       49.4466877139      -12.6558696465  W2        14262           0.0000000000
     42786     14262  TIP3      H2             31.9485033595       48.9669277139      -12.9640296465  W2        14262           0.0000000000
     42787     14263  TIP3      OH2            31.3114633595       47.3691477139      -15.2654196465  W2        14263           0.0000000000
     42788     14263  TIP3      H1             32.0124533595       47.3918377139      -14.6140196465  W2        14263           0.0000000000
     42789     14263  TIP3      H2             31.6137533595       46.7411177139      -15.9214896465  W2        14263           0.0000000000
     42790     14264  TIP3      OH2            38.6269333595       48.2895677139       -4.0104796465  W2        14264           0.0000000000
     42791     14264  TIP3      H1             37.9743433595       48.9841277139       -3.9213896465  W2        14264           0.0000000000
     42792     14264  TIP3      H2             39.0919633595       48.4996577139       -4.8203196465  W2        14264           0.0000000000
     42793     14265  TIP3      OH2            34.6633133595       49.1210477139      -11.3523296465  W2        14265           0.0000000000
     42794     14265  TIP3      H1             33.9314133595       49.3494177139      -10.7792696465  W2        14265           0.0000000000
     42795     14265  TIP3      H2             35.1105333595       48.4073177139      -10.8975796465  W2        14265           0.0000000000
     42796     14266  TIP3      OH2            34.5606633595       47.2953077139       -2.2846296465  W2        14266           0.0000000000
     42797     14266  TIP3      H1             34.6405733595       48.0587477139       -1.7127796465  W2        14266           0.0000000000
     42798     14266  TIP3      H2             33.9594333595       47.5745477139       -2.9751196465  W2        14266           0.0000000000
     42799     14267  TIP3      OH2            26.3086833595       49.7516677139       -9.4698296465  W2        14267           0.0000000000
     42800     14267  TIP3      H1             25.9782033595       49.3810077139      -10.2881296465  W2        14267           0.0000000000
     42801     14267  TIP3      H2             26.8970933595       49.0810677139       -9.1229996465  W2        14267           0.0000000000
     42802     14268  TIP3      OH2            27.6754333595       53.1797277139       -6.7886096465  W2        14268           0.0000000000
     42803     14268  TIP3      H1             27.5805633595       52.6010377139       -7.5451496465  W2        14268           0.0000000000
     42804     14268  TIP3      H2             28.4047933595       52.8082977139       -6.2923296465  W2        14268           0.0000000000
     42805     14269  TIP3      OH2            26.6752333595       48.5202277139       -5.8363296465  W2        14269           0.0000000000
     42806     14269  TIP3      H1             27.2404833595       48.6416477139       -6.5992096465  W2        14269           0.0000000000
     42807     14269  TIP3      H2             26.9941233595       49.1577277139       -5.1974796465  W2        14269           0.0000000000
     42808     14270  TIP3      OH2            32.9844533595       54.0234177139       -5.1022796465  W2        14270           0.0000000000
     42809     14270  TIP3      H1             32.7441133595       54.6857277139       -4.4543596465  W2        14270           0.0000000000
     42810     14270  TIP3      H2             32.7862733595       53.1889377139       -4.6773196465  W2        14270           0.0000000000
     42811     14271  TIP3      OH2            27.5553033595       52.9194977139       -1.1191396465  W2        14271           0.0000000000
     42812     14271  TIP3      H1             27.2440533595       53.7018177139       -0.6638196465  W2        14271           0.0000000000
     42813     14271  TIP3      H2             26.9053233595       52.7664077139       -1.8049396465  W2        14271           0.0000000000
     42814     14272  TIP3      OH2            33.5342633595       48.2833377139      -13.6672096465  W2        14272           0.0000000000
     42815     14272  TIP3      H1             34.1138133595       48.4333677139      -12.9203196465  W2        14272           0.0000000000
     42816     14272  TIP3      H2             33.9482633595       48.7540777139      -14.3905696465  W2        14272           0.0000000000
     42817     14273  TIP3      OH2            24.4752933595       49.1176077139       -1.8905696465  W2        14273           0.0000000000
     42818     14273  TIP3      H1             24.5456133595       49.7682877139       -1.1920696465  W2        14273           0.0000000000
     42819     14273  TIP3      H2             23.5845133595       49.2203577139       -2.2254796465  W2        14273           0.0000000000
     42820     14274  TIP3      OH2            25.7948933595       54.9909977139       -0.3557596465  W2        14274           0.0000000000
     42821     14274  TIP3      H1             25.8024233595       54.8549677139       -1.3032096465  W2        14274           0.0000000000
     42822     14274  TIP3      H2             24.8789333595       54.8738077139       -0.1037596465  W2        14274           0.0000000000
     42823     14275  TIP3      OH2            37.2331033595       40.0333777139      -13.8542396465  W2        14275           0.0000000000
     42824     14275  TIP3      H1             36.3331733595       40.1722777139      -13.5591796465  W2        14275           0.0000000000
     42825     14275  TIP3      H2             37.4849433595       40.8648377139      -14.2560696465  W2        14275           0.0000000000
     42826     14276  TIP3      OH2            25.2989533595       48.8210977139      -11.8805496465  W2        14276           0.0000000000
     42827     14276  TIP3      H1             25.0070833595       49.5892677139      -12.3714196465  W2        14276           0.0000000000
     42828     14276  TIP3      H2             24.6244733595       48.1617177139      -12.0434096465  W2        14276           0.0000000000
     42829     14277  TIP3      OH2            38.4222433595       54.3996177139      -15.4778496465  W2        14277           0.0000000000
     42830     14277  TIP3      H1             38.4955933595       55.3386377139      -15.3073196465  W2        14277           0.0000000000
     42831     14277  TIP3      H2             39.3277533595       54.0944777139      -15.5341196465  W2        14277           0.0000000000
     42832     14278  TIP3      OH2            21.3919633595       51.1840177139       -3.0655696465  W2        14278           0.0000000000
     42833     14278  TIP3      H1             20.8908033595       51.1559577139       -3.8805996465  W2        14278           0.0000000000
     42834     14278  TIP3      H2             21.3973333595       50.2783377139       -2.7558396465  W2        14278           0.0000000000
     42835     14279  TIP3      OH2            21.1422333595       53.9643977139       -6.1815496465  W2        14279           0.0000000000
     42836     14279  TIP3      H1             22.0882933595       53.8200977139       -6.2005996465  W2        14279           0.0000000000
     42837     14279  TIP3      H2             21.0298633595       54.7486777139       -5.6444296465  W2        14279           0.0000000000
     42838     14280  TIP3      OH2            39.3400833595       54.6303677139       -0.4991796465  W2        14280           0.0000000000
     42839     14280  TIP3      H1             39.2907633595       53.6751777139       -0.5364196465  W2        14280           0.0000000000
     42840     14280  TIP3      H2             38.5133133595       54.8978977139       -0.0977996465  W2        14280           0.0000000000
     42841     14281  TIP3      OH2            30.3184833595       54.2042877139       -1.6230396465  W2        14281           0.0000000000
     42842     14281  TIP3      H1             30.4059433595       55.0307477139       -1.1481296465  W2        14281           0.0000000000
     42843     14281  TIP3      H2             29.4549933595       53.8746677139       -1.3741096465  W2        14281           0.0000000000
     42844     14282  TIP3      OH2            36.4920633595       46.1236177139       -0.0189596465  W2        14282           0.0000000000
     42845     14282  TIP3      H1             36.0847433595       46.6041777139       -0.7396296465  W2        14282           0.0000000000
     42846     14282  TIP3      H2             36.5326333595       45.2182177139       -0.3268796465  W2        14282           0.0000000000
     42847     14283  TIP3      OH2            23.6410133595       52.5075577139       -2.0222896465  W2        14283           0.0000000000
     42848     14283  TIP3      H1             23.8571433595       52.1461177139       -1.1627096465  W2        14283           0.0000000000
     42849     14283  TIP3      H2             22.7854833595       52.1329377139       -2.2319396465  W2        14283           0.0000000000
     42850     14284  TIP3      OH2            26.2598133595       40.9776077139       -6.0268696465  W2        14284           0.0000000000
     42851     14284  TIP3      H1             25.3981833595       40.8904277139       -6.4345796465  W2        14284           0.0000000000
     42852     14284  TIP3      H2             26.2373833595       41.8336177139       -5.5991096465  W2        14284           0.0000000000
     42853     14285  TIP3      OH2            30.9225933595       40.6996477139       -2.6521696465  W2        14285           0.0000000000
     42854     14285  TIP3      H1             31.3429033595       40.2843577139       -1.8991096465  W2        14285           0.0000000000
     42855     14285  TIP3      H2             29.9895533595       40.5209777139       -2.5349696465  W2        14285           0.0000000000
     42856     14286  TIP3      OH2            34.2490833595       44.4551677139       -1.7987196465  W2        14286           0.0000000000
     42857     14286  TIP3      H1             33.7350333595       44.3293877139       -1.0011196465  W2        14286           0.0000000000
     42858     14286  TIP3      H2             34.0935533595       45.3674777139       -2.0430996465  W2        14286           0.0000000000
     42859     14287  TIP3      OH2            35.0115733595       49.3161677139      -16.0374196465  W2        14287           0.0000000000
     42860     14287  TIP3      H1             35.0536533595       49.0935577139      -16.9674196465  W2        14287           0.0000000000
     42861     14287  TIP3      H2             35.8607833595       49.7148777139      -15.8474296465  W2        14287           0.0000000000
     42862     14288  TIP3      OH2            30.5843233595       43.1919877139      -15.3670896465  W2        14288           0.0000000000
     42863     14288  TIP3      H1             30.3308033595       43.2111477139      -14.4442796465  W2        14288           0.0000000000
     42864     14288  TIP3      H2             30.3275333595       42.3205277139      -15.6684696465  W2        14288           0.0000000000
     42865     14289  TIP3      OH2            26.3508233595       45.9430577139       -4.9318496465  W2        14289           0.0000000000
     42866     14289  TIP3      H1             25.7090333595       45.9027877139       -4.2228396465  W2        14289           0.0000000000
     42867     14289  TIP3      H2             26.3880233595       46.8695277139       -5.1695496465  W2        14289           0.0000000000
     42868     14290  TIP3      OH2            26.3477333595       46.1640677139      -10.0198496465  W2        14290           0.0000000000
     42869     14290  TIP3      H1             25.4550233595       45.8236777139      -10.0784696465  W2        14290           0.0000000000
     42870     14290  TIP3      H2             26.7983933595       45.7871577139      -10.7755296465  W2        14290           0.0000000000
     42871     14291  TIP3      OH2            31.8832833595       46.5800977139      -11.2027696465  W2        14291           0.0000000000
     42872     14291  TIP3      H1             31.4743133595       47.3949577139      -11.4942896465  W2        14291           0.0000000000
     42873     14291  TIP3      H2             32.6039033595       46.4401077139      -11.8170596465  W2        14291           0.0000000000
     42874     14292  TIP3      OH2            30.9854433595       46.7557377139        0.2853003535  W2        14292           0.0000000000
     42875     14292  TIP3      H1             30.4228233595       46.0508977139        0.6060803535  W2        14292           0.0000000000
     42876     14292  TIP3      H2             31.8117833595       46.6349277139        0.7530603535  W2        14292           0.0000000000
     42877     14293  TIP3      OH2            32.8880533595       46.0261377139       -8.3887996465  W2        14293           0.0000000000
     42878     14293  TIP3      H1             32.6925033595       46.6318177139       -9.1037396465  W2        14293           0.0000000000
     42879     14293  TIP3      H2             33.0693133595       45.1926577139       -8.8231696465  W2        14293           0.0000000000
     42880     14294  TIP3      OH2            24.1008733595       46.2634077139       -3.0646496465  W2        14294           0.0000000000
     42881     14294  TIP3      H1             24.0628133595       46.6635677139       -2.1959396465  W2        14294           0.0000000000
     42882     14294  TIP3      H2             23.6099833595       45.4466477139       -2.9743596465  W2        14294           0.0000000000
     42883     14295  TIP3      OH2            27.4666133595       43.6376377139      -16.2660496465  W2        14295           0.0000000000
     42884     14295  TIP3      H1             27.0356833595       43.1926477139      -15.5363096465  W2        14295           0.0000000000
     42885     14295  TIP3      H2             26.7484833595       44.0092677139      -16.7782996465  W2        14295           0.0000000000
     42886     14296  TIP3      OH2            20.7089533595       43.3795877139       -9.2141796465  W2        14296           0.0000000000
     42887     14296  TIP3      H1             21.3397233595       43.3507977139       -8.4947896465  W2        14296           0.0000000000
     42888     14296  TIP3      H2             21.1583833595       42.9544577139       -9.9445896465  W2        14296           0.0000000000
     42889     14297  TIP3      OH2            21.9831633595       44.1257877139      -13.7901396465  W2        14297           0.0000000000
     42890     14297  TIP3      H1             22.4573333595       44.7167777139      -14.3750496465  W2        14297           0.0000000000
     42891     14297  TIP3      H2             21.2658033595       44.6560777139      -13.4431296465  W2        14297           0.0000000000
     42892     14298  TIP3      OH2            32.1519733595       47.6642677139       -3.7175596465  W2        14298           0.0000000000
     42893     14298  TIP3      H1             32.4754533595       47.0332377139       -4.3605096465  W2        14298           0.0000000000
     42894     14298  TIP3      H2             31.7119033595       47.1294877139       -3.0568196465  W2        14298           0.0000000000
     42895     14299  TIP3      OH2            28.9292633595       43.5918177139       -8.9334396465  W2        14299           0.0000000000
     42896     14299  TIP3      H1             28.0183733595       43.6484977139       -8.6448396465  W2        14299           0.0000000000
     42897     14299  TIP3      H2             29.4345533595       43.5313677139       -8.1227196465  W2        14299           0.0000000000
     42898     14300  TIP3      OH2            23.7576033595       45.2204477139      -10.1066796465  W2        14300           0.0000000000
     42899     14300  TIP3      H1             22.8684033595       45.3199977139      -10.4467196465  W2        14300           0.0000000000
     42900     14300  TIP3      H2             24.0540933595       44.3787477139      -10.4528896465  W2        14300           0.0000000000
     42901     14301  TIP3      OH2            27.4107833595       45.2207077139      -12.4502196465  W2        14301           0.0000000000
     42902     14301  TIP3      H1             28.3423333595       45.3497077139      -12.2719096465  W2        14301           0.0000000000
     42903     14301  TIP3      H2             27.1958133595       45.8901377139      -13.0997496465  W2        14301           0.0000000000
     42904     14302  TIP3      OH2            33.3344533595       42.8264477139       -5.6692596465  W2        14302           0.0000000000
     42905     14302  TIP3      H1             32.6576133595       42.9577577139       -5.0052896465  W2        14302           0.0000000000
     42906     14302  TIP3      H2             32.8489433595       42.6713977139       -6.4794896465  W2        14302           0.0000000000
     42907     14303  TIP3      OH2            26.0848033595       46.4149277139      -14.8836096465  W2        14303           0.0000000000
     42908     14303  TIP3      H1             25.5423133595       46.0353077139      -15.5748496465  W2        14303           0.0000000000
     42909     14303  TIP3      H2             26.9182933595       46.6093977139      -15.3121996465  W2        14303           0.0000000000
     42910     14304  TIP3      OH2            24.2199433595       50.9721177139        0.2155503535  W2        14304           0.0000000000
     42911     14304  TIP3      H1             24.9521833595       51.2267077139        0.7770003535  W2        14304           0.0000000000
     42912     14304  TIP3      H2             23.4398133595       51.1766577139        0.7310903535  W2        14304           0.0000000000
     42913     14305  TIP3      OH2            30.2492333595       46.3791177139       -7.0464796465  W2        14305           0.0000000000
     42914     14305  TIP3      H1             30.8135733595       45.8327777139       -7.5935196465  W2        14305           0.0000000000
     42915     14305  TIP3      H2             30.1015733595       45.8573077139       -6.2577196465  W2        14305           0.0000000000
     42916     14306  TIP3      OH2            25.2512033595       42.5157277139      -10.6279996465  W2        14306           0.0000000000
     42917     14306  TIP3      H1             24.9341533595       41.6132577139      -10.6634596465  W2        14306           0.0000000000
     42918     14306  TIP3      H2             26.0326133595       42.5174677139      -11.1808396465  W2        14306           0.0000000000
     42919     14307  TIP3      OH2            28.8758233595       44.7677277139       -4.6324396465  W2        14307           0.0000000000
     42920     14307  TIP3      H1             28.0403533595       45.2216777139       -4.5221996465  W2        14307           0.0000000000
     42921     14307  TIP3      H2             29.3998833595       45.0435777139       -3.8804496465  W2        14307           0.0000000000
     42922     14308  TIP3      OH2            29.4200833595       50.9804977139      -12.9477996465  W2        14308           0.0000000000
     42923     14308  TIP3      H1             28.6751833595       50.4730277139      -13.2700096465  W2        14308           0.0000000000
     42924     14308  TIP3      H2             29.2858033595       51.0292977139      -12.0013196465  W2        14308           0.0000000000
     42925     14309  TIP3      OH2            36.5699733595       50.1133177139       -4.1610396465  W2        14309           0.0000000000
     42926     14309  TIP3      H1             37.2118533595       50.5699477139       -4.7048196465  W2        14309           0.0000000000
     42927     14309  TIP3      H2             35.7396633595       50.2265577139       -4.6236296465  W2        14309           0.0000000000
     42928     14310  TIP3      OH2            33.3177633595       43.7944877139      -14.7485396465  W2        14310           0.0000000000
     42929     14310  TIP3      H1             32.3791833595       43.9060477139      -14.8996596465  W2        14310           0.0000000000
     42930     14310  TIP3      H2             33.6149733595       44.6511777139      -14.4419696465  W2        14310           0.0000000000
     42931     14311  TIP3      OH2            30.9392933595       51.1648277139       -1.7108896465  W2        14311           0.0000000000
     42932     14311  TIP3      H1             30.5939033595       50.7830677139       -0.9039296465  W2        14311           0.0000000000
     42933     14311  TIP3      H2             30.7393033595       52.0981877139       -1.6395996465  W2        14311           0.0000000000
     42934     14312  TIP3      OH2            34.0361133595       45.6617577139      -13.0877996465  W2        14312           0.0000000000
     42935     14312  TIP3      H1             34.9280133595       45.5242577139      -12.7686796465  W2        14312           0.0000000000
     42936     14312  TIP3      H2             34.0924733595       46.4523677139      -13.6244496465  W2        14312           0.0000000000
     42937     14313  TIP3      OH2            24.5449133595       50.2754977139       -7.1780096465  W2        14313           0.0000000000
     42938     14313  TIP3      H1             25.2896333595       50.2730677139       -7.7793596465  W2        14313           0.0000000000
     42939     14313  TIP3      H2             24.6225733595       49.4518777139       -6.6964996465  W2        14313           0.0000000000
     42940     14314  TIP3      OH2            31.5454933595       52.4389277139      -13.9223396465  W2        14314           0.0000000000
     42941     14314  TIP3      H1             31.2503333595       53.2657177139      -13.5408596465  W2        14314           0.0000000000
     42942     14314  TIP3      H2             30.8424933595       51.8196177139      -13.7261996465  W2        14314           0.0000000000
     42943     14315  TIP3      OH2            21.5528833595       48.7361877139       -1.8631596465  W2        14315           0.0000000000
     42944     14315  TIP3      H1             21.7757433595       48.3181477139       -1.0314096465  W2        14315           0.0000000000
     42945     14315  TIP3      H2             20.9508933595       48.1236877139       -2.2858796465  W2        14315           0.0000000000
     42946     14316  TIP3      OH2            28.5693733595       48.2531777139        0.3498103535  W2        14316           0.0000000000
     42947     14316  TIP3      H1             28.2734533595       48.0874777139       -0.5452796465  W2        14316           0.0000000000
     42948     14316  TIP3      H2             29.5008933595       48.0332077139        0.3392003535  W2        14316           0.0000000000
     42949     14317  TIP3      OH2            33.1896533595       53.6263777139       -1.7603896465  W2        14317           0.0000000000
     42950     14317  TIP3      H1             32.2890833595       53.8096377139       -2.0279996465  W2        14317           0.0000000000
     42951     14317  TIP3      H2             33.2237633595       53.8853077139       -0.8395096465  W2        14317           0.0000000000
     42952     14318  TIP3      OH2            38.9209833595       45.8711677139      -13.3931296465  W2        14318           0.0000000000
     42953     14318  TIP3      H1             38.3666133595       45.4749677139      -14.0653796465  W2        14318           0.0000000000
     42954     14318  TIP3      H2             39.0213433595       46.7816877139      -13.6707996465  W2        14318           0.0000000000
     42955     14319  TIP3      OH2            38.8841833595       51.6713377139       -0.5559796465  W2        14319           0.0000000000
     42956     14319  TIP3      H1             38.0330333595       51.9097177139       -0.9233396465  W2        14319           0.0000000000
     42957     14319  TIP3      H2             39.4745233595       51.6546577139       -1.3092696465  W2        14319           0.0000000000
     42958     14320  TIP3      OH2            37.2161533595       54.6572077139      -12.9279196465  W2        14320           0.0000000000
     42959     14320  TIP3      H1             36.8432633595       53.8315877139      -12.6188596465  W2        14320           0.0000000000
     42960     14320  TIP3      H2             37.4935033595       54.4741477139      -13.8255796465  W2        14320           0.0000000000
     42961     14321  TIP3      OH2            34.3765433595       49.4651577139       -5.9067296465  W2        14321           0.0000000000
     42962     14321  TIP3      H1             33.4482333595       49.2333477139       -5.9337996465  W2        14321           0.0000000000
     42963     14321  TIP3      H2             34.8276533595       48.6881377139       -6.2368496465  W2        14321           0.0000000000
     42964     14322  TIP3      OH2            26.9198533595       53.7933177139       -9.7738596465  W2        14322           0.0000000000
     42965     14322  TIP3      H1             27.4470733595       54.5667577139       -9.9739796465  W2        14322           0.0000000000
     42966     14322  TIP3      H2             26.0397033595       54.0182377139      -10.0754596465  W2        14322           0.0000000000
     42967     14323  TIP3      OH2            22.6746233595       48.6557277139      -15.1866196465  W2        14323           0.0000000000
     42968     14323  TIP3      H1             23.2906133595       49.2824477139      -14.8071396465  W2        14323           0.0000000000
     42969     14323  TIP3      H2             21.8128833595       48.9717077139      -14.9149696465  W2        14323           0.0000000000
     42970     14324  TIP3      OH2            28.3470833595       51.4563077139      -10.1974296465  W2        14324           0.0000000000
     42971     14324  TIP3      H1             28.1060833595       52.3817477139      -10.1558996465  W2        14324           0.0000000000
     42972     14324  TIP3      H2             27.6064433595       50.9974377139       -9.8010396465  W2        14324           0.0000000000
     42973     14325  TIP3      OH2            32.4058233595       51.7047377139       -4.1817596465  W2        14325           0.0000000000
     42974     14325  TIP3      H1             31.9799533595       51.4769077139       -3.3553596465  W2        14325           0.0000000000
     42975     14325  TIP3      H2             32.9864033595       50.9659177139       -4.3642296465  W2        14325           0.0000000000
     42976     14326  TIP3      OH2            34.6087133595       52.6337877139      -15.1078596465  W2        14326           0.0000000000
     42977     14326  TIP3      H1             34.9620233595       52.2537677139      -14.3035096465  W2        14326           0.0000000000
     42978     14326  TIP3      H2             33.6600633595       52.5402677139      -15.0209296465  W2        14326           0.0000000000
     42979     14327  TIP3      OH2            23.1868333595       43.4894577139       -2.3050196465  W2        14327           0.0000000000
     42980     14327  TIP3      H1             22.2940633595       43.8279977139       -2.3726196465  W2        14327           0.0000000000
     42981     14327  TIP3      H2             23.0881133595       42.6340677139       -1.8869396465  W2        14327           0.0000000000
     42982     14328  TIP3      OH2            35.4746433595       51.3059877139      -12.8810696465  W2        14328           0.0000000000
     42983     14328  TIP3      H1             35.1974033595       50.5779177139      -12.3249596465  W2        14328           0.0000000000
     42984     14328  TIP3      H2             36.4019433595       51.4251877139      -12.6758096465  W2        14328           0.0000000000
     42985     14329  TIP3      OH2            28.6994933595       53.7453977139      -16.6608596465  W2        14329           0.0000000000
     42986     14329  TIP3      H1             28.9384733595       52.9972077139      -17.2079696465  W2        14329           0.0000000000
     42987     14329  TIP3      H2             28.4306233595       53.3575677139      -15.8280796465  W2        14329           0.0000000000
     42988     14330  TIP3      OH2            27.6365533595       53.3157777139      -14.2045996465  W2        14330           0.0000000000
     42989     14330  TIP3      H1             27.7833533595       52.7957577139      -13.4145096465  W2        14330           0.0000000000
     42990     14330  TIP3      H2             27.6337233595       54.2225377139      -13.8980096465  W2        14330           0.0000000000
     42991     14331  TIP3      OH2            24.0896633595       50.5681077139      -13.6940596465  W2        14331           0.0000000000
     42992     14331  TIP3      H1             23.4035933595       50.9203577139      -13.1270896465  W2        14331           0.0000000000
     42993     14331  TIP3      H2             24.6124533595       51.3310677139      -13.9406296465  W2        14331           0.0000000000
     42994     14332  TIP3      OH2            31.9211733595       43.2304877139       -3.4151596465  W2        14332           0.0000000000
     42995     14332  TIP3      H1             32.6199633595       43.3043577139       -2.7651896465  W2        14332           0.0000000000
     42996     14332  TIP3      H2             31.5403133595       42.3659877139       -3.2608696465  W2        14332           0.0000000000
     42997     14333  TIP3      OH2            32.7056633595       42.8826577139      -12.3179296465  W2        14333           0.0000000000
     42998     14333  TIP3      H1             32.9254933595       43.3541977139      -13.1213896465  W2        14333           0.0000000000
     42999     14333  TIP3      H2             33.2640633595       43.2769177139      -11.6478696465  W2        14333           0.0000000000
     43000     14334  TIP3      OH2            29.9056533595       44.6105377139      -11.4830896465  W2        14334           0.0000000000
     43001     14334  TIP3      H1             30.7179133595       45.1148577139      -11.4369196465  W2        14334           0.0000000000
     43002     14334  TIP3      H2             29.6609533595       44.4655077139      -10.5691296465  W2        14334           0.0000000000
     43003     14335  TIP3      OH2            30.4412933595       45.5968077139       -2.2984296465  W2        14335           0.0000000000
     43004     14335  TIP3      H1             30.5603233595       46.1703477139       -1.5413896465  W2        14335           0.0000000000
     43005     14335  TIP3      H2             31.0967533595       44.9087477139       -2.1836496465  W2        14335           0.0000000000
     43006     14336  TIP3      OH2            30.7893233595       41.6918377139      -10.5449796465  W2        14336           0.0000000000
     43007     14336  TIP3      H1             30.4426733595       42.3088977139       -9.9005496465  W2        14336           0.0000000000
     43008     14336  TIP3      H2             31.4480133595       42.1924077139      -11.0264296465  W2        14336           0.0000000000
     43009     14337  TIP3      OH2            26.4470233595       42.7547777139      -13.8577296465  W2        14337           0.0000000000
     43010     14337  TIP3      H1             26.3635033595       43.6430877139      -13.5110896465  W2        14337           0.0000000000
     43011     14337  TIP3      H2             27.3370533595       42.4894477139      -13.6260496465  W2        14337           0.0000000000
     43012     14338  TIP3      OH2            36.6458733595       43.5038377139       -1.4634596465  W2        14338           0.0000000000
     43013     14338  TIP3      H1             35.7294533595       43.7660077139       -1.5510896465  W2        14338           0.0000000000
     43014     14338  TIP3      H2             36.9813733595       43.5007377139       -2.3599296465  W2        14338           0.0000000000
     43015     14339  TIP3      OH2            35.2479733595       47.2539377139       -7.3677296465  W2        14339           0.0000000000
     43016     14339  TIP3      H1             34.4504133595       46.8389577139       -7.6962296465  W2        14339           0.0000000000
     43017     14339  TIP3      H2             35.6930833595       46.5633077139       -6.8766796465  W2        14339           0.0000000000
     43018     14340  TIP3      OH2            24.7055533595       53.1819977139      -14.7972796465  W2        14340           0.0000000000
     43019     14340  TIP3      H1             25.2977033595       53.8814777139      -14.5210396465  W2        14340           0.0000000000
     43020     14340  TIP3      H2             25.1648533595       52.7489477139      -15.5168196465  W2        14340           0.0000000000
     43021     14341  TIP3      OH2            23.0214733595       45.8462977139      -15.6813396465  W2        14341           0.0000000000
     43022     14341  TIP3      H1             22.9767333595       46.7856077139      -15.5026396465  W2        14341           0.0000000000
     43023     14341  TIP3      H2             22.1337933595       45.6107877139      -15.9511296465  W2        14341           0.0000000000
     43024     14342  TIP3      OH2            23.8296733595       40.6279577139       -7.0082396465  W2        14342           0.0000000000
     43025     14342  TIP3      H1             23.6006533595       40.6872077139       -7.9357396465  W2        14342           0.0000000000
     43026     14342  TIP3      H2             23.3870133595       39.8365077139       -6.7018296465  W2        14342           0.0000000000
     43027     14343  TIP3      OH2            22.7600033595       54.5686677139      -10.8476596465  W2        14343           0.0000000000
     43028     14343  TIP3      H1             21.9278633595       55.0409377139      -10.8205196465  W2        14343           0.0000000000
     43029     14343  TIP3      H2             23.3058333595       55.0784277139      -11.4463496465  W2        14343           0.0000000000
     43030     14344  TIP3      OH2            33.2225833595       54.4805877139        0.8317103535  W2        14344           0.0000000000
     43031     14344  TIP3      H1             32.8715333595       53.6238877139        1.0747503535  W2        14344           0.0000000000
     43032     14344  TIP3      H2             33.9489033595       54.6232577139        1.4386103535  W2        14344           0.0000000000
     43033     14345  TIP3      OH2            21.9553233595       50.9914477139        1.4365703535  W2        14345           0.0000000000
     43034     14345  TIP3      H1             22.0993733595       50.0895177139        1.1502403535  W2        14345           0.0000000000
     43035     14345  TIP3      H2             21.1830633595       51.2776577139        0.9488003535  W2        14345           0.0000000000
     43036     14346  TIP3      OH2            26.2966933595       51.3350177139      -16.4309696465  W2        14346           0.0000000000
     43037     14346  TIP3      H1             26.3611033595       50.5409777139      -15.9003296465  W2        14346           0.0000000000
     43038     14346  TIP3      H2             26.9496133595       51.2162977139      -17.1207696465  W2        14346           0.0000000000
     43039     14347  TIP3      OH2            28.6109333595       50.9612577139        0.8692103535  W2        14347           0.0000000000
     43040     14347  TIP3      H1             28.2823133595       51.2320677139        0.0119503535  W2        14347           0.0000000000
     43041     14347  TIP3      H2             28.7627533595       50.0202377139        0.7817103535  W2        14347           0.0000000000
     43042     14348  TIP3      OH2            31.6490333595       52.3821877139      -16.6951696465  W2        14348           0.0000000000
     43043     14348  TIP3      H1             31.3804433595       52.5623977139      -15.7942796465  W2        14348           0.0000000000
     43044     14348  TIP3      H2             31.4425933595       51.4568077139      -16.8265896465  W2        14348           0.0000000000
     43045     14349  TIP3      OH2            34.3454533595       50.8769877139       -1.7475596465  W2        14349           0.0000000000
     43046     14349  TIP3      H1             35.0909333595       51.4653577139       -1.8671596465  W2        14349           0.0000000000
     43047     14349  TIP3      H2             33.5881333595       51.4589577139       -1.6842496465  W2        14349           0.0000000000
     43048     14350  TIP3      OH2            22.7879733595       48.1917777139        0.8565003535  W2        14350           0.0000000000
     43049     14350  TIP3      H1             23.1960933595       47.3344377139        0.7355603535  W2        14350           0.0000000000
     43050     14350  TIP3      H2             22.5277333595       48.2059077139        1.7775303535  W2        14350           0.0000000000
     43051     14351  TIP3      OH2            27.4460733595       49.3076377139      -14.1251696465  W2        14351           0.0000000000
     43052     14351  TIP3      H1             26.9862733595       48.8234677139      -13.4393196465  W2        14351           0.0000000000
     43053     14351  TIP3      H2             27.7009433595       48.6391777139      -14.7611196465  W2        14351           0.0000000000
     43054     14352  TIP3      OH2            26.7350033595       47.2003477139       -1.7692096465  W2        14352           0.0000000000
     43055     14352  TIP3      H1             26.1166133595       47.8750077139       -1.4887396465  W2        14352           0.0000000000
     43056     14352  TIP3      H2             27.0791233595       47.5217377139       -2.6025896465  W2        14352           0.0000000000
     43057     14353  TIP3      OH2            28.5171133595       47.5508177139      -15.8628496465  W2        14353           0.0000000000
     43058     14353  TIP3      H1             28.3366133595       47.3959377139      -16.7900196465  W2        14353           0.0000000000
     43059     14353  TIP3      H2             29.4671633595       47.6586877139      -15.8180596465  W2        14353           0.0000000000
     43060     14354  TIP3      OH2            31.7548233595       49.6718777139        1.5082703535  W2        14354           0.0000000000
     43061     14354  TIP3      H1             32.7079433595       49.7557877139        1.4808703535  W2        14354           0.0000000000
     43062     14354  TIP3      H2             31.5942833595       48.9600577139        2.1277603535  W2        14354           0.0000000000
     43063     14355  TIP3      OH2            37.9069433595       49.9052377139      -16.4170396465  W2        14355           0.0000000000
     43064     14355  TIP3      H1             37.6334233595       49.4807877139      -17.2302096465  W2        14355           0.0000000000
     43065     14355  TIP3      H2             37.9463533595       50.8366877139      -16.6339996465  W2        14355           0.0000000000
     43066     14356  TIP3      OH2            27.0743733595       44.5554277139       -0.6868996465  W2        14356           0.0000000000
     43067     14356  TIP3      H1             27.2244633595       43.8265577139       -1.2889296465  W2        14356           0.0000000000
     43068     14356  TIP3      H2             27.0766133595       45.3325977139       -1.2456796465  W2        14356           0.0000000000
     43069     14357  TIP3      OH2            27.4869433595       42.9250077139       -3.1941596465  W2        14357           0.0000000000
     43070     14357  TIP3      H1             28.0226933595       43.3766777139       -3.8462296465  W2        14357           0.0000000000
     43071     14357  TIP3      H2             26.6349033595       42.8169877139       -3.6167496465  W2        14357           0.0000000000
     43072     14358  TIP3      OH2            29.0687833595       48.3646277139       -2.9546396465  W2        14358           0.0000000000
     43073     14358  TIP3      H1             29.8192633595       48.2083777139       -3.5278596465  W2        14358           0.0000000000
     43074     14358  TIP3      H2             28.7296133595       49.2162877139       -3.2300896465  W2        14358           0.0000000000
     43075     14359  TIP3      OH2            33.4844033595       46.1798077139        2.0738903535  W2        14359           0.0000000000
     43076     14359  TIP3      H1             33.6765333595       45.2487477139        1.9623403535  W2        14359           0.0000000000
     43077     14359  TIP3      H2             34.3420333595       46.6047577139        2.0634303535  W2        14359           0.0000000000
     43078     14360  TIP3      OH2            34.8011233595       48.9683277139        0.1511603535  W2        14360           0.0000000000
     43079     14360  TIP3      H1             34.5196233595       49.6777877139       -0.4264596465  W2        14360           0.0000000000
     43080     14360  TIP3      H2             35.7435533595       48.8956277139        0.0002803535  W2        14360           0.0000000000
     43081     14361  TIP3      OH2            25.5530033595       45.7537777139        1.2246603535  W2        14361           0.0000000000
     43082     14361  TIP3      H1             24.7859033595       45.2212577139        1.0144203535  W2        14361           0.0000000000
     43083     14361  TIP3      H2             26.2319033595       45.4438177139        0.6252903535  W2        14361           0.0000000000
     43084     14362  TIP3      OH2            28.2924933595       40.3815777139       -2.7627996465  W2        14362           0.0000000000
     43085     14362  TIP3      H1             28.1944533595       41.3278977139       -2.8681796465  W2        14362           0.0000000000
     43086     14362  TIP3      H2             27.5501133595       40.0089577139       -3.2384496465  W2        14362           0.0000000000
     43087     14363  TIP3      OH2            29.5565433595       44.7031177139        0.8010403535  W2        14363           0.0000000000
     43088     14363  TIP3      H1             29.3210833595       44.4837877139        1.7025303535  W2        14363           0.0000000000
     43089     14363  TIP3      H2             28.7732333595       44.4962377139        0.2912903535  W2        14363           0.0000000000
     43090     14364  TIP3      OH2            32.2722033595       43.8304677139       -0.1236096465  W2        14364           0.0000000000
     43091     14364  TIP3      H1             31.3247433595       43.8624377139        0.0087203535  W2        14364           0.0000000000
     43092     14364  TIP3      H2             32.5848733595       43.2051777139        0.5302103535  W2        14364           0.0000000000
     43093     14365  TIP3      OH2            33.9063533595       42.4645777139        1.8815803535  W2        14365           0.0000000000
     43094     14365  TIP3      H1             33.8095333595       41.5123077139        1.8757703535  W2        14365           0.0000000000
     43095     14365  TIP3      H2             33.5846633595       42.7332577139        2.7421303535  W2        14365           0.0000000000
     43096     14366  TIP3      OH2            23.7332833595       43.6741577139        0.9291303535  W2        14366           0.0000000000
     43097     14366  TIP3      H1             23.9450233595       42.9677677139        0.3188803535  W2        14366           0.0000000000
     43098     14366  TIP3      H2             23.6220333595       43.2367577139        1.7732503535  W2        14366           0.0000000000
     43099     14367  TIP3      OH2            28.5143033595       39.6753177139       -0.0915196465  W2        14367           0.0000000000
     43100     14367  TIP3      H1             29.2261433595       39.0355377139       -0.1056096465  W2        14367           0.0000000000
     43101     14367  TIP3      H2             28.4133433595       39.9421477139       -1.0052096465  W2        14367           0.0000000000
     43102     14368  TIP3      OH2            28.8680533595       41.3581577139        1.9621103535  W2        14368           0.0000000000
     43103     14368  TIP3      H1             28.7362733595       40.8825377139        1.1419603535  W2        14368           0.0000000000
     43104     14368  TIP3      H2             28.2687933595       42.1025177139        1.9068203535  W2        14368           0.0000000000
     43105     14369  TIP3      OH2            21.9827733595       52.8775677139      -15.3786796465  W2        14369           0.0000000000
     43106     14369  TIP3      H1             22.8966933595       52.9564577139      -15.1052896465  W2        14369           0.0000000000
     43107     14369  TIP3      H2             21.9900833595       52.1905277139      -16.0451196465  W2        14369           0.0000000000
     43108     14370  TIP3      OH2            37.0642533595       52.5176777139        2.0437503535  W2        14370           0.0000000000
     43109     14370  TIP3      H1             36.1983633595       52.4126477139        2.4379803535  W2        14370           0.0000000000
     43110     14370  TIP3      H2             37.4408433595       53.2760077139        2.4902203535  W2        14370           0.0000000000
     43111     14371  TIP3      OH2            38.3652233595       50.7740477139      -12.4419996465  W2        14371           0.0000000000
     43112     14371  TIP3      H1             39.2153633595       51.1951377139      -12.3148396465  W2        14371           0.0000000000
     43113     14371  TIP3      H2             38.3707333595       50.0340577139      -11.8348596465  W2        14371           0.0000000000
     43114     14372  TIP3      OH2            38.7597833595       48.8277877139      -10.6184296465  W2        14372           0.0000000000
     43115     14372  TIP3      H1             38.0332433595       48.3480477139      -10.2206696465  W2        14372           0.0000000000
     43116     14372  TIP3      H2             39.3411133595       49.0332577139       -9.8862696465  W2        14372           0.0000000000
     43117     14373  TIP3      OH2            38.5189033595       51.6125377139       -5.6706696465  W2        14373           0.0000000000
     43118     14373  TIP3      H1             39.3523233595       51.2345377139       -5.9513096465  W2        14373           0.0000000000
     43119     14373  TIP3      H2             38.6309333595       52.5556577139       -5.7897596465  W2        14373           0.0000000000
     43120     14374  TIP3      OH2            37.0051333595       54.4902877139       -3.3638296465  W2        14374           0.0000000000
     43121     14374  TIP3      H1             36.3576633595       54.8154377139       -2.7383096465  W2        14374           0.0000000000
     43122     14374  TIP3      H2             36.4875333595       54.0500577139       -4.0379996465  W2        14374           0.0000000000
     43123     14375  TIP3      OH2            39.0280933595       48.7286377139      -14.2272996465  W2        14375           0.0000000000
     43124     14375  TIP3      H1             38.5062033595       49.0850477139      -14.9462096465  W2        14375           0.0000000000
     43125     14375  TIP3      H2             38.9950133595       49.4034177139      -13.5492096465  W2        14375           0.0000000000
     43126     14376  TIP3      OH2            37.3769933595       45.9681977139      -15.6765896465  W2        14376           0.0000000000
     43127     14376  TIP3      H1             37.4734333595       46.6348977139      -16.3566196465  W2        14376           0.0000000000
     43128     14376  TIP3      H2             37.2369533595       45.1528277139      -16.1580396465  W2        14376           0.0000000000
     43129     14377  TIP3      OH2            36.5464633595       47.3484377139      -10.0555596465  W2        14377           0.0000000000
     43130     14377  TIP3      H1             36.3963433595       46.4032977139      -10.0757796465  W2        14377           0.0000000000
     43131     14377  TIP3      H2             36.1929133595       47.6295777139       -9.2116496465  W2        14377           0.0000000000
     43132     14378  TIP3      OH2            21.5817033595       49.4266577139       -6.0451796465  W2        14378           0.0000000000
     43133     14378  TIP3      H1             21.7659933595       49.3448277139       -6.9808896465  W2        14378           0.0000000000
     43134     14378  TIP3      H2             22.4309933595       49.3023577139       -5.6215396465  W2        14378           0.0000000000
     43135     14379  TIP3      OH2            37.4027533595       49.3187677139       -0.4167296465  W2        14379           0.0000000000
     43136     14379  TIP3      H1             37.9854833595       48.5839977139       -0.2250096465  W2        14379           0.0000000000
     43137     14379  TIP3      H2             37.9666833595       50.0907977139       -0.3701496465  W2        14379           0.0000000000
     43138     14380  TIP3      OH2            38.8994633595       47.2213477139        0.2678103535  W2        14380           0.0000000000
     43139     14380  TIP3      H1             38.0361333595       46.8425577139        0.1022803535  W2        14380           0.0000000000
     43140     14380  TIP3      H2             39.5038333595       46.4828277139        0.1933903535  W2        14380           0.0000000000
     43141     14381  TIP3      OH2            36.6243733595       43.3761777139      -16.5590396465  W2        14381           0.0000000000
     43142     14381  TIP3      H1             37.2349533595       43.0048577139      -15.9222196465  W2        14381           0.0000000000
     43143     14381  TIP3      H2             35.7875233595       42.9548677139      -16.3630396465  W2        14381           0.0000000000
     43144     14382  TIP3      OH2            36.2569433595       44.9310177139      -11.5930496465  W2        14382           0.0000000000
     43145     14382  TIP3      H1             36.5366533595       44.0240577139      -11.4688796465  W2        14382           0.0000000000
     43146     14382  TIP3      H2             37.0161133595       45.3651677139      -11.9821296465  W2        14382           0.0000000000
     43147     14383  TIP3      OH2            36.8687733595       45.5127577139       -6.1571596465  W2        14383           0.0000000000
     43148     14383  TIP3      H1             37.8015733595       45.7247477139       -6.1915596465  W2        14383           0.0000000000
     43149     14383  TIP3      H2             36.6335233595       45.6139677139       -5.2348596465  W2        14383           0.0000000000
     43150     14384  TIP3      OH2            36.8979633595       46.2492877139       -3.3812196465  W2        14384           0.0000000000
     43151     14384  TIP3      H1             36.0550933595       46.5173277139       -3.0152396465  W2        14384           0.0000000000
     43152     14384  TIP3      H2             37.3403933595       47.0714777139       -3.5921096465  W2        14384           0.0000000000
     43153     14385  TIP3      OH2            21.1791833595       44.6971577139        0.0957003535  W2        14385           0.0000000000
     43154     14385  TIP3      H1             22.0986733595       44.5749877139        0.3320103535  W2        14385           0.0000000000
     43155     14385  TIP3      H2             20.7296333595       43.9471277139        0.4850503535  W2        14385           0.0000000000
     43156     14386  TIP3      OH2            39.1811233595       40.2293077139        1.9722803535  W2        14386           0.0000000000
     43157     14386  TIP3      H1             39.5308233595       39.5756577139        1.3667503535  W2        14386           0.0000000000
     43158     14386  TIP3      H2             39.3280733595       41.0667177139        1.5325403535  W2        14386           0.0000000000
     43159     14387  TIP3      OH2            36.8704233595       42.1939477139      -11.5448496465  W2        14387           0.0000000000
     43160     14387  TIP3      H1             37.0529233595       41.7450977139      -10.7193496465  W2        14387           0.0000000000
     43161     14387  TIP3      H2             36.2707133595       41.6093877139      -12.0083896465  W2        14387           0.0000000000
     43162     14388  TIP3      OH2            22.4004333595       43.0093177139       -7.0130096465  W2        14388           0.0000000000
     43163     14388  TIP3      H1             22.8455933595       42.2175677139       -6.7110396465  W2        14388           0.0000000000
     43164     14388  TIP3      H2             22.8667333595       43.7258377139       -6.5824496465  W2        14388           0.0000000000
     43165     14389  TIP3      OH2            20.7044633595       46.0086177139       -5.9439896465  W2        14389           0.0000000000
     43166     14389  TIP3      H1             21.1964433595       45.7876677139       -6.7347896465  W2        14389           0.0000000000
     43167     14389  TIP3      H2             21.0665533595       46.8489577139       -5.6630396465  W2        14389           0.0000000000
     43168     14390  TIP3      OH2            38.7008433595       42.3387677139        0.3214103535  W2        14390           0.0000000000
     43169     14390  TIP3      H1             37.7834133595       42.6094777139        0.2857603535  W2        14390           0.0000000000
     43170     14390  TIP3      H2             38.8237833595       41.8036077139       -0.4626196465  W2        14390           0.0000000000
     43171     14391  TIP3      OH2            38.7370433595       42.2617577139      -15.0168196465  W2        14391           0.0000000000
     43172     14391  TIP3      H1             39.1493033595       41.5403277139      -15.4920196465  W2        14391           0.0000000000
     43173     14391  TIP3      H2             39.4186933595       42.9312177139      -14.9583896465  W2        14391           0.0000000000
     43174     14392  TIP3      OH2            21.0181133595       42.2665277139      -11.8897496465  W2        14392           0.0000000000
     43175     14392  TIP3      H1             20.0929533595       42.4751877139      -12.0191996465  W2        14392           0.0000000000
     43176     14392  TIP3      H2             21.4721033595       42.7506077139      -12.5795196465  W2        14392           0.0000000000
     43177     14393  TIP3      OH2            20.9816533595       41.0044277139       -3.5454996465  W2        14393           0.0000000000
     43178     14393  TIP3      H1             20.3167033595       40.7584577139       -2.9024096465  W2        14393           0.0000000000
     43179     14393  TIP3      H2             20.5387833595       41.6264677139       -4.1226996465  W2        14393           0.0000000000
     43180     14394  TIP3      OH2            23.1735833595       54.1798377139        0.5990803535  W2        14394           0.0000000000
     43181     14394  TIP3      H1             22.3528333595       54.3544877139        0.1385503535  W2        14394           0.0000000000
     43182     14394  TIP3      H2             22.9213633595       54.1063077139        1.5195203535  W2        14394           0.0000000000
     43183     14395  TIP3      OH2            37.7014333595       40.4283977139       -1.8595096465  W2        14395           0.0000000000
     43184     14395  TIP3      H1             36.8887833595       40.7534277139       -2.2470396465  W2        14395           0.0000000000
     43185     14395  TIP3      H2             37.9342833595       39.6682477139       -2.3925996465  W2        14395           0.0000000000
     43186     14396  TIP3      OH2            31.1312833595       41.8774577139       -7.5366896465  W2        14396           0.0000000000
     43187     14396  TIP3      H1             30.4569633595       41.2480177139       -7.2811096465  W2        14396           0.0000000000
     43188     14396  TIP3      H2             31.6952033595       41.3933477139       -8.1398996465  W2        14396           0.0000000000
     43189     14397  TIP3      OH2            36.2740033595       39.9848577139       -7.4239796465  W2        14397           0.0000000000
     43190     14397  TIP3      H1             36.8777633595       40.5323977139       -7.9258796465  W2        14397           0.0000000000
     43191     14397  TIP3      H2             35.4042033595       40.3038977139       -7.6645696465  W2        14397           0.0000000000
     43192     14398  TIP3      OH2            38.0010433595       41.1237277139       -9.0908896465  W2        14398           0.0000000000
     43193     14398  TIP3      H1             38.6127933595       40.6092977139       -9.6175296465  W2        14398           0.0000000000
     43194     14398  TIP3      H2             38.3833833595       42.0009377139       -9.0674496465  W2        14398           0.0000000000
     43195     14399  TIP3      OH2            23.4580333595       40.5114877139       -9.7146996465  W2        14399           0.0000000000
     43196     14399  TIP3      H1             22.6810133595       40.2769777139      -10.2221096465  W2        14399           0.0000000000
     43197     14399  TIP3      H2             23.9883933595       39.7146977139       -9.7058996465  W2        14399           0.0000000000
     43198     14400  TIP3      OH2            22.2943733595       40.3092977139      -13.9110896465  W2        14400           0.0000000000
     43199     14400  TIP3      H1             22.7334433595       40.9203477139      -14.5027396465  W2        14400           0.0000000000
     43200     14400  TIP3      H2             21.6606133595       40.8477077139      -13.4370896465  W2        14400           0.0000000000
     43201     14401  TIP3      OH2            28.0372933595       40.4381977139       -9.9013896465  W2        14401           0.0000000000
     43202     14401  TIP3      H1             28.9116333595       40.8266277139       -9.9309596465  W2        14401           0.0000000000
     43203     14401  TIP3      H2             27.9013733595       40.2229777139       -8.9786696465  W2        14401           0.0000000000
     43204     14402  TIP3      OH2            33.5941333595       40.4681777139       -8.2522196465  W2        14402           0.0000000000
     43205     14402  TIP3      H1             33.6702933595       40.5633377139       -9.2016196465  W2        14402           0.0000000000
     43206     14402  TIP3      H2             33.3190533595       39.5604677139       -8.1233096465  W2        14402           0.0000000000
     43207     14403  TIP3      OH2            34.9473933595       40.4939577139      -12.5597196465  W2        14403           0.0000000000
     43208     14403  TIP3      H1             34.2445033595       41.1088777139      -12.7695796465  W2        14403           0.0000000000
     43209     14403  TIP3      H2             34.5025333595       39.6566277139      -12.4286296465  W2        14403           0.0000000000
     43210     14404  TIP3      OH2            24.1552833595       42.2254477139      -15.4686796465  W2        14404           0.0000000000
     43211     14404  TIP3      H1             24.6466233595       41.5956877139      -15.9961296465  W2        14404           0.0000000000
     43212     14404  TIP3      H2             24.7789133595       42.5213877139      -14.8055596465  W2        14404           0.0000000000
     43213     14405  TIP3      OH2            29.1812933595       42.5185977139      -13.0116296465  W2        14405           0.0000000000
     43214     14405  TIP3      H1             29.3594233595       41.8719177139      -12.3287696465  W2        14405           0.0000000000
     43215     14405  TIP3      H2             29.1279133595       43.3523677139      -12.5445196465  W2        14405           0.0000000000
     43216     14406  TIP3      OH2            23.4158333595       41.0256777139       -0.1970796465  W2        14406           0.0000000000
     43217     14406  TIP3      H1             23.0496533595       40.2599377139        0.2453903535  W2        14406           0.0000000000
     43218     14406  TIP3      H2             24.3286833595       41.0546977139        0.0894303535  W2        14406           0.0000000000
     43219     14407  TIP3      OH2            25.3889133595       40.3761177139        1.3386303535  W2        14407           0.0000000000
     43220     14407  TIP3      H1             26.2872733595       40.1021377139        1.1539703535  W2        14407           0.0000000000
     43221     14407  TIP3      H2             25.0022233595       39.6337177139        1.8028903535  W2        14407           0.0000000000
     43222     14408  TIP3      OH2            33.8101433595       39.7086477139        1.5209103535  W2        14408           0.0000000000
     43223     14408  TIP3      H1             33.8868633595       39.2827177139        2.3746803535  W2        14408           0.0000000000
     43224     14408  TIP3      H2             34.7038033595       39.7221177139        1.1782603535  W2        14408           0.0000000000
     43225     14409  TIP3      OH2            51.3922933595       49.6677177139       -9.7559496465  W2        14409           0.0000000000
     43226     14409  TIP3      H1             51.4814033595       50.6115377139       -9.8882396465  W2        14409           0.0000000000
     43227     14409  TIP3      H2             50.7540533595       49.3923577139      -10.4140096465  W2        14409           0.0000000000
     43228     14410  TIP3      OH2            50.3254233595       48.9227877139       -6.3371296465  W2        14410           0.0000000000
     43229     14410  TIP3      H1             50.2871733595       48.2764177139       -5.6321696465  W2        14410           0.0000000000
     43230     14410  TIP3      H2             50.0030733595       48.4562277139       -7.1082596465  W2        14410           0.0000000000
     43231     14411  TIP3      OH2            42.6939233595       48.5369977139       -4.7441396465  W2        14411           0.0000000000
     43232     14411  TIP3      H1             42.7351333595       47.9113277139       -4.0208996465  W2        14411           0.0000000000
     43233     14411  TIP3      H2             43.3966933595       49.1608577139       -4.5620996465  W2        14411           0.0000000000
     43234     14412  TIP3      OH2            54.0314433595       51.8618277139       -8.0356196465  W2        14412           0.0000000000
     43235     14412  TIP3      H1             53.5907133595       51.1414277139       -7.5850596465  W2        14412           0.0000000000
     43236     14412  TIP3      H2             54.0184133595       52.5825477139       -7.4058496465  W2        14412           0.0000000000
     43237     14413  TIP3      OH2            43.6172333595       52.9868877139       -6.2092296465  W2        14413           0.0000000000
     43238     14413  TIP3      H1             43.2477533595       52.1849377139       -6.5787996465  W2        14413           0.0000000000
     43239     14413  TIP3      H2             44.5583433595       52.8183777139       -6.1628896465  W2        14413           0.0000000000
     43240     14414  TIP3      OH2            40.2272833595       46.6471477139      -10.8163496465  W2        14414           0.0000000000
     43241     14414  TIP3      H1             39.7796233595       47.4930177139      -10.8346996465  W2        14414           0.0000000000
     43242     14414  TIP3      H2             39.6664033595       46.0675677139      -11.3318396465  W2        14414           0.0000000000
     43243     14415  TIP3      OH2            40.9378933595       48.8091077139       -8.6905496465  W2        14415           0.0000000000
     43244     14415  TIP3      H1             41.1512433595       48.0392677139       -8.1632496465  W2        14415           0.0000000000
     43245     14415  TIP3      H2             41.6756533595       48.8987777139       -9.2937896465  W2        14415           0.0000000000
     43246     14416  TIP3      OH2            48.7148633595       51.3549277139       -5.9310296465  W2        14416           0.0000000000
     43247     14416  TIP3      H1             49.0186533595       50.6690677139       -6.5256196465  W2        14416           0.0000000000
     43248     14416  TIP3      H2             49.4362633595       51.4737977139       -5.3132296465  W2        14416           0.0000000000
     43249     14417  TIP3      OH2            51.8555633595       45.7491677139       -5.6035496465  W2        14417           0.0000000000
     43250     14417  TIP3      H1             51.9981533595       44.8028677139       -5.5833896465  W2        14417           0.0000000000
     43251     14417  TIP3      H2             51.7494633595       45.9561477139       -6.5320596465  W2        14417           0.0000000000
     43252     14418  TIP3      OH2            45.0103933595       43.8508077139       -8.3310696465  W2        14418           0.0000000000
     43253     14418  TIP3      H1             45.0535033595       44.7106577139       -8.7494396465  W2        14418           0.0000000000
     43254     14418  TIP3      H2             44.5528033595       43.2982777139       -8.9647496465  W2        14418           0.0000000000
     43255     14419  TIP3      OH2            52.7326633595       43.9813677139       -9.9302396465  W2        14419           0.0000000000
     43256     14419  TIP3      H1             53.3790933595       43.6526877139       -9.3054796465  W2        14419           0.0000000000
     43257     14419  TIP3      H2             53.2426033595       44.4992677139      -10.5530996465  W2        14419           0.0000000000
     43258     14420  TIP3      OH2            41.6305433595       46.2473877139       -7.5689296465  W2        14420           0.0000000000
     43259     14420  TIP3      H1             42.2842033595       45.6975577139       -7.1369196465  W2        14420           0.0000000000
     43260     14420  TIP3      H2             41.6544733595       45.9732877139       -8.4857296465  W2        14420           0.0000000000
     43261     14421  TIP3      OH2            46.7869933595       47.7975177139       -8.3537796465  W2        14421           0.0000000000
     43262     14421  TIP3      H1             47.4030933595       47.2710577139       -7.8443796465  W2        14421           0.0000000000
     43263     14421  TIP3      H2             46.2008733595       47.1573877139       -8.7574196465  W2        14421           0.0000000000
     43264     14422  TIP3      OH2            43.8205833595       42.7686477139       -4.2569896465  W2        14422           0.0000000000
     43265     14422  TIP3      H1             43.6017533595       43.2987077139       -5.0233896465  W2        14422           0.0000000000
     43266     14422  TIP3      H2             43.1526733595       42.9951977139       -3.6098496465  W2        14422           0.0000000000
     43267     14423  TIP3      OH2            51.1895633595       52.2687577139      -10.7130796465  W2        14423           0.0000000000
     43268     14423  TIP3      H1             50.8940733595       51.9459877139      -11.5643896465  W2        14423           0.0000000000
     43269     14423  TIP3      H2             50.8653433595       53.1684277139      -10.6718196465  W2        14423           0.0000000000
     43270     14424  TIP3      OH2            46.3897233595       50.4442177139       -3.9696196465  W2        14424           0.0000000000
     43271     14424  TIP3      H1             45.6496333595       51.0423677139       -3.8660996465  W2        14424           0.0000000000
     43272     14424  TIP3      H2             47.1036733595       50.9981777139       -4.2852596465  W2        14424           0.0000000000
     43273     14425  TIP3      OH2            54.4965033595       43.2722977139       -7.9496496465  W2        14425           0.0000000000
     43274     14425  TIP3      H1             54.2813033595       42.5066377139       -7.4170496465  W2        14425           0.0000000000
     43275     14425  TIP3      H2             55.1522433595       43.7447577139       -7.4367996465  W2        14425           0.0000000000
     43276     14426  TIP3      OH2            43.4143133595       44.6608277139       -6.3047696465  W2        14426           0.0000000000
     43277     14426  TIP3      H1             44.0279433595       45.2935877139       -5.9315296465  W2        14426           0.0000000000
     43278     14426  TIP3      H2             43.9263833595       44.1883277139       -6.9610796465  W2        14426           0.0000000000
     43279     14427  TIP3      OH2            44.7971533595       52.4085177139       -3.1824696465  W2        14427           0.0000000000
     43280     14427  TIP3      H1             44.7919133595       53.2878677139       -3.5605396465  W2        14427           0.0000000000
     43281     14427  TIP3      H2             43.9435633595       52.3249277139       -2.7574796465  W2        14427           0.0000000000
     43282     14428  TIP3      OH2            40.9182433595       52.0793077139      -12.4005396465  W2        14428           0.0000000000
     43283     14428  TIP3      H1             40.6463333595       52.3084077139      -13.2892496465  W2        14428           0.0000000000
     43284     14428  TIP3      H2             40.9638133595       52.9171877139      -11.9400096465  W2        14428           0.0000000000
     43285     14429  TIP3      OH2            54.5432133595       53.7008977139       -5.6876896465  W2        14429           0.0000000000
     43286     14429  TIP3      H1             53.6015833595       53.7592877139       -5.5259996465  W2        14429           0.0000000000
     43287     14429  TIP3      H2             54.8198233595       54.6069477139       -5.8247196465  W2        14429           0.0000000000
     43288     14430  TIP3      OH2            47.8470533595       40.0741577139       -6.8044996465  W2        14430           0.0000000000
     43289     14430  TIP3      H1             47.7294733595       39.1257577139       -6.8586696465  W2        14430           0.0000000000
     43290     14430  TIP3      H2             46.9920633595       40.4067677139       -6.5313896465  W2        14430           0.0000000000
     43291     14431  TIP3      OH2            53.9549833595       53.3830977139      -10.5538696465  W2        14431           0.0000000000
     43292     14431  TIP3      H1             53.6974633595       52.6931077139      -11.1652796465  W2        14431           0.0000000000
     43293     14431  TIP3      H2             54.0260633595       52.9402177139       -9.7082796465  W2        14431           0.0000000000
     43294     14432  TIP3      OH2            50.1135433595       48.9117177139      -12.3039196465  W2        14432           0.0000000000
     43295     14432  TIP3      H1             49.4020933595       49.4466877139      -12.6558696465  W2        14432           0.0000000000
     43296     14432  TIP3      H2             50.8045033595       48.9669277139      -12.9640296465  W2        14432           0.0000000000
     43297     14433  TIP3      OH2            50.1674633595       47.3691477139      -15.2654196465  W2        14433           0.0000000000
     43298     14433  TIP3      H1             50.8684533595       47.3918377139      -14.6140196465  W2        14433           0.0000000000
     43299     14433  TIP3      H2             50.4697533595       46.7411177139      -15.9214896465  W2        14433           0.0000000000
     43300     14434  TIP3      OH2            53.5193133595       49.1210477139      -11.3523296465  W2        14434           0.0000000000
     43301     14434  TIP3      H1             52.7874133595       49.3494177139      -10.7792696465  W2        14434           0.0000000000
     43302     14434  TIP3      H2             53.9665333595       48.4073177139      -10.8975796465  W2        14434           0.0000000000
     43303     14435  TIP3      OH2            53.4166633595       47.2953077139       -2.2846296465  W2        14435           0.0000000000
     43304     14435  TIP3      H1             53.4965733595       48.0587477139       -1.7127796465  W2        14435           0.0000000000
     43305     14435  TIP3      H2             52.8154333595       47.5745477139       -2.9751196465  W2        14435           0.0000000000
     43306     14436  TIP3      OH2            45.1646833595       49.7516677139       -9.4698296465  W2        14436           0.0000000000
     43307     14436  TIP3      H1             44.8342033595       49.3810077139      -10.2881296465  W2        14436           0.0000000000
     43308     14436  TIP3      H2             45.7530933595       49.0810677139       -9.1229996465  W2        14436           0.0000000000
     43309     14437  TIP3      OH2            46.5314333595       53.1797277139       -6.7886096465  W2        14437           0.0000000000
     43310     14437  TIP3      H1             46.4365633595       52.6010377139       -7.5451496465  W2        14437           0.0000000000
     43311     14437  TIP3      H2             47.2607933595       52.8082977139       -6.2923296465  W2        14437           0.0000000000
     43312     14438  TIP3      OH2            45.5312333595       48.5202277139       -5.8363296465  W2        14438           0.0000000000
     43313     14438  TIP3      H1             46.0964833595       48.6416477139       -6.5992096465  W2        14438           0.0000000000
     43314     14438  TIP3      H2             45.8501233595       49.1577277139       -5.1974796465  W2        14438           0.0000000000
     43315     14439  TIP3      OH2            51.8404533595       54.0234177139       -5.1022796465  W2        14439           0.0000000000
     43316     14439  TIP3      H1             51.6001133595       54.6857277139       -4.4543596465  W2        14439           0.0000000000
     43317     14439  TIP3      H2             51.6422733595       53.1889377139       -4.6773196465  W2        14439           0.0000000000
     43318     14440  TIP3      OH2            46.4113033595       52.9194977139       -1.1191396465  W2        14440           0.0000000000
     43319     14440  TIP3      H1             46.1000533595       53.7018177139       -0.6638196465  W2        14440           0.0000000000
     43320     14440  TIP3      H2             45.7613233595       52.7664077139       -1.8049396465  W2        14440           0.0000000000
     43321     14441  TIP3      OH2            52.3902633595       48.2833377139      -13.6672096465  W2        14441           0.0000000000
     43322     14441  TIP3      H1             52.9698133595       48.4333677139      -12.9203196465  W2        14441           0.0000000000
     43323     14441  TIP3      H2             52.8042633595       48.7540777139      -14.3905696465  W2        14441           0.0000000000
     43324     14442  TIP3      OH2            43.3312933595       49.1176077139       -1.8905696465  W2        14442           0.0000000000
     43325     14442  TIP3      H1             43.4016133595       49.7682877139       -1.1920696465  W2        14442           0.0000000000
     43326     14442  TIP3      H2             42.4405133595       49.2203577139       -2.2254796465  W2        14442           0.0000000000
     43327     14443  TIP3      OH2            44.6508933595       54.9909977139       -0.3557596465  W2        14443           0.0000000000
     43328     14443  TIP3      H1             44.6584233595       54.8549677139       -1.3032096465  W2        14443           0.0000000000
     43329     14443  TIP3      H2             43.7349333595       54.8738077139       -0.1037596465  W2        14443           0.0000000000
     43330     14444  TIP3      OH2            44.1549533595       48.8210977139      -11.8805496465  W2        14444           0.0000000000
     43331     14444  TIP3      H1             43.8630833595       49.5892677139      -12.3714196465  W2        14444           0.0000000000
     43332     14444  TIP3      H2             43.4804733595       48.1617177139      -12.0434096465  W2        14444           0.0000000000
     43333     14445  TIP3      OH2            40.2479633595       51.1840177139       -3.0655696465  W2        14445           0.0000000000
     43334     14445  TIP3      H1             39.7468033595       51.1559577139       -3.8805996465  W2        14445           0.0000000000
     43335     14445  TIP3      H2             40.2533333595       50.2783377139       -2.7558396465  W2        14445           0.0000000000
     43336     14446  TIP3      OH2            39.9982333595       53.9643977139       -6.1815496465  W2        14446           0.0000000000
     43337     14446  TIP3      H1             40.9442933595       53.8200977139       -6.2005996465  W2        14446           0.0000000000
     43338     14446  TIP3      H2             39.8858633595       54.7486777139       -5.6444296465  W2        14446           0.0000000000
     43339     14447  TIP3      OH2            49.1744833595       54.2042877139       -1.6230396465  W2        14447           0.0000000000
     43340     14447  TIP3      H1             49.2619433595       55.0307477139       -1.1481296465  W2        14447           0.0000000000
     43341     14447  TIP3      H2             48.3109933595       53.8746677139       -1.3741096465  W2        14447           0.0000000000
     43342     14448  TIP3      OH2            42.4970133595       52.5075577139       -2.0222896465  W2        14448           0.0000000000
     43343     14448  TIP3      H1             42.7131433595       52.1461177139       -1.1627096465  W2        14448           0.0000000000
     43344     14448  TIP3      H2             41.6414833595       52.1329377139       -2.2319396465  W2        14448           0.0000000000
     43345     14449  TIP3      OH2            45.1158133595       40.9776077139       -6.0268696465  W2        14449           0.0000000000
     43346     14449  TIP3      H1             44.2541833595       40.8904277139       -6.4345796465  W2        14449           0.0000000000
     43347     14449  TIP3      H2             45.0933833595       41.8336177139       -5.5991096465  W2        14449           0.0000000000
     43348     14450  TIP3      OH2            49.7785933595       40.6996477139       -2.6521696465  W2        14450           0.0000000000
     43349     14450  TIP3      H1             50.1989033595       40.2843577139       -1.8991096465  W2        14450           0.0000000000
     43350     14450  TIP3      H2             48.8455533595       40.5209777139       -2.5349696465  W2        14450           0.0000000000
     43351     14451  TIP3      OH2            53.1050833595       44.4551677139       -1.7987196465  W2        14451           0.0000000000
     43352     14451  TIP3      H1             52.5910333595       44.3293877139       -1.0011196465  W2        14451           0.0000000000
     43353     14451  TIP3      H2             52.9495533595       45.3674777139       -2.0430996465  W2        14451           0.0000000000
     43354     14452  TIP3      OH2            53.8675733595       49.3161677139      -16.0374196465  W2        14452           0.0000000000
     43355     14452  TIP3      H1             53.9096533595       49.0935577139      -16.9674196465  W2        14452           0.0000000000
     43356     14452  TIP3      H2             54.7167833595       49.7148777139      -15.8474296465  W2        14452           0.0000000000
     43357     14453  TIP3      OH2            49.4403233595       43.1919877139      -15.3670896465  W2        14453           0.0000000000
     43358     14453  TIP3      H1             49.1868033595       43.2111477139      -14.4442796465  W2        14453           0.0000000000
     43359     14453  TIP3      H2             49.1835333595       42.3205277139      -15.6684696465  W2        14453           0.0000000000
     43360     14454  TIP3      OH2            45.2068233595       45.9430577139       -4.9318496465  W2        14454           0.0000000000
     43361     14454  TIP3      H1             44.5650333595       45.9027877139       -4.2228396465  W2        14454           0.0000000000
     43362     14454  TIP3      H2             45.2440233595       46.8695277139       -5.1695496465  W2        14454           0.0000000000
     43363     14455  TIP3      OH2            45.2037333595       46.1640677139      -10.0198496465  W2        14455           0.0000000000
     43364     14455  TIP3      H1             44.3110233595       45.8236777139      -10.0784696465  W2        14455           0.0000000000
     43365     14455  TIP3      H2             45.6543933595       45.7871577139      -10.7755296465  W2        14455           0.0000000000
     43366     14456  TIP3      OH2            50.7392833595       46.5800977139      -11.2027696465  W2        14456           0.0000000000
     43367     14456  TIP3      H1             50.3303133595       47.3949577139      -11.4942896465  W2        14456           0.0000000000
     43368     14456  TIP3      H2             51.4599033595       46.4401077139      -11.8170596465  W2        14456           0.0000000000
     43369     14457  TIP3      OH2            49.8414433595       46.7557377139        0.2853003535  W2        14457           0.0000000000
     43370     14457  TIP3      H1             49.2788233595       46.0508977139        0.6060803535  W2        14457           0.0000000000
     43371     14457  TIP3      H2             50.6677833595       46.6349277139        0.7530603535  W2        14457           0.0000000000
     43372     14458  TIP3      OH2            51.7440533595       46.0261377139       -8.3887996465  W2        14458           0.0000000000
     43373     14458  TIP3      H1             51.5485033595       46.6318177139       -9.1037396465  W2        14458           0.0000000000
     43374     14458  TIP3      H2             51.9253133595       45.1926577139       -8.8231696465  W2        14458           0.0000000000
     43375     14459  TIP3      OH2            42.9568733595       46.2634077139       -3.0646496465  W2        14459           0.0000000000
     43376     14459  TIP3      H1             42.9188133595       46.6635677139       -2.1959396465  W2        14459           0.0000000000
     43377     14459  TIP3      H2             42.4659833595       45.4466477139       -2.9743596465  W2        14459           0.0000000000
     43378     14460  TIP3      OH2            46.3226133595       43.6376377139      -16.2660496465  W2        14460           0.0000000000
     43379     14460  TIP3      H1             45.8916833595       43.1926477139      -15.5363096465  W2        14460           0.0000000000
     43380     14460  TIP3      H2             45.6044833595       44.0092677139      -16.7782996465  W2        14460           0.0000000000
     43381     14461  TIP3      OH2            39.5649533595       43.3795877139       -9.2141796465  W2        14461           0.0000000000
     43382     14461  TIP3      H1             40.1957233595       43.3507977139       -8.4947896465  W2        14461           0.0000000000
     43383     14461  TIP3      H2             40.0143833595       42.9544577139       -9.9445896465  W2        14461           0.0000000000
     43384     14462  TIP3      OH2            40.8391633595       44.1257877139      -13.7901396465  W2        14462           0.0000000000
     43385     14462  TIP3      H1             41.3133333595       44.7167777139      -14.3750496465  W2        14462           0.0000000000
     43386     14462  TIP3      H2             40.1218033595       44.6560777139      -13.4431296465  W2        14462           0.0000000000
     43387     14463  TIP3      OH2            51.0079733595       47.6642677139       -3.7175596465  W2        14463           0.0000000000
     43388     14463  TIP3      H1             51.3314533595       47.0332377139       -4.3605096465  W2        14463           0.0000000000
     43389     14463  TIP3      H2             50.5679033595       47.1294877139       -3.0568196465  W2        14463           0.0000000000
     43390     14464  TIP3      OH2            47.7852633595       43.5918177139       -8.9334396465  W2        14464           0.0000000000
     43391     14464  TIP3      H1             46.8743733595       43.6484977139       -8.6448396465  W2        14464           0.0000000000
     43392     14464  TIP3      H2             48.2905533595       43.5313677139       -8.1227196465  W2        14464           0.0000000000
     43393     14465  TIP3      OH2            42.6136033595       45.2204477139      -10.1066796465  W2        14465           0.0000000000
     43394     14465  TIP3      H1             41.7244033595       45.3199977139      -10.4467196465  W2        14465           0.0000000000
     43395     14465  TIP3      H2             42.9100933595       44.3787477139      -10.4528896465  W2        14465           0.0000000000
     43396     14466  TIP3      OH2            46.2667833595       45.2207077139      -12.4502196465  W2        14466           0.0000000000
     43397     14466  TIP3      H1             47.1983333595       45.3497077139      -12.2719096465  W2        14466           0.0000000000
     43398     14466  TIP3      H2             46.0518133595       45.8901377139      -13.0997496465  W2        14466           0.0000000000
     43399     14467  TIP3      OH2            52.1904533595       42.8264477139       -5.6692596465  W2        14467           0.0000000000
     43400     14467  TIP3      H1             51.5136133595       42.9577577139       -5.0052896465  W2        14467           0.0000000000
     43401     14467  TIP3      H2             51.7049433595       42.6713977139       -6.4794896465  W2        14467           0.0000000000
     43402     14468  TIP3      OH2            44.9408033595       46.4149277139      -14.8836096465  W2        14468           0.0000000000
     43403     14468  TIP3      H1             44.3983133595       46.0353077139      -15.5748496465  W2        14468           0.0000000000
     43404     14468  TIP3      H2             45.7742933595       46.6093977139      -15.3121996465  W2        14468           0.0000000000
     43405     14469  TIP3      OH2            43.0759433595       50.9721177139        0.2155503535  W2        14469           0.0000000000
     43406     14469  TIP3      H1             43.8081833595       51.2267077139        0.7770003535  W2        14469           0.0000000000
     43407     14469  TIP3      H2             42.2958133595       51.1766577139        0.7310903535  W2        14469           0.0000000000
     43408     14470  TIP3      OH2            49.1052333595       46.3791177139       -7.0464796465  W2        14470           0.0000000000
     43409     14470  TIP3      H1             49.6695733595       45.8327777139       -7.5935196465  W2        14470           0.0000000000
     43410     14470  TIP3      H2             48.9575733595       45.8573077139       -6.2577196465  W2        14470           0.0000000000
     43411     14471  TIP3      OH2            44.1072033595       42.5157277139      -10.6279996465  W2        14471           0.0000000000
     43412     14471  TIP3      H1             43.7901533595       41.6132577139      -10.6634596465  W2        14471           0.0000000000
     43413     14471  TIP3      H2             44.8886133595       42.5174677139      -11.1808396465  W2        14471           0.0000000000
     43414     14472  TIP3      OH2            47.7318233595       44.7677277139       -4.6324396465  W2        14472           0.0000000000
     43415     14472  TIP3      H1             46.8963533595       45.2216777139       -4.5221996465  W2        14472           0.0000000000
     43416     14472  TIP3      H2             48.2558833595       45.0435777139       -3.8804496465  W2        14472           0.0000000000
     43417     14473  TIP3      OH2            48.2760833595       50.9804977139      -12.9477996465  W2        14473           0.0000000000
     43418     14473  TIP3      H1             47.5311833595       50.4730277139      -13.2700096465  W2        14473           0.0000000000
     43419     14473  TIP3      H2             48.1418033595       51.0292977139      -12.0013196465  W2        14473           0.0000000000
     43420     14474  TIP3      OH2            52.1737633595       43.7944877139      -14.7485396465  W2        14474           0.0000000000
     43421     14474  TIP3      H1             51.2351833595       43.9060477139      -14.8996596465  W2        14474           0.0000000000
     43422     14474  TIP3      H2             52.4709733595       44.6511777139      -14.4419696465  W2        14474           0.0000000000
     43423     14475  TIP3      OH2            49.7952933595       51.1648277139       -1.7108896465  W2        14475           0.0000000000
     43424     14475  TIP3      H1             49.4499033595       50.7830677139       -0.9039296465  W2        14475           0.0000000000
     43425     14475  TIP3      H2             49.5953033595       52.0981877139       -1.6395996465  W2        14475           0.0000000000
     43426     14476  TIP3      OH2            52.8921133595       45.6617577139      -13.0877996465  W2        14476           0.0000000000
     43427     14476  TIP3      H1             53.7840133595       45.5242577139      -12.7686796465  W2        14476           0.0000000000
     43428     14476  TIP3      H2             52.9484733595       46.4523677139      -13.6244496465  W2        14476           0.0000000000
     43429     14477  TIP3      OH2            43.4009133595       50.2754977139       -7.1780096465  W2        14477           0.0000000000
     43430     14477  TIP3      H1             44.1456333595       50.2730677139       -7.7793596465  W2        14477           0.0000000000
     43431     14477  TIP3      H2             43.4785733595       49.4518777139       -6.6964996465  W2        14477           0.0000000000
     43432     14478  TIP3      OH2            50.4014933595       52.4389277139      -13.9223396465  W2        14478           0.0000000000
     43433     14478  TIP3      H1             50.1063333595       53.2657177139      -13.5408596465  W2        14478           0.0000000000
     43434     14478  TIP3      H2             49.6984933595       51.8196177139      -13.7261996465  W2        14478           0.0000000000
     43435     14479  TIP3      OH2            40.4088833595       48.7361877139       -1.8631596465  W2        14479           0.0000000000
     43436     14479  TIP3      H1             40.6317433595       48.3181477139       -1.0314096465  W2        14479           0.0000000000
     43437     14479  TIP3      H2             39.8068933595       48.1236877139       -2.2858796465  W2        14479           0.0000000000
     43438     14480  TIP3      OH2            47.4253733595       48.2531777139        0.3498103535  W2        14480           0.0000000000
     43439     14480  TIP3      H1             47.1294533595       48.0874777139       -0.5452796465  W2        14480           0.0000000000
     43440     14480  TIP3      H2             48.3568933595       48.0332077139        0.3392003535  W2        14480           0.0000000000
     43441     14481  TIP3      OH2            52.0456533595       53.6263777139       -1.7603896465  W2        14481           0.0000000000
     43442     14481  TIP3      H1             51.1450833595       53.8096377139       -2.0279996465  W2        14481           0.0000000000
     43443     14481  TIP3      H2             52.0797633595       53.8853077139       -0.8395096465  W2        14481           0.0000000000
     43444     14482  TIP3      OH2            53.2325433595       49.4651577139       -5.9067296465  W2        14482           0.0000000000
     43445     14482  TIP3      H1             52.3042333595       49.2333477139       -5.9337996465  W2        14482           0.0000000000
     43446     14482  TIP3      H2             53.6836533595       48.6881377139       -6.2368496465  W2        14482           0.0000000000
     43447     14483  TIP3      OH2            45.7758533595       53.7933177139       -9.7738596465  W2        14483           0.0000000000
     43448     14483  TIP3      H1             46.3030733595       54.5667577139       -9.9739796465  W2        14483           0.0000000000
     43449     14483  TIP3      H2             44.8957033595       54.0182377139      -10.0754596465  W2        14483           0.0000000000
     43450     14484  TIP3      OH2            41.5306233595       48.6557277139      -15.1866196465  W2        14484           0.0000000000
     43451     14484  TIP3      H1             42.1466133595       49.2824477139      -14.8071396465  W2        14484           0.0000000000
     43452     14484  TIP3      H2             40.6688833595       48.9717077139      -14.9149696465  W2        14484           0.0000000000
     43453     14485  TIP3      OH2            47.2030833595       51.4563077139      -10.1974296465  W2        14485           0.0000000000
     43454     14485  TIP3      H1             46.9620833595       52.3817477139      -10.1558996465  W2        14485           0.0000000000
     43455     14485  TIP3      H2             46.4624433595       50.9974377139       -9.8010396465  W2        14485           0.0000000000
     43456     14486  TIP3      OH2            51.2618233595       51.7047377139       -4.1817596465  W2        14486           0.0000000000
     43457     14486  TIP3      H1             50.8359533595       51.4769077139       -3.3553596465  W2        14486           0.0000000000
     43458     14486  TIP3      H2             51.8424033595       50.9659177139       -4.3642296465  W2        14486           0.0000000000
     43459     14487  TIP3      OH2            53.4647133595       52.6337877139      -15.1078596465  W2        14487           0.0000000000
     43460     14487  TIP3      H1             53.8180233595       52.2537677139      -14.3035096465  W2        14487           0.0000000000
     43461     14487  TIP3      H2             52.5160633595       52.5402677139      -15.0209296465  W2        14487           0.0000000000
     43462     14488  TIP3      OH2            42.0428333595       43.4894577139       -2.3050196465  W2        14488           0.0000000000
     43463     14488  TIP3      H1             41.1500633595       43.8279977139       -2.3726196465  W2        14488           0.0000000000
     43464     14488  TIP3      H2             41.9441133595       42.6340677139       -1.8869396465  W2        14488           0.0000000000
     43465     14489  TIP3      OH2            54.3306433595       51.3059877139      -12.8810696465  W2        14489           0.0000000000
     43466     14489  TIP3      H1             54.0534033595       50.5779177139      -12.3249596465  W2        14489           0.0000000000
     43467     14489  TIP3      H2             55.2579433595       51.4251877139      -12.6758096465  W2        14489           0.0000000000
     43468     14490  TIP3      OH2            47.5554933595       53.7453977139      -16.6608596465  W2        14490           0.0000000000
     43469     14490  TIP3      H1             47.7944733595       52.9972077139      -17.2079696465  W2        14490           0.0000000000
     43470     14490  TIP3      H2             47.2866233595       53.3575677139      -15.8280796465  W2        14490           0.0000000000
     43471     14491  TIP3      OH2            46.4925533595       53.3157777139      -14.2045996465  W2        14491           0.0000000000
     43472     14491  TIP3      H1             46.6393533595       52.7957577139      -13.4145096465  W2        14491           0.0000000000
     43473     14491  TIP3      H2             46.4897233595       54.2225377139      -13.8980096465  W2        14491           0.0000000000
     43474     14492  TIP3      OH2            42.9456633595       50.5681077139      -13.6940596465  W2        14492           0.0000000000
     43475     14492  TIP3      H1             42.2595933595       50.9203577139      -13.1270896465  W2        14492           0.0000000000
     43476     14492  TIP3      H2             43.4684533595       51.3310677139      -13.9406296465  W2        14492           0.0000000000
     43477     14493  TIP3      OH2            50.7771733595       43.2304877139       -3.4151596465  W2        14493           0.0000000000
     43478     14493  TIP3      H1             51.4759633595       43.3043577139       -2.7651896465  W2        14493           0.0000000000
     43479     14493  TIP3      H2             50.3963133595       42.3659877139       -3.2608696465  W2        14493           0.0000000000
     43480     14494  TIP3      OH2            51.5616633595       42.8826577139      -12.3179296465  W2        14494           0.0000000000
     43481     14494  TIP3      H1             51.7814933595       43.3541977139      -13.1213896465  W2        14494           0.0000000000
     43482     14494  TIP3      H2             52.1200633595       43.2769177139      -11.6478696465  W2        14494           0.0000000000
     43483     14495  TIP3      OH2            48.7616533595       44.6105377139      -11.4830896465  W2        14495           0.0000000000
     43484     14495  TIP3      H1             49.5739133595       45.1148577139      -11.4369196465  W2        14495           0.0000000000
     43485     14495  TIP3      H2             48.5169533595       44.4655077139      -10.5691296465  W2        14495           0.0000000000
     43486     14496  TIP3      OH2            49.2972933595       45.5968077139       -2.2984296465  W2        14496           0.0000000000
     43487     14496  TIP3      H1             49.4163233595       46.1703477139       -1.5413896465  W2        14496           0.0000000000
     43488     14496  TIP3      H2             49.9527533595       44.9087477139       -2.1836496465  W2        14496           0.0000000000
     43489     14497  TIP3      OH2            49.6453233595       41.6918377139      -10.5449796465  W2        14497           0.0000000000
     43490     14497  TIP3      H1             49.2986733595       42.3088977139       -9.9005496465  W2        14497           0.0000000000
     43491     14497  TIP3      H2             50.3040133595       42.1924077139      -11.0264296465  W2        14497           0.0000000000
     43492     14498  TIP3      OH2            45.3030233595       42.7547777139      -13.8577296465  W2        14498           0.0000000000
     43493     14498  TIP3      H1             45.2195033595       43.6430877139      -13.5110896465  W2        14498           0.0000000000
     43494     14498  TIP3      H2             46.1930533595       42.4894477139      -13.6260496465  W2        14498           0.0000000000
     43495     14499  TIP3      OH2            54.1039733595       47.2539377139       -7.3677296465  W2        14499           0.0000000000
     43496     14499  TIP3      H1             53.3064133595       46.8389577139       -7.6962296465  W2        14499           0.0000000000
     43497     14499  TIP3      H2             54.5490833595       46.5633077139       -6.8766796465  W2        14499           0.0000000000
     43498     14500  TIP3      OH2            43.5615533595       53.1819977139      -14.7972796465  W2        14500           0.0000000000
     43499     14500  TIP3      H1             44.1537033595       53.8814777139      -14.5210396465  W2        14500           0.0000000000
     43500     14500  TIP3      H2             44.0208533595       52.7489477139      -15.5168196465  W2        14500           0.0000000000
     43501     14501  TIP3      OH2            41.8774733595       45.8462977139      -15.6813396465  W2        14501           0.0000000000
     43502     14501  TIP3      H1             41.8327333595       46.7856077139      -15.5026396465  W2        14501           0.0000000000
     43503     14501  TIP3      H2             40.9897933595       45.6107877139      -15.9511296465  W2        14501           0.0000000000
     43504     14502  TIP3      OH2            42.6856733595       40.6279577139       -7.0082396465  W2        14502           0.0000000000
     43505     14502  TIP3      H1             42.4566533595       40.6872077139       -7.9357396465  W2        14502           0.0000000000
     43506     14502  TIP3      H2             42.2430133595       39.8365077139       -6.7018296465  W2        14502           0.0000000000
     43507     14503  TIP3      OH2            41.6160033595       54.5686677139      -10.8476596465  W2        14503           0.0000000000
     43508     14503  TIP3      H1             40.7838633595       55.0409377139      -10.8205196465  W2        14503           0.0000000000
     43509     14503  TIP3      H2             42.1618333595       55.0784277139      -11.4463496465  W2        14503           0.0000000000
     43510     14504  TIP3      OH2            52.0785833595       54.4805877139        0.8317103535  W2        14504           0.0000000000
     43511     14504  TIP3      H1             51.7275333595       53.6238877139        1.0747503535  W2        14504           0.0000000000
     43512     14504  TIP3      H2             52.8049033595       54.6232577139        1.4386103535  W2        14504           0.0000000000
     43513     14505  TIP3      OH2            40.8113233595       50.9914477139        1.4365703535  W2        14505           0.0000000000
     43514     14505  TIP3      H1             40.9553733595       50.0895177139        1.1502403535  W2        14505           0.0000000000
     43515     14505  TIP3      H2             40.0390633595       51.2776577139        0.9488003535  W2        14505           0.0000000000
     43516     14506  TIP3      OH2            45.1526933595       51.3350177139      -16.4309696465  W2        14506           0.0000000000
     43517     14506  TIP3      H1             45.2171033595       50.5409777139      -15.9003296465  W2        14506           0.0000000000
     43518     14506  TIP3      H2             45.8056133595       51.2162977139      -17.1207696465  W2        14506           0.0000000000
     43519     14507  TIP3      OH2            47.4669333595       50.9612577139        0.8692103535  W2        14507           0.0000000000
     43520     14507  TIP3      H1             47.1383133595       51.2320677139        0.0119503535  W2        14507           0.0000000000
     43521     14507  TIP3      H2             47.6187533595       50.0202377139        0.7817103535  W2        14507           0.0000000000
     43522     14508  TIP3      OH2            50.5050333595       52.3821877139      -16.6951696465  W2        14508           0.0000000000
     43523     14508  TIP3      H1             50.2364433595       52.5623977139      -15.7942796465  W2        14508           0.0000000000
     43524     14508  TIP3      H2             50.2985933595       51.4568077139      -16.8265896465  W2        14508           0.0000000000
     43525     14509  TIP3      OH2            53.2014533595       50.8769877139       -1.7475596465  W2        14509           0.0000000000
     43526     14509  TIP3      H1             53.9469333595       51.4653577139       -1.8671596465  W2        14509           0.0000000000
     43527     14509  TIP3      H2             52.4441333595       51.4589577139       -1.6842496465  W2        14509           0.0000000000
     43528     14510  TIP3      OH2            41.6439733595       48.1917777139        0.8565003535  W2        14510           0.0000000000
     43529     14510  TIP3      H1             42.0520933595       47.3344377139        0.7355603535  W2        14510           0.0000000000
     43530     14510  TIP3      H2             41.3837333595       48.2059077139        1.7775303535  W2        14510           0.0000000000
     43531     14511  TIP3      OH2            46.3020733595       49.3076377139      -14.1251696465  W2        14511           0.0000000000
     43532     14511  TIP3      H1             45.8422733595       48.8234677139      -13.4393196465  W2        14511           0.0000000000
     43533     14511  TIP3      H2             46.5569433595       48.6391777139      -14.7611196465  W2        14511           0.0000000000
     43534     14512  TIP3      OH2            45.5910033595       47.2003477139       -1.7692096465  W2        14512           0.0000000000
     43535     14512  TIP3      H1             44.9726133595       47.8750077139       -1.4887396465  W2        14512           0.0000000000
     43536     14512  TIP3      H2             45.9351233595       47.5217377139       -2.6025896465  W2        14512           0.0000000000
     43537     14513  TIP3      OH2            47.3731133595       47.5508177139      -15.8628496465  W2        14513           0.0000000000
     43538     14513  TIP3      H1             47.1926133595       47.3959377139      -16.7900196465  W2        14513           0.0000000000
     43539     14513  TIP3      H2             48.3231633595       47.6586877139      -15.8180596465  W2        14513           0.0000000000
     43540     14514  TIP3      OH2            50.6108233595       49.6718777139        1.5082703535  W2        14514           0.0000000000
     43541     14514  TIP3      H1             51.5639433595       49.7557877139        1.4808703535  W2        14514           0.0000000000
     43542     14514  TIP3      H2             50.4502833595       48.9600577139        2.1277603535  W2        14514           0.0000000000
     43543     14515  TIP3      OH2            45.9303733595       44.5554277139       -0.6868996465  W2        14515           0.0000000000
     43544     14515  TIP3      H1             46.0804633595       43.8265577139       -1.2889296465  W2        14515           0.0000000000
     43545     14515  TIP3      H2             45.9326133595       45.3325977139       -1.2456796465  W2        14515           0.0000000000
     43546     14516  TIP3      OH2            46.3429433595       42.9250077139       -3.1941596465  W2        14516           0.0000000000
     43547     14516  TIP3      H1             46.8786933595       43.3766777139       -3.8462296465  W2        14516           0.0000000000
     43548     14516  TIP3      H2             45.4909033595       42.8169877139       -3.6167496465  W2        14516           0.0000000000
     43549     14517  TIP3      OH2            47.9247833595       48.3646277139       -2.9546396465  W2        14517           0.0000000000
     43550     14517  TIP3      H1             48.6752633595       48.2083777139       -3.5278596465  W2        14517           0.0000000000
     43551     14517  TIP3      H2             47.5856133595       49.2162877139       -3.2300896465  W2        14517           0.0000000000
     43552     14518  TIP3      OH2            52.3404033595       46.1798077139        2.0738903535  W2        14518           0.0000000000
     43553     14518  TIP3      H1             52.5325333595       45.2487477139        1.9623403535  W2        14518           0.0000000000
     43554     14518  TIP3      H2             53.1980333595       46.6047577139        2.0634303535  W2        14518           0.0000000000
     43555     14519  TIP3      OH2            53.6571233595       48.9683277139        0.1511603535  W2        14519           0.0000000000
     43556     14519  TIP3      H1             53.3756233595       49.6777877139       -0.4264596465  W2        14519           0.0000000000
     43557     14519  TIP3      H2             54.5995533595       48.8956277139        0.0002803535  W2        14519           0.0000000000
     43558     14520  TIP3      OH2            44.4090033595       45.7537777139        1.2246603535  W2        14520           0.0000000000
     43559     14520  TIP3      H1             43.6419033595       45.2212577139        1.0144203535  W2        14520           0.0000000000
     43560     14520  TIP3      H2             45.0879033595       45.4438177139        0.6252903535  W2        14520           0.0000000000
     43561     14521  TIP3      OH2            47.1484933595       40.3815777139       -2.7627996465  W2        14521           0.0000000000
     43562     14521  TIP3      H1             47.0504533595       41.3278977139       -2.8681796465  W2        14521           0.0000000000
     43563     14521  TIP3      H2             46.4061133595       40.0089577139       -3.2384496465  W2        14521           0.0000000000
     43564     14522  TIP3      OH2            48.4125433595       44.7031177139        0.8010403535  W2        14522           0.0000000000
     43565     14522  TIP3      H1             48.1770833595       44.4837877139        1.7025303535  W2        14522           0.0000000000
     43566     14522  TIP3      H2             47.6292333595       44.4962377139        0.2912903535  W2        14522           0.0000000000
     43567     14523  TIP3      OH2            51.1282033595       43.8304677139       -0.1236096465  W2        14523           0.0000000000
     43568     14523  TIP3      H1             50.1807433595       43.8624377139        0.0087203535  W2        14523           0.0000000000
     43569     14523  TIP3      H2             51.4408733595       43.2051777139        0.5302103535  W2        14523           0.0000000000
     43570     14524  TIP3      OH2            52.7623533595       42.4645777139        1.8815803535  W2        14524           0.0000000000
     43571     14524  TIP3      H1             52.6655333595       41.5123077139        1.8757703535  W2        14524           0.0000000000
     43572     14524  TIP3      H2             52.4406633595       42.7332577139        2.7421303535  W2        14524           0.0000000000
     43573     14525  TIP3      OH2            42.5892833595       43.6741577139        0.9291303535  W2        14525           0.0000000000
     43574     14525  TIP3      H1             42.8010233595       42.9677677139        0.3188803535  W2        14525           0.0000000000
     43575     14525  TIP3      H2             42.4780333595       43.2367577139        1.7732503535  W2        14525           0.0000000000
     43576     14526  TIP3      OH2            47.3703033595       39.6753177139       -0.0915196465  W2        14526           0.0000000000
     43577     14526  TIP3      H1             48.0821433595       39.0355377139       -0.1056096465  W2        14526           0.0000000000
     43578     14526  TIP3      H2             47.2693433595       39.9421477139       -1.0052096465  W2        14526           0.0000000000
     43579     14527  TIP3      OH2            47.7240533595       41.3581577139        1.9621103535  W2        14527           0.0000000000
     43580     14527  TIP3      H1             47.5922733595       40.8825377139        1.1419603535  W2        14527           0.0000000000
     43581     14527  TIP3      H2             47.1247933595       42.1025177139        1.9068203535  W2        14527           0.0000000000
     43582     14528  TIP3      OH2            40.8387733595       52.8775677139      -15.3786796465  W2        14528           0.0000000000
     43583     14528  TIP3      H1             41.7526933595       52.9564577139      -15.1052896465  W2        14528           0.0000000000
     43584     14528  TIP3      H2             40.8460833595       52.1905277139      -16.0451196465  W2        14528           0.0000000000
     43585     14529  TIP3      OH2            40.4377033595       49.4266577139       -6.0451796465  W2        14529           0.0000000000
     43586     14529  TIP3      H1             40.6219933595       49.3448277139       -6.9808896465  W2        14529           0.0000000000
     43587     14529  TIP3      H2             41.2869933595       49.3023577139       -5.6215396465  W2        14529           0.0000000000
     43588     14530  TIP3      OH2            40.0351833595       44.6971577139        0.0957003535  W2        14530           0.0000000000
     43589     14530  TIP3      H1             40.9546733595       44.5749877139        0.3320103535  W2        14530           0.0000000000
     43590     14530  TIP3      H2             39.5856333595       43.9471277139        0.4850503535  W2        14530           0.0000000000
     43591     14531  TIP3      OH2            41.2564333595       43.0093177139       -7.0130096465  W2        14531           0.0000000000
     43592     14531  TIP3      H1             41.7015933595       42.2175677139       -6.7110396465  W2        14531           0.0000000000
     43593     14531  TIP3      H2             41.7227333595       43.7258377139       -6.5824496465  W2        14531           0.0000000000
     43594     14532  TIP3      OH2            39.5604633595       46.0086177139       -5.9439896465  W2        14532           0.0000000000
     43595     14532  TIP3      H1             40.0524433595       45.7876677139       -6.7347896465  W2        14532           0.0000000000
     43596     14532  TIP3      H2             39.9225533595       46.8489577139       -5.6630396465  W2        14532           0.0000000000
     43597     14533  TIP3      OH2            39.8741133595       42.2665277139      -11.8897496465  W2        14533           0.0000000000
     43598     14533  TIP3      H1             38.9489533595       42.4751877139      -12.0191996465  W2        14533           0.0000000000
     43599     14533  TIP3      H2             40.3281033595       42.7506077139      -12.5795196465  W2        14533           0.0000000000
     43600     14534  TIP3      OH2            39.8376533595       41.0044277139       -3.5454996465  W2        14534           0.0000000000
     43601     14534  TIP3      H1             39.1727033595       40.7584577139       -2.9024096465  W2        14534           0.0000000000
     43602     14534  TIP3      H2             39.3947833595       41.6264677139       -4.1226996465  W2        14534           0.0000000000
     43603     14535  TIP3      OH2            42.0295833595       54.1798377139        0.5990803535  W2        14535           0.0000000000
     43604     14535  TIP3      H1             41.2088333595       54.3544877139        0.1385503535  W2        14535           0.0000000000
     43605     14535  TIP3      H2             41.7773633595       54.1063077139        1.5195203535  W2        14535           0.0000000000
     43606     14536  TIP3      OH2            49.9872833595       41.8774577139       -7.5366896465  W2        14536           0.0000000000
     43607     14536  TIP3      H1             49.3129633595       41.2480177139       -7.2811096465  W2        14536           0.0000000000
     43608     14536  TIP3      H2             50.5512033595       41.3933477139       -8.1398996465  W2        14536           0.0000000000
     43609     14537  TIP3      OH2            42.3140333595       40.5114877139       -9.7146996465  W2        14537           0.0000000000
     43610     14537  TIP3      H1             41.5370133595       40.2769777139      -10.2221096465  W2        14537           0.0000000000
     43611     14537  TIP3      H2             42.8443933595       39.7146977139       -9.7058996465  W2        14537           0.0000000000
     43612     14538  TIP3      OH2            41.1503733595       40.3092977139      -13.9110896465  W2        14538           0.0000000000
     43613     14538  TIP3      H1             41.5894433595       40.9203477139      -14.5027396465  W2        14538           0.0000000000
     43614     14538  TIP3      H2             40.5166133595       40.8477077139      -13.4370896465  W2        14538           0.0000000000
     43615     14539  TIP3      OH2            46.8932933595       40.4381977139       -9.9013896465  W2        14539           0.0000000000
     43616     14539  TIP3      H1             47.7676333595       40.8266277139       -9.9309596465  W2        14539           0.0000000000
     43617     14539  TIP3      H2             46.7573733595       40.2229777139       -8.9786696465  W2        14539           0.0000000000
     43618     14540  TIP3      OH2            52.4501333595       40.4681777139       -8.2522196465  W2        14540           0.0000000000
     43619     14540  TIP3      H1             52.5262933595       40.5633377139       -9.2016196465  W2        14540           0.0000000000
     43620     14540  TIP3      H2             52.1750533595       39.5604677139       -8.1233096465  W2        14540           0.0000000000
     43621     14541  TIP3      OH2            53.8033933595       40.4939577139      -12.5597196465  W2        14541           0.0000000000
     43622     14541  TIP3      H1             53.1005033595       41.1088777139      -12.7695796465  W2        14541           0.0000000000
     43623     14541  TIP3      H2             53.3585333595       39.6566277139      -12.4286296465  W2        14541           0.0000000000
     43624     14542  TIP3      OH2            43.0112833595       42.2254477139      -15.4686796465  W2        14542           0.0000000000
     43625     14542  TIP3      H1             43.5026233595       41.5956877139      -15.9961296465  W2        14542           0.0000000000
     43626     14542  TIP3      H2             43.6349133595       42.5213877139      -14.8055596465  W2        14542           0.0000000000
     43627     14543  TIP3      OH2            48.0372933595       42.5185977139      -13.0116296465  W2        14543           0.0000000000
     43628     14543  TIP3      H1             48.2154233595       41.8719177139      -12.3287696465  W2        14543           0.0000000000
     43629     14543  TIP3      H2             47.9839133595       43.3523677139      -12.5445196465  W2        14543           0.0000000000
     43630     14544  TIP3      OH2            42.2718333595       41.0256777139       -0.1970796465  W2        14544           0.0000000000
     43631     14544  TIP3      H1             41.9056533595       40.2599377139        0.2453903535  W2        14544           0.0000000000
     43632     14544  TIP3      H2             43.1846833595       41.0546977139        0.0894303535  W2        14544           0.0000000000
     43633     14545  TIP3      OH2            44.2449133595       40.3761177139        1.3386303535  W2        14545           0.0000000000
     43634     14545  TIP3      H1             45.1432733595       40.1021377139        1.1539703535  W2        14545           0.0000000000
     43635     14545  TIP3      H2             43.8582233595       39.6337177139        1.8028903535  W2        14545           0.0000000000
     43636     14546  TIP3      OH2            52.6661433595       39.7086477139        1.5209103535  W2        14546           0.0000000000
     43637     14546  TIP3      H1             52.7428633595       39.2827177139        2.3746803535  W2        14546           0.0000000000
     43638     14546  TIP3      H2             53.5598033595       39.7221177139        1.1782603535  W2        14546           0.0000000000
     43639     14547  TIP3      OH2           -42.8877066405      -44.6122822861        9.1000503535  W2        14547           0.0000000000
     43640     14547  TIP3      H1            -42.7985966405      -43.6684622861        8.9677603535  W2        14547           0.0000000000
     43641     14547  TIP3      H2            -43.5259466405      -44.8876422861        8.4419903535  W2        14547           0.0000000000
     43642     14548  TIP3      OH2           -43.9545766405      -45.3572122861       12.5188703535  W2        14548           0.0000000000
     43643     14548  TIP3      H1            -43.9928266405      -46.0035822861       13.2238303535  W2        14548           0.0000000000
     43644     14548  TIP3      H2            -44.2769266405      -45.8237722861       11.7477403535  W2        14548           0.0000000000
     43645     14549  TIP3      OH2           -51.5860766405      -45.7430022861       14.1118603535  W2        14549           0.0000000000
     43646     14549  TIP3      H1            -51.5448666405      -46.3686722861       14.8351003535  W2        14549           0.0000000000
     43647     14549  TIP3      H2            -50.8833066405      -45.1191422861       14.2939003535  W2        14549           0.0000000000
     43648     14550  TIP3      OH2           -40.2485566405      -42.4181722861       10.8203803535  W2        14550           0.0000000000
     43649     14550  TIP3      H1            -40.6892866405      -43.1385722861       11.2709403535  W2        14550           0.0000000000
     43650     14550  TIP3      H2            -40.2615866405      -41.6974522861       11.4501503535  W2        14550           0.0000000000
     43651     14551  TIP3      OH2           -50.6627666405      -41.2931122861       12.6467703535  W2        14551           0.0000000000
     43652     14551  TIP3      H1            -51.0322466405      -42.0950622861       12.2772003535  W2        14551           0.0000000000
     43653     14551  TIP3      H2            -49.7216566405      -41.4616222861       12.6931103535  W2        14551           0.0000000000
     43654     14552  TIP3      OH2           -54.0527166405      -47.6328522861        8.0396503535  W2        14552           0.0000000000
     43655     14552  TIP3      H1            -54.5003766405      -46.7869822861        8.0213003535  W2        14552           0.0000000000
     43656     14552  TIP3      H2            -54.6135966405      -48.2124322861        7.5241603535  W2        14552           0.0000000000
     43657     14553  TIP3      OH2           -53.3421066405      -45.4708922861       10.1654503535  W2        14553           0.0000000000
     43658     14553  TIP3      H1            -53.1287566405      -46.2407322861       10.6927503535  W2        14553           0.0000000000
     43659     14553  TIP3      H2            -52.6043466405      -45.3812222861        9.5622103535  W2        14553           0.0000000000
     43660     14554  TIP3      OH2           -43.1370066405      -37.3140022861       11.0324203535  W2        14554           0.0000000000
     43661     14554  TIP3      H1            -42.5173666405      -37.9905322861       10.7593403535  W2        14554           0.0000000000
     43662     14554  TIP3      H2            -43.3452666405      -37.5319222861       11.9409103535  W2        14554           0.0000000000
     43663     14555  TIP3      OH2           -45.5651366405      -42.9250722861       12.9249703535  W2        14555           0.0000000000
     43664     14555  TIP3      H1            -45.2613466405      -43.6109322861       12.3303803535  W2        14555           0.0000000000
     43665     14555  TIP3      H2            -44.8437366405      -42.8062022861       13.5427703535  W2        14555           0.0000000000
     43666     14556  TIP3      OH2           -36.9021566405      -51.3235422861       13.7855903535  W2        14556           0.0000000000
     43667     14556  TIP3      H1            -36.8529366405      -50.7134222861       14.5215003535  W2        14556           0.0000000000
     43668     14556  TIP3      H2            -36.4766466405      -50.8624522861       13.0627003535  W2        14556           0.0000000000
     43669     14557  TIP3      OH2           -42.4244366405      -48.5308322861       13.2524503535  W2        14557           0.0000000000
     43670     14557  TIP3      H1            -42.2818466405      -49.4771322861       13.2726103535  W2        14557           0.0000000000
     43671     14557  TIP3      H2            -42.5305366405      -48.3238522861       12.3239403535  W2        14557           0.0000000000
     43672     14558  TIP3      OH2           -49.2696066405      -50.4291922861       10.5249303535  W2        14558           0.0000000000
     43673     14558  TIP3      H1            -49.2264966405      -49.5693422861       10.1065603535  W2        14558           0.0000000000
     43674     14558  TIP3      H2            -49.7271966405      -50.9817222861        9.8912503535  W2        14558           0.0000000000
     43675     14559  TIP3      OH2           -41.5473366405      -50.2986322861        8.9257603535  W2        14559           0.0000000000
     43676     14559  TIP3      H1            -40.9009066405      -50.6273122861        9.5505203535  W2        14559           0.0000000000
     43677     14559  TIP3      H2            -41.0373966405      -49.7807322861        8.3029003535  W2        14559           0.0000000000
     43678     14560  TIP3      OH2           -52.6494566405      -48.0326122861       11.2870703535  W2        14560           0.0000000000
     43679     14560  TIP3      H1            -51.9957966405      -48.5824422861       11.7190803535  W2        14560           0.0000000000
     43680     14560  TIP3      H2            -52.6255266405      -48.3067122861       10.3702703535  W2        14560           0.0000000000
     43681     14561  TIP3      OH2           -47.4930066405      -46.4824822861       10.5022203535  W2        14561           0.0000000000
     43682     14561  TIP3      H1            -46.8769066405      -47.0089422861       11.0116203535  W2        14561           0.0000000000
     43683     14561  TIP3      H2            -48.0791266405      -47.1226122861       10.0985803535  W2        14561           0.0000000000
     43684     14562  TIP3      OH2           -36.5106966405      -49.8456222861       16.0215703535  W2        14562           0.0000000000
     43685     14562  TIP3      H1            -37.1992366405      -49.1875522861       15.9262303535  W2        14562           0.0000000000
     43686     14562  TIP3      H2            -36.4952366405      -50.0428322861       16.9581103535  W2        14562           0.0000000000
     43687     14563  TIP3      OH2           -50.4594166405      -51.5113522861       14.5990103535  W2        14563           0.0000000000
     43688     14563  TIP3      H1            -50.6782466405      -50.9812922861       13.8326103535  W2        14563           0.0000000000
     43689     14563  TIP3      H2            -51.1273266405      -51.2848022861       15.2461503535  W2        14563           0.0000000000
     43690     14564  TIP3      OH2           -43.0904366405      -42.0112422861        8.1429203535  W2        14564           0.0000000000
     43691     14564  TIP3      H1            -43.3859266405      -42.3340122861        7.2916103535  W2        14564           0.0000000000
     43692     14564  TIP3      H2            -43.4146566405      -41.1115722861        8.1841803535  W2        14564           0.0000000000
     43693     14565  TIP3      OH2           -47.8902766405      -43.8357822861       14.8863803535  W2        14565           0.0000000000
     43694     14565  TIP3      H1            -48.6303666405      -43.2376322861       14.9899003535  W2        14565           0.0000000000
     43695     14565  TIP3      H2            -47.1763266405      -43.2818222861       14.5707403535  W2        14565           0.0000000000
     43696     14566  TIP3      OH2           -39.7834966405      -51.0077022861       10.9063503535  W2        14566           0.0000000000
     43697     14566  TIP3      H1            -39.9986966405      -51.7733622861       11.4389503535  W2        14566           0.0000000000
     43698     14566  TIP3      H2            -39.1277566405      -50.5352422861       11.4192003535  W2        14566           0.0000000000
     43699     14567  TIP3      OH2           -50.8656866405      -49.6191722861       12.5512303535  W2        14567           0.0000000000
     43700     14567  TIP3      H1            -50.2520566405      -48.9864122861       12.9244703535  W2        14567           0.0000000000
     43701     14567  TIP3      H2            -50.3536166405      -50.0916722861       11.8949203535  W2        14567           0.0000000000
     43702     14568  TIP3      OH2           -49.4828466405      -41.8714822861       15.6735303535  W2        14568           0.0000000000
     43703     14568  TIP3      H1            -49.4880866405      -40.9921322861       15.2954603535  W2        14568           0.0000000000
     43704     14568  TIP3      H2            -50.3364366405      -41.9550722861       16.0985203535  W2        14568           0.0000000000
     43705     14569  TIP3      OH2           -53.3617566405      -42.2006922861        6.4554603535  W2        14569           0.0000000000
     43706     14569  TIP3      H1            -53.6336666405      -41.9715922861        5.5667503535  W2        14569           0.0000000000
     43707     14569  TIP3      H2            -53.3161866405      -41.3628122861        6.9159903535  W2        14569           0.0000000000
     43708     14570  TIP3      OH2           -39.7367866405      -40.5791022861       13.1683103535  W2        14570           0.0000000000
     43709     14570  TIP3      H1            -40.6784166405      -40.5207122861       13.3300003535  W2        14570           0.0000000000
     43710     14570  TIP3      H2            -39.4601766405      -39.6730522861       13.0312803535  W2        14570           0.0000000000
     43711     14571  TIP3      OH2           -39.4360866405      -52.2925722861       14.5857003535  W2        14571           0.0000000000
     43712     14571  TIP3      H1            -40.1721666405      -51.6818622861       14.5478303535  W2        14571           0.0000000000
     43713     14571  TIP3      H2            -38.7526866405      -51.8776722861       14.0593403535  W2        14571           0.0000000000
     43714     14572  TIP3      OH2           -46.4329466405      -54.2058422861       12.0515003535  W2        14572           0.0000000000
     43715     14572  TIP3      H1            -46.5505266405      -55.1542422861       11.9973303535  W2        14572           0.0000000000
     43716     14572  TIP3      H2            -47.2879366405      -53.8732322861       12.3246103535  W2        14572           0.0000000000
     43717     14573  TIP3      OH2           -41.4846666405      -38.7977522861        9.7934703535  W2        14573           0.0000000000
     43718     14573  TIP3      H1            -41.0594366405      -39.5049622861        9.3084303535  W2        14573           0.0000000000
     43719     14573  TIP3      H2            -41.1676666405      -37.9964822861        9.3766903535  W2        14573           0.0000000000
     43720     14574  TIP3      OH2           -40.3250166405      -40.8969022861        8.3021303535  W2        14574           0.0000000000
     43721     14574  TIP3      H1            -40.5825366405      -41.5868922861        7.6907203535  W2        14574           0.0000000000
     43722     14574  TIP3      H2            -40.2539366405      -41.3397822861        9.1477203535  W2        14574           0.0000000000
     43723     14575  TIP3      OH2           -38.6389966405      -42.3302322861       16.7794803535  W2        14575           0.0000000000
     43724     14575  TIP3      H1            -38.4993666405      -42.9219822861       16.0401803535  W2        14575           0.0000000000
     43725     14575  TIP3      H2            -38.4717166405      -41.4576422861       16.4233603535  W2        14575           0.0000000000
     43726     14576  TIP3      OH2           -44.1664566405      -45.3682822861        6.5520803535  W2        14576           0.0000000000
     43727     14576  TIP3      H1            -44.8779066405      -44.8333122861        6.2001303535  W2        14576           0.0000000000
     43728     14576  TIP3      H2            -43.4754966405      -45.3130722861        5.8919703535  W2        14576           0.0000000000
     43729     14577  TIP3      OH2           -44.1125366405      -46.9108522861        3.5905803535  W2        14577           0.0000000000
     43730     14577  TIP3      H1            -43.4115466405      -46.8881622861        4.2419803535  W2        14577           0.0000000000
     43731     14577  TIP3      H2            -43.8102466405      -47.5388822861        2.9345103535  W2        14577           0.0000000000
     43732     14578  TIP3      OH2           -36.7970666405      -45.9904322861       14.8455203535  W2        14578           0.0000000000
     43733     14578  TIP3      H1            -37.4496566405      -45.2958722861       14.9346103535  W2        14578           0.0000000000
     43734     14578  TIP3      H2            -36.3320366405      -45.7803422861       14.0356803535  W2        14578           0.0000000000
     43735     14579  TIP3      OH2           -40.7606866405      -45.1589522861        7.5036703535  W2        14579           0.0000000000
     43736     14579  TIP3      H1            -41.4925866405      -44.9305822861        8.0767303535  W2        14579           0.0000000000
     43737     14579  TIP3      H2            -40.3134666405      -45.8726822861        7.9584203535  W2        14579           0.0000000000
     43738     14580  TIP3      OH2           -40.8633366405      -46.9846922861       16.5713703535  W2        14580           0.0000000000
     43739     14580  TIP3      H1            -40.7834266405      -46.2212522861       17.1432203535  W2        14580           0.0000000000
     43740     14580  TIP3      H2            -41.4645666405      -46.7054522861       15.8808803535  W2        14580           0.0000000000
     43741     14581  TIP3      OH2           -49.1153166405      -44.5283322861        9.3861703535  W2        14581           0.0000000000
     43742     14581  TIP3      H1            -49.4457966405      -44.8989922861        8.5678703535  W2        14581           0.0000000000
     43743     14581  TIP3      H2            -48.5269066405      -45.1989322861        9.7330003535  W2        14581           0.0000000000
     43744     14582  TIP3      OH2           -47.7485666405      -41.1002722861       12.0673903535  W2        14582           0.0000000000
     43745     14582  TIP3      H1            -47.8434366405      -41.6789622861       11.3108503535  W2        14582           0.0000000000
     43746     14582  TIP3      H2            -47.0192066405      -41.4717022861       12.5636703535  W2        14582           0.0000000000
     43747     14583  TIP3      OH2           -48.7487666405      -45.7597722861       13.0196703535  W2        14583           0.0000000000
     43748     14583  TIP3      H1            -48.1835166405      -45.6383522861       12.2567903535  W2        14583           0.0000000000
     43749     14583  TIP3      H2            -48.4298766405      -45.1222722861       13.6585203535  W2        14583           0.0000000000
     43750     14584  TIP3      OH2           -42.4395466405      -40.2565822861       13.7537203535  W2        14584           0.0000000000
     43751     14584  TIP3      H1            -42.6798866405      -39.5942722861       14.4016403535  W2        14584           0.0000000000
     43752     14584  TIP3      H2            -42.6377266405      -41.0910622861       14.1786803535  W2        14584           0.0000000000
     43753     14585  TIP3      OH2           -47.8686966405      -41.3605022861       17.7368603535  W2        14585           0.0000000000
     43754     14585  TIP3      H1            -48.1799466405      -40.5781822861       18.1921803535  W2        14585           0.0000000000
     43755     14585  TIP3      H2            -48.5186766405      -41.5135922861       17.0510603535  W2        14585           0.0000000000
     43756     14586  TIP3      OH2           -41.8897366405      -45.9966622861        5.1887903535  W2        14586           0.0000000000
     43757     14586  TIP3      H1            -41.3101866405      -45.8466322861        5.9356803535  W2        14586           0.0000000000
     43758     14586  TIP3      H2            -41.4757366405      -45.5259222861        4.4654303535  W2        14586           0.0000000000
     43759     14587  TIP3      OH2           -50.9487066405      -45.1623922861       16.9654303535  W2        14587           0.0000000000
     43760     14587  TIP3      H1            -50.8783866405      -44.5117122861       17.6639303535  W2        14587           0.0000000000
     43761     14587  TIP3      H2            -51.8394866405      -45.0596422861       16.6305203535  W2        14587           0.0000000000
     43762     14588  TIP3      OH2           -44.1632466405      -39.2598122861        8.6241003535  W2        14588           0.0000000000
     43763     14588  TIP3      H1            -43.6894866405      -38.9641822861        9.4015203535  W2        14588           0.0000000000
     43764     14588  TIP3      H2            -44.7263166405      -38.5216522861        8.3910603535  W2        14588           0.0000000000
     43765     14589  TIP3      OH2           -49.6291066405      -39.2890022861       18.5002403535  W2        14589           0.0000000000
     43766     14589  TIP3      H1            -49.6215766405      -39.4250322861       17.5527903535  W2        14589           0.0000000000
     43767     14589  TIP3      H2            -50.5450666405      -39.4061922861       18.7522403535  W2        14589           0.0000000000
     43768     14590  TIP3      OH2           -38.1908966405      -54.2466222861        5.0017603535  W2        14590           0.0000000000
     43769     14590  TIP3      H1            -39.0908266405      -54.1077222861        5.2968203535  W2        14590           0.0000000000
     43770     14590  TIP3      H2            -37.9390566405      -53.4151622861        4.5999303535  W2        14590           0.0000000000
     43771     14591  TIP3      OH2           -50.1250466405      -45.4589022861        6.9754503535  W2        14591           0.0000000000
     43772     14591  TIP3      H1            -50.4169166405      -44.6907322861        6.4845803535  W2        14591           0.0000000000
     43773     14591  TIP3      H2            -50.7995266405      -46.1182822861        6.8125903535  W2        14591           0.0000000000
     43774     14592  TIP3      OH2           -37.0017566405      -39.8803822861        3.3781503535  W2        14592           0.0000000000
     43775     14592  TIP3      H1            -36.9284066405      -38.9413622861        3.5486803535  W2        14592           0.0000000000
     43776     14592  TIP3      H2            -36.0962466405      -40.1855222861        3.3218803535  W2        14592           0.0000000000
     43777     14593  TIP3      OH2           -54.0320366405      -43.0959822861       15.7904303535  W2        14593           0.0000000000
     43778     14593  TIP3      H1            -54.5331966405      -43.1240422861       14.9754003535  W2        14593           0.0000000000
     43779     14593  TIP3      H2            -54.0266666405      -44.0016622861       16.1001603535  W2        14593           0.0000000000
     43780     14594  TIP3      OH2           -54.2817666405      -40.3156022861       12.6744503535  W2        14594           0.0000000000
     43781     14594  TIP3      H1            -53.3357066405      -40.4599022861       12.6554003535  W2        14594           0.0000000000
     43782     14594  TIP3      H2            -54.3941366405      -39.5313222861       13.2115703535  W2        14594           0.0000000000
     43783     14595  TIP3      OH2           -36.0839166405      -39.6496322861       18.3568203535  W2        14595           0.0000000000
     43784     14595  TIP3      H1            -36.1332366405      -40.6048222861       18.3195803535  W2        14595           0.0000000000
     43785     14595  TIP3      H2            -36.9106866405      -39.3821022861       18.7582003535  W2        14595           0.0000000000
     43786     14596  TIP3      OH2           -45.1055166405      -40.0757122861       17.2329603535  W2        14596           0.0000000000
     43787     14596  TIP3      H1            -45.0180566405      -39.2492522861       17.7078703535  W2        14596           0.0000000000
     43788     14596  TIP3      H2            -45.9690066405      -40.4053322861       17.4818903535  W2        14596           0.0000000000
     43789     14597  TIP3      OH2           -44.6909366405      -36.3033422861        7.0390203535  W2        14597           0.0000000000
     43790     14597  TIP3      H1            -44.7663366405      -36.4246222861        6.0925403535  W2        14597           0.0000000000
     43791     14597  TIP3      H2            -44.6580666405      -35.3540722861        7.1574803535  W2        14597           0.0000000000
     43792     14598  TIP3      OH2           -51.0375566405      -37.5146422861        8.8199203535  W2        14598           0.0000000000
     43793     14598  TIP3      H1            -50.8855166405      -37.8626022861        9.6985703535  W2        14598           0.0000000000
     43794     14598  TIP3      H2            -51.8885166405      -37.8709122861        8.5646403535  W2        14598           0.0000000000
     43795     14599  TIP3      OH2           -41.5893366405      -37.1493222861        4.0412603535  W2        14599           0.0000000000
     43796     14599  TIP3      H1            -41.2144966405      -37.8937122861        3.5705203535  W2        14599           0.0000000000
     43797     14599  TIP3      H2            -41.5849666405      -37.4192622861        4.9595903535  W2        14599           0.0000000000
     43798     14600  TIP3      OH2           -41.9205266405      -37.2236122861        6.7904803535  W2        14600           0.0000000000
     43799     14600  TIP3      H1            -42.8555466405      -37.1234222861        6.9691803535  W2        14600           0.0000000000
     43800     14600  TIP3      H2            -41.6403366405      -37.9330122861        7.3688003535  W2        14600           0.0000000000
     43801     14601  TIP3      OH2           -38.9319366405      -48.1563822861       18.8370403535  W2        14601           0.0000000000
     43802     14601  TIP3      H1            -39.3392566405      -47.6758222861       18.1163703535  W2        14601           0.0000000000
     43803     14601  TIP3      H2            -38.8913666405      -49.0617822861       18.5291203535  W2        14601           0.0000000000
     43804     14602  TIP3      OH2           -51.7829866405      -41.7724422861       16.8337103535  W2        14602           0.0000000000
     43805     14602  TIP3      H1            -51.5668566405      -42.1338822861       17.6932903535  W2        14602           0.0000000000
     43806     14602  TIP3      H2            -52.6385166405      -42.1470622861       16.6240603535  W2        14602           0.0000000000
     43807     14603  TIP3      OH2           -49.1641866405      -53.3023922861       12.8291303535  W2        14603           0.0000000000
     43808     14603  TIP3      H1            -50.0258166405      -53.3895722861       12.4214203535  W2        14603           0.0000000000
     43809     14603  TIP3      H2            -49.1866166405      -52.4463822861       13.2568903535  W2        14603           0.0000000000
     43810     14604  TIP3      OH2           -44.5014066405      -53.5803522861       16.2038303535  W2        14604           0.0000000000
     43811     14604  TIP3      H1            -44.0810966405      -53.9956422861       16.9568903535  W2        14604           0.0000000000
     43812     14604  TIP3      H2            -45.4344466405      -53.7590222861       16.3210303535  W2        14604           0.0000000000
     43813     14605  TIP3      OH2           -41.1749166405      -49.8248322861       17.0572803535  W2        14605           0.0000000000
     43814     14605  TIP3      H1            -41.6889666405      -49.9506122861       17.8548803535  W2        14605           0.0000000000
     43815     14605  TIP3      H2            -41.3304466405      -48.9125222861       16.8129003535  W2        14605           0.0000000000
     43816     14606  TIP3      OH2           -40.4124266405      -44.9638322861        2.8185803535  W2        14606           0.0000000000
     43817     14606  TIP3      H1            -40.3703466405      -45.1864422861        1.8885803535  W2        14606           0.0000000000
     43818     14606  TIP3      H2            -39.5632166405      -44.5651222861        3.0085703535  W2        14606           0.0000000000
     43819     14607  TIP3      OH2           -44.8396766405      -51.0880122861        3.4889103535  W2        14607           0.0000000000
     43820     14607  TIP3      H1            -45.0931966405      -51.0688522861        4.4117203535  W2        14607           0.0000000000
     43821     14607  TIP3      H2            -45.0964666405      -51.9594722861        3.1875303535  W2        14607           0.0000000000
     43822     14608  TIP3      OH2           -49.0731766405      -48.3369422861       13.9241503535  W2        14608           0.0000000000
     43823     14608  TIP3      H1            -49.7149666405      -48.3772122861       14.6331603535  W2        14608           0.0000000000
     43824     14608  TIP3      H2            -49.0359766405      -47.4104722861       13.6864503535  W2        14608           0.0000000000
     43825     14609  TIP3      OH2           -49.0762666405      -48.1159322861        8.8361503535  W2        14609           0.0000000000
     43826     14609  TIP3      H1            -49.9689766405      -48.4563222861        8.7775303535  W2        14609           0.0000000000
     43827     14609  TIP3      H2            -48.6256066405      -48.4928422861        8.0804703535  W2        14609           0.0000000000
     43828     14610  TIP3      OH2           -43.5407166405      -47.6999022861        7.6532303535  W2        14610           0.0000000000
     43829     14610  TIP3      H1            -43.9496866405      -46.8850422861        7.3617103535  W2        14610           0.0000000000
     43830     14610  TIP3      H2            -42.8200966405      -47.8398922861        7.0389403535  W2        14610           0.0000000000
     43831     14611  TIP3      OH2           -44.4385566405      -47.5242622861       19.1413003535  W2        14611           0.0000000000
     43832     14611  TIP3      H1            -45.0011766405      -48.2291022861       19.4620803535  W2        14611           0.0000000000
     43833     14611  TIP3      H2            -43.6122166405      -47.6450722861       19.6090603535  W2        14611           0.0000000000
     43834     14612  TIP3      OH2           -42.5359466405      -48.2538622861       10.4672003535  W2        14612           0.0000000000
     43835     14612  TIP3      H1            -42.7314966405      -47.6481822861        9.7522603535  W2        14612           0.0000000000
     43836     14612  TIP3      H2            -42.3546866405      -49.0873422861       10.0328303535  W2        14612           0.0000000000
     43837     14613  TIP3      OH2           -51.3231266405      -48.0165922861       15.7913503535  W2        14613           0.0000000000
     43838     14613  TIP3      H1            -51.3611866405      -47.6164322861       16.6600603535  W2        14613           0.0000000000
     43839     14613  TIP3      H2            -51.8140166405      -48.8333522861       15.8816403535  W2        14613           0.0000000000
     43840     14614  TIP3      OH2           -47.9573866405      -50.6423622861        2.5899503535  W2        14614           0.0000000000
     43841     14614  TIP3      H1            -48.3883166405      -51.0873522861        3.3196903535  W2        14614           0.0000000000
     43842     14614  TIP3      H2            -48.6755166405      -50.2707322861        2.0777003535  W2        14614           0.0000000000
     43843     14615  TIP3      OH2           -54.7150466405      -50.9004122861        9.6418203535  W2        14615           0.0000000000
     43844     14615  TIP3      H1            -54.0842766405      -50.9292022861       10.3612103535  W2        14615           0.0000000000
     43845     14615  TIP3      H2            -54.2656166405      -51.3255422861        8.9114103535  W2        14615           0.0000000000
     43846     14616  TIP3      OH2           -53.4408366405      -50.1542122861        5.0658603535  W2        14616           0.0000000000
     43847     14616  TIP3      H1            -52.9666666405      -49.5632222861        4.4809503535  W2        14616           0.0000000000
     43848     14616  TIP3      H2            -54.1581966405      -49.6239222861        5.4128703535  W2        14616           0.0000000000
     43849     14617  TIP3      OH2           -43.2720266405      -46.6157322861       15.1384403535  W2        14617           0.0000000000
     43850     14617  TIP3      H1            -42.9485466405      -47.2467622861       14.4954903535  W2        14617           0.0000000000
     43851     14617  TIP3      H2            -43.7120966405      -47.1505122861       15.7991803535  W2        14617           0.0000000000
     43852     14618  TIP3      OH2           -46.4947366405      -50.6881822861        9.9225603535  W2        14618           0.0000000000
     43853     14618  TIP3      H1            -47.4056266405      -50.6315022861       10.2111603535  W2        14618           0.0000000000
     43854     14618  TIP3      H2            -45.9894466405      -50.7486322861       10.7332803535  W2        14618           0.0000000000
     43855     14619  TIP3      OH2           -51.6663966405      -49.0595522861        8.7493203535  W2        14619           0.0000000000
     43856     14619  TIP3      H1            -52.5555966405      -48.9600022861        8.4092803535  W2        14619           0.0000000000
     43857     14619  TIP3      H2            -51.3699066405      -49.9012522861        8.4031103535  W2        14619           0.0000000000
     43858     14620  TIP3      OH2           -48.0132166405      -49.0592922861        6.4057803535  W2        14620           0.0000000000
     43859     14620  TIP3      H1            -47.0816666405      -48.9302922861        6.5840903535  W2        14620           0.0000000000
     43860     14620  TIP3      H2            -48.2281866405      -48.3898622861        5.7562503535  W2        14620           0.0000000000
     43861     14621  TIP3      OH2           -42.0895466405      -51.4535522861       13.1867403535  W2        14621           0.0000000000
     43862     14621  TIP3      H1            -42.7663866405      -51.3222422861       13.8507103535  W2        14621           0.0000000000
     43863     14621  TIP3      H2            -42.5750566405      -51.6086022861       12.3765103535  W2        14621           0.0000000000
     43864     14622  TIP3      OH2           -49.3391966405      -47.8650722861        3.9723903535  W2        14622           0.0000000000
     43865     14622  TIP3      H1            -49.8816866405      -48.2446922861        3.2811503535  W2        14622           0.0000000000
     43866     14622  TIP3      H2            -48.5057066405      -47.6706022861        3.5438003535  W2        14622           0.0000000000
     43867     14623  TIP3      OH2           -38.8020366405      -35.7820122861       19.4635003535  W2        14623           0.0000000000
     43868     14623  TIP3      H1            -38.6021666405      -35.3578222861       18.6290303535  W2        14623           0.0000000000
     43869     14623  TIP3      H2            -38.1466666405      -35.4381922861       20.0705403535  W2        14623           0.0000000000
     43870     14624  TIP3      OH2           -51.2040566405      -43.3078822861       19.0715503535  W2        14624           0.0000000000
     43871     14624  TIP3      H1            -50.4718166405      -43.0532922861       19.6330003535  W2        14624           0.0000000000
     43872     14624  TIP3      H2            -51.9841866405      -43.1033422861       19.5870903535  W2        14624           0.0000000000
     43873     14625  TIP3      OH2           -45.1747666405      -47.9008822861       11.8095203535  W2        14625           0.0000000000
     43874     14625  TIP3      H1            -44.6104266405      -48.4472222861       11.2624803535  W2        14625           0.0000000000
     43875     14625  TIP3      H2            -45.3224266405      -48.4226922861       12.5982803535  W2        14625           0.0000000000
     43876     14626  TIP3      OH2           -50.1727966405      -51.7642722861        8.2280003535  W2        14626           0.0000000000
     43877     14626  TIP3      H1            -50.4898466405      -52.6667422861        8.1925403535  W2        14626           0.0000000000
     43878     14626  TIP3      H2            -49.3913866405      -51.7625322861        7.6751603535  W2        14626           0.0000000000
     43879     14627  TIP3      OH2           -46.5481766405      -49.5122722861       14.2235603535  W2        14627           0.0000000000
     43880     14627  TIP3      H1            -47.3836466405      -49.0583222861       14.3338003535  W2        14627           0.0000000000
     43881     14627  TIP3      H2            -46.0241166405      -49.2364222861       14.9755503535  W2        14627           0.0000000000
     43882     14628  TIP3      OH2           -46.0039166405      -43.2995022861        5.9082003535  W2        14628           0.0000000000
     43883     14628  TIP3      H1            -46.7488166405      -43.8069722861        5.5859903535  W2        14628           0.0000000000
     43884     14628  TIP3      H2            -46.1381966405      -43.2507022861        6.8546803535  W2        14628           0.0000000000
     43885     14629  TIP3      OH2           -38.8540266405      -44.1666822861       14.6949603535  W2        14629           0.0000000000
     43886     14629  TIP3      H1            -38.2121466405      -43.7100522861       14.1511803535  W2        14629           0.0000000000
     43887     14629  TIP3      H2            -39.6843366405      -44.0534422861       14.2323703535  W2        14629           0.0000000000
     43888     14630  TIP3      OH2           -42.1062366405      -50.4855122861        4.1074603535  W2        14630           0.0000000000
     43889     14630  TIP3      H1            -43.0448166405      -50.3739522861        3.9563403535  W2        14630           0.0000000000
     43890     14630  TIP3      H2            -41.8090266405      -49.6288222861        4.4140303535  W2        14630           0.0000000000
     43891     14631  TIP3      OH2           -44.4847066405      -43.1151722861       17.1451103535  W2        14631           0.0000000000
     43892     14631  TIP3      H1            -44.8300966405      -43.4969322861       17.9520703535  W2        14631           0.0000000000
     43893     14631  TIP3      H2            -44.6846966405      -42.1818122861       17.2164003535  W2        14631           0.0000000000
     43894     14632  TIP3      OH2           -41.3878866405      -48.6182422861        5.7682003535  W2        14632           0.0000000000
     43895     14632  TIP3      H1            -40.4959866405      -48.7557422861        6.0873203535  W2        14632           0.0000000000
     43896     14632  TIP3      H2            -41.3315266405      -47.8276322861        5.2315503535  W2        14632           0.0000000000
     43897     14633  TIP3      OH2           -50.8790866405      -44.0045022861       11.6779903535  W2        14633           0.0000000000
     43898     14633  TIP3      H1            -50.1343666405      -44.0069322861       11.0766403535  W2        14633           0.0000000000
     43899     14633  TIP3      H2            -50.8014266405      -44.8281222861       12.1595003535  W2        14633           0.0000000000
     43900     14634  TIP3      OH2           -43.8785066405      -41.8410722861        4.9336603535  W2        14634           0.0000000000
     43901     14634  TIP3      H1            -44.1736666405      -41.0142822861        5.3151403535  W2        14634           0.0000000000
     43902     14634  TIP3      H2            -44.5815066405      -42.4603822861        5.1298003535  W2        14634           0.0000000000
     43903     14635  TIP3      OH2           -53.8711166405      -45.5438122861       16.9928403535  W2        14635           0.0000000000
     43904     14635  TIP3      H1            -53.6482566405      -45.9618522861       17.8245903535  W2        14635           0.0000000000
     43905     14635  TIP3      H2            -54.4731066405      -46.1563122861       16.5701203535  W2        14635           0.0000000000
     43906     14636  TIP3      OH2           -46.8546266405      -46.0268222861       19.2058103535  W2        14636           0.0000000000
     43907     14636  TIP3      H1            -47.1505466405      -46.1925222861       18.3107203535  W2        14636           0.0000000000
     43908     14636  TIP3      H2            -45.9231066405      -46.2467922861       19.1952003535  W2        14636           0.0000000000
     43909     14637  TIP3      OH2           -42.2343466405      -40.6536222861       17.0956103535  W2        14637           0.0000000000
     43910     14637  TIP3      H1            -43.1349166405      -40.4703622861       16.8280003535  W2        14637           0.0000000000
     43911     14637  TIP3      H2            -42.2002366405      -40.3946922861       18.0164903535  W2        14637           0.0000000000
     43912     14638  TIP3      OH2           -36.5030166405      -48.4088322861        5.4628703535  W2        14638           0.0000000000
     43913     14638  TIP3      H1            -37.0573866405      -48.8050322861        4.7906203535  W2        14638           0.0000000000
     43914     14638  TIP3      H2            -36.4026566405      -47.4983122861        5.1852003535  W2        14638           0.0000000000
     43915     14639  TIP3      OH2           -36.5398166405      -42.6086622861       18.3000203535  W2        14639           0.0000000000
     43916     14639  TIP3      H1            -37.3909666405      -42.3702822861       17.9326603535  W2        14639           0.0000000000
     43917     14639  TIP3      H2            -35.9494766405      -42.6253422861       17.5467303535  W2        14639           0.0000000000
     43918     14640  TIP3      OH2           -38.2078466405      -39.6227922861        5.9280803535  W2        14640           0.0000000000
     43919     14640  TIP3      H1            -38.5807366405      -40.4484122861        6.2371403535  W2        14640           0.0000000000
     43920     14640  TIP3      H2            -37.9304966405      -39.8058522861        5.0304203535  W2        14640           0.0000000000
     43921     14641  TIP3      OH2           -41.0474566405      -44.8148422861       12.9492703535  W2        14641           0.0000000000
     43922     14641  TIP3      H1            -41.9757666405      -45.0466522861       12.9222003535  W2        14641           0.0000000000
     43923     14641  TIP3      H2            -40.5963466405      -45.5918622861       12.6191503535  W2        14641           0.0000000000
     43924     14642  TIP3      OH2           -48.5041466405      -40.4866822861        9.0821403535  W2        14642           0.0000000000
     43925     14642  TIP3      H1            -47.9769266405      -39.7132422861        8.8820203535  W2        14642           0.0000000000
     43926     14642  TIP3      H2            -49.3842966405      -40.2617622861        8.7805403535  W2        14642           0.0000000000
     43927     14643  TIP3      OH2           -52.7493766405      -45.6242722861        3.6693803535  W2        14643           0.0000000000
     43928     14643  TIP3      H1            -52.1333866405      -44.9975522861        4.0488603535  W2        14643           0.0000000000
     43929     14643  TIP3      H2            -53.6111166405      -45.3082922861        3.9410303535  W2        14643           0.0000000000
     43930     14644  TIP3      OH2           -47.0769166405      -42.8236922861        8.6585703535  W2        14644           0.0000000000
     43931     14644  TIP3      H1            -47.3179166405      -41.8982522861        8.7001003535  W2        14644           0.0000000000
     43932     14644  TIP3      H2            -47.8175566405      -43.2825622861        9.0549603535  W2        14644           0.0000000000
     43933     14645  TIP3      OH2           -46.5622566405      -38.6743322861       14.9736803535  W2        14645           0.0000000000
     43934     14645  TIP3      H1            -46.1997866405      -37.8197722861       14.7401203535  W2        14645           0.0000000000
     43935     14645  TIP3      H2            -46.0307366405      -38.9661722861       15.7143103535  W2        14645           0.0000000000
     43936     14646  TIP3      OH2           -48.3938366405      -37.8019322861        8.2037903535  W2        14646           0.0000000000
     43937     14646  TIP3      H1            -49.3437866405      -37.6961922861        8.2551203535  W2        14646           0.0000000000
     43938     14646  TIP3      H2            -48.0420266405      -36.9811922861        8.5485403535  W2        14646           0.0000000000
     43939     14647  TIP3      OH2           -43.0181766405      -42.5752622861       14.6742403535  W2        14647           0.0000000000
     43940     14647  TIP3      H1            -43.4440466405      -42.8030922861       15.5006403535  W2        14647           0.0000000000
     43941     14647  TIP3      H2            -42.4375966405      -43.3140822861       14.4917703535  W2        14647           0.0000000000
     43942     14648  TIP3      OH2           -40.8152866405      -41.6462122861        3.7481403535  W2        14648           0.0000000000
     43943     14648  TIP3      H1            -40.4619766405      -42.0262322861        4.5524903535  W2        14648           0.0000000000
     43944     14648  TIP3      H2            -41.7639366405      -41.7397322861        3.8350703535  W2        14648           0.0000000000
     43945     14649  TIP3      OH2           -40.3597566405      -38.0233122861       17.1437203535  W2        14649           0.0000000000
     43946     14649  TIP3      H1            -40.9614366405      -38.5790222861       16.6483503535  W2        14649           0.0000000000
     43947     14649  TIP3      H2            -40.0783866405      -37.3563322861       16.5174603535  W2        14649           0.0000000000
     43948     14650  TIP3      OH2           -36.3118466405      -37.1669622861        3.9491603535  W2        14650           0.0000000000
     43949     14650  TIP3      H1            -35.5680566405      -36.5809122861        3.8093203535  W2        14650           0.0000000000
     43950     14650  TIP3      H2            -37.0060366405      -36.5983822861        4.2824003535  W2        14650           0.0000000000
     43951     14651  TIP3      OH2           -52.2371666405      -50.7905422861       16.5509803535  W2        14651           0.0000000000
     43952     14651  TIP3      H1            -53.1299366405      -50.4520022861       16.4833803535  W2        14651           0.0000000000
     43953     14651  TIP3      H2            -52.3358866405      -51.6459322861       16.9690603535  W2        14651           0.0000000000
     43954     14652  TIP3      OH2           -39.9493566405      -42.9740122861        5.9749303535  W2        14652           0.0000000000
     43955     14652  TIP3      H1            -40.2265966405      -43.7020822861        6.5310403535  W2        14652           0.0000000000
     43956     14652  TIP3      H2            -39.0220566405      -42.8548122861        6.1801903535  W2        14652           0.0000000000
     43957     14653  TIP3      OH2           -52.5859666405      -38.9861022861       14.9859203535  W2        14653           0.0000000000
     43958     14653  TIP3      H1            -52.3689366405      -39.9178622861       14.9548903535  W2        14653           0.0000000000
     43959     14653  TIP3      H2            -52.3396166405      -38.7116022861       15.8692003535  W2        14653           0.0000000000
     43960     14654  TIP3      OH2           -46.7245066405      -40.5346022861        2.1951403535  W2        14654           0.0000000000
     43961     14654  TIP3      H1            -46.4855266405      -41.2827922861        1.6480303535  W2        14654           0.0000000000
     43962     14654  TIP3      H2            -46.9933766405      -40.9224322861        3.0279203535  W2        14654           0.0000000000
     43963     14655  TIP3      OH2           -47.7874466405      -40.9642222861        4.6514003535  W2        14655           0.0000000000
     43964     14655  TIP3      H1            -47.6406466405      -41.4842422861        5.4414903535  W2        14655           0.0000000000
     43965     14655  TIP3      H2            -47.7902766405      -40.0574622861        4.9579903535  W2        14655           0.0000000000
     43966     14656  TIP3      OH2           -51.3343366405      -43.7118922861        5.1619403535  W2        14656           0.0000000000
     43967     14656  TIP3      H1            -52.0204066405      -43.3596422861        5.7289103535  W2        14656           0.0000000000
     43968     14656  TIP3      H2            -50.8115466405      -42.9489322861        4.9153703535  W2        14656           0.0000000000
     43969     14657  TIP3      OH2           -43.5028266405      -51.0495122861       15.4408403535  W2        14657           0.0000000000
     43970     14657  TIP3      H1            -42.8040366405      -50.9756422861       16.0908103535  W2        14657           0.0000000000
     43971     14657  TIP3      H2            -43.8836866405      -51.9140122861       15.5951303535  W2        14657           0.0000000000
     43972     14658  TIP3      OH2           -42.7183366405      -51.3973422861        6.5380703535  W2        14658           0.0000000000
     43973     14658  TIP3      H1            -42.4985066405      -50.9258022861        5.7346103535  W2        14658           0.0000000000
     43974     14658  TIP3      H2            -42.1599366405      -51.0030822861        7.2081303535  W2        14658           0.0000000000
     43975     14659  TIP3      OH2           -45.0497266405      -39.2668622861        5.4008203535  W2        14659           0.0000000000
     43976     14659  TIP3      H1            -45.8661166405      -38.7698922861        5.4532503535  W2        14659           0.0000000000
     43977     14659  TIP3      H2            -44.5200966405      -38.7915122861        4.7607003535  W2        14659           0.0000000000
     43978     14660  TIP3      OH2           -45.5183466405      -49.6694622861        7.3729103535  W2        14660           0.0000000000
     43979     14660  TIP3      H1            -44.7060866405      -49.1651422861        7.4190803535  W2        14660           0.0000000000
     43980     14660  TIP3      H2            -45.7630466405      -49.8144922861        8.2868703535  W2        14660           0.0000000000
     43981     14661  TIP3      OH2           -44.9827066405      -48.6831922861       16.5575703535  W2        14661           0.0000000000
     43982     14661  TIP3      H1            -44.8636766405      -48.1096522861       17.3146103535  W2        14661           0.0000000000
     43983     14661  TIP3      H2            -44.3272466405      -49.3712522861       16.6723503535  W2        14661           0.0000000000
     43984     14662  TIP3      OH2           -44.6346766405      -52.5881622861        8.3110203535  W2        14662           0.0000000000
     43985     14662  TIP3      H1            -44.9813266405      -51.9711022861        8.9554503535  W2        14662           0.0000000000
     43986     14662  TIP3      H2            -43.9759866405      -52.0875922861        7.8295703535  W2        14662           0.0000000000
     43987     14663  TIP3      OH2           -47.7114166405      -38.2231422861        5.3825103535  W2        14663           0.0000000000
     43988     14663  TIP3      H1            -47.5505466405      -37.4233922861        4.8817703535  W2        14663           0.0000000000
     43989     14663  TIP3      H2            -47.9086366405      -37.9165422861        6.2675703535  W2        14663           0.0000000000
     43990     14664  TIP3      OH2           -48.9769766405      -51.5252222861        4.9982703535  W2        14664           0.0000000000
     43991     14664  TIP3      H1            -49.0604966405      -50.6369122861        5.3449103535  W2        14664           0.0000000000
     43992     14664  TIP3      H2            -48.0869466405      -51.7905522861        5.2299503535  W2        14664           0.0000000000
     43993     14665  TIP3      OH2           -38.7781266405      -50.7761622861       17.3925403535  W2        14665           0.0000000000
     43994     14665  TIP3      H1            -39.6945466405      -50.5139922861       17.3049103535  W2        14665           0.0000000000
     43995     14665  TIP3      H2            -38.4426266405      -50.7792622861       16.4960703535  W2        14665           0.0000000000
     43996     14666  TIP3      OH2           -40.1760266405      -47.0260622861       11.4882703535  W2        14666           0.0000000000
     43997     14666  TIP3      H1            -40.9735866405      -47.4410422861       11.1597703535  W2        14666           0.0000000000
     43998     14666  TIP3      H2            -39.7309166405      -47.7166922861       11.9793203535  W2        14666           0.0000000000
     43999     14667  TIP3      OH2           -50.7184466405      -41.0980022861        4.0587203535  W2        14667           0.0000000000
     44000     14667  TIP3      H1            -50.1262966405      -40.3985222861        4.3349603535  W2        14667           0.0000000000
     44001     14667  TIP3      H2            -50.2591466405      -41.5310522861        3.3391803535  W2        14667           0.0000000000
     44002     14668  TIP3      OH2           -52.4025266405      -48.4337022861        3.1746603535  W2        14668           0.0000000000
     44003     14668  TIP3      H1            -52.4472666405      -47.4943922861        3.3533603535  W2        14668           0.0000000000
     44004     14668  TIP3      H2            -53.2902066405      -48.6692122861        2.9048703535  W2        14668           0.0000000000
     44005     14669  TIP3      OH2           -39.0895666405      -37.7698122861       13.1106203535  W2        14669           0.0000000000
     44006     14669  TIP3      H1            -39.2451366405      -37.0913722861       12.4535503535  W2        14669           0.0000000000
     44007     14669  TIP3      H2            -38.1569266405      -37.6978822861       13.3136803535  W2        14669           0.0000000000
     44008     14670  TIP3      OH2           -51.5943266405      -53.6520422861       11.8477603535  W2        14670           0.0000000000
     44009     14670  TIP3      H1            -51.8233466405      -53.5927922861       10.9202603535  W2        14670           0.0000000000
     44010     14670  TIP3      H2            -52.0369866405      -54.4434922861       12.1541703535  W2        14670           0.0000000000
     44011     14671  TIP3      OH2           -52.6639966405      -39.7113322861        8.0083403535  W2        14671           0.0000000000
     44012     14671  TIP3      H1            -53.4961366405      -39.2390622861        8.0354803535  W2        14671           0.0000000000
     44013     14671  TIP3      H2            -52.1181666405      -39.2015722861        7.4096503535  W2        14671           0.0000000000
     44014     14672  TIP3      OH2           -53.3756266405      -37.0989622861       19.3381403535  W2        14672           0.0000000000
     44015     14672  TIP3      H1            -52.8354066405      -37.3155622861       20.0980603535  W2        14672           0.0000000000
     44016     14672  TIP3      H2            -53.8568266405      -37.9043622861       19.1483903535  W2        14672           0.0000000000
     44017     14673  TIP3      OH2           -48.7782866405      -38.1795222861       20.9585603535  W2        14673           0.0000000000
     44018     14673  TIP3      H1            -48.0105666405      -38.6384422861       21.2994803535  W2        14673           0.0000000000
     44019     14673  TIP3      H2            -48.7996666405      -38.4055422861       20.0286803535  W2        14673           0.0000000000
     44020     14674  TIP3      OH2           -44.6863266405      -38.6714622861        2.3337403535  W2        14674           0.0000000000
     44021     14674  TIP3      H1            -45.3302266405      -39.3026022861        2.6551103535  W2        14674           0.0000000000
     44022     14674  TIP3      H2            -43.9244966405      -39.2026622861        2.1020903535  W2        14674           0.0000000000
     44023     14675  TIP3      OH2           -42.2014166405      -39.7994122861       19.6877103535  W2        14675           0.0000000000
     44024     14675  TIP3      H1            -42.5524666405      -40.6561122861       19.9307503535  W2        14675           0.0000000000
     44025     14675  TIP3      H2            -41.4750966405      -39.6567422861       20.2946103535  W2        14675           0.0000000000
     44026     14676  TIP3      OH2           -40.0820366405      -38.8544722861        2.5675403535  W2        14676           0.0000000000
     44027     14676  TIP3      H1            -39.7989966405      -39.6489522861        3.0202303535  W2        14676           0.0000000000
     44028     14676  TIP3      H2            -39.3422466405      -38.6213722861        2.0066503535  W2        14676           0.0000000000
     44029     14677  TIP3      OH2           -53.4686766405      -43.2885522861       20.2925703535  W2        14677           0.0000000000
     44030     14677  TIP3      H1            -53.3246266405      -44.1904822861       20.0062403535  W2        14677           0.0000000000
     44031     14677  TIP3      H2            -54.2409366405      -43.0023422861       19.8048003535  W2        14677           0.0000000000
     44032     14678  TIP3      OH2           -49.1273066405      -42.9449822861        2.4250303535  W2        14678           0.0000000000
     44033     14678  TIP3      H1            -49.0628966405      -43.7390222861        2.9556703535  W2        14678           0.0000000000
     44034     14678  TIP3      H2            -48.4743866405      -43.0637022861        1.7352303535  W2        14678           0.0000000000
     44035     14679  TIP3      OH2           -46.8130666405      -43.3187422861       19.7252103535  W2        14679           0.0000000000
     44036     14679  TIP3      H1            -47.1416866405      -43.0479322861       18.8679503535  W2        14679           0.0000000000
     44037     14679  TIP3      H2            -46.6612466405      -44.2597622861       19.6377103535  W2        14679           0.0000000000
     44038     14680  TIP3      OH2           -43.7749666405      -41.8978122861        2.1608303535  W2        14680           0.0000000000
     44039     14680  TIP3      H1            -44.0435566405      -41.7176022861        3.0617203535  W2        14680           0.0000000000
     44040     14680  TIP3      H2            -43.9814066405      -42.8231922861        2.0294103535  W2        14680           0.0000000000
     44041     14681  TIP3      OH2           -41.0785466405      -43.4030122861       17.1084403535  W2        14681           0.0000000000
     44042     14681  TIP3      H1            -40.3330666405      -42.8146422861       16.9888403535  W2        14681           0.0000000000
     44043     14681  TIP3      H2            -41.8358666405      -42.8210422861       17.1717503535  W2        14681           0.0000000000
     44044     14682  TIP3      OH2           -52.6360266405      -46.0882222861       19.7125003535  W2        14682           0.0000000000
     44045     14682  TIP3      H1            -52.2279066405      -46.9455622861       19.5915603535  W2        14682           0.0000000000
     44046     14682  TIP3      H2            -52.8962666405      -46.0740922861       20.6335303535  W2        14682           0.0000000000
     44047     14683  TIP3      OH2           -47.9779266405      -44.9723622861        4.7308303535  W2        14683           0.0000000000
     44048     14683  TIP3      H1            -48.4377266405      -45.4565322861        5.4166803535  W2        14683           0.0000000000
     44049     14683  TIP3      H2            -47.7230566405      -45.6408222861        4.0948803535  W2        14683           0.0000000000
     44050     14684  TIP3      OH2           -48.6889966405      -47.0796522861       17.0867903535  W2        14684           0.0000000000
     44051     14684  TIP3      H1            -49.3073866405      -46.4049922861       17.3672603535  W2        14684           0.0000000000
     44052     14684  TIP3      H2            -48.3448766405      -46.7582622861       16.2534103535  W2        14684           0.0000000000
     44053     14685  TIP3      OH2           -46.9068866405      -46.7291822861        2.9931503535  W2        14685           0.0000000000
     44054     14685  TIP3      H1            -47.0873866405      -46.8840622861        2.0659803535  W2        14685           0.0000000000
     44055     14685  TIP3      H2            -45.9568366405      -46.6213122861        3.0379403535  W2        14685           0.0000000000
     44056     14686  TIP3      OH2           -43.6691766405      -44.6081222861       20.3642703535  W2        14686           0.0000000000
     44057     14686  TIP3      H1            -42.7160566405      -44.5242122861       20.3368703535  W2        14686           0.0000000000
     44058     14686  TIP3      H2            -43.8297166405      -45.3199422861       20.9837603535  W2        14686           0.0000000000
     44059     14687  TIP3      OH2           -37.5170566405      -44.3747622861        2.4389603535  W2        14687           0.0000000000
     44060     14687  TIP3      H1            -37.7905766405      -44.7992122861        1.6257903535  W2        14687           0.0000000000
     44061     14687  TIP3      H2            -37.4776466405      -43.4433122861        2.2220003535  W2        14687           0.0000000000
     44062     14688  TIP3      OH2           -48.3496266405      -49.7245722861       18.1691003535  W2        14688           0.0000000000
     44063     14688  TIP3      H1            -48.1995366405      -50.4534422861       17.5670703535  W2        14688           0.0000000000
     44064     14688  TIP3      H2            -48.3473866405      -48.9474022861       17.6103203535  W2        14688           0.0000000000
     44065     14689  TIP3      OH2           -47.9370566405      -51.3549922861       15.6618403535  W2        14689           0.0000000000
     44066     14689  TIP3      H1            -47.4013066405      -50.9033222861       15.0097703535  W2        14689           0.0000000000
     44067     14689  TIP3      H2            -48.7890966405      -51.4630122861       15.2392503535  W2        14689           0.0000000000
     44068     14690  TIP3      OH2           -46.3552166405      -45.9153722861       15.9013603535  W2        14690           0.0000000000
     44069     14690  TIP3      H1            -45.6047366405      -46.0716222861       15.3281403535  W2        14690           0.0000000000
     44070     14690  TIP3      H2            -46.6943866405      -45.0637122861       15.6259103535  W2        14690           0.0000000000
     44071     14691  TIP3      OH2           -41.9395966405      -48.1001922861       20.9298903535  W2        14691           0.0000000000
     44072     14691  TIP3      H1            -41.7474666405      -49.0312522861       20.8183403535  W2        14691           0.0000000000
     44073     14691  TIP3      H2            -41.0819666405      -47.6752422861       20.9194303535  W2        14691           0.0000000000
     44074     14692  TIP3      OH2           -40.6228766405      -45.3116722861       19.0071603535  W2        14692           0.0000000000
     44075     14692  TIP3      H1            -40.9043766405      -44.6022122861       18.4295403535  W2        14692           0.0000000000
     44076     14692  TIP3      H2            -39.6804466405      -45.3843722861       18.8562803535  W2        14692           0.0000000000
     44077     14693  TIP3      OH2           -49.8709966405      -48.5262222861       20.0806603535  W2        14693           0.0000000000
     44078     14693  TIP3      H1            -50.6380966405      -49.0587422861       19.8704203535  W2        14693           0.0000000000
     44079     14693  TIP3      H2            -49.1920966405      -48.8361822861       19.4812903535  W2        14693           0.0000000000
     44080     14694  TIP3      OH2           -47.1315066405      -53.8984222861       16.0932003535  W2        14694           0.0000000000
     44081     14694  TIP3      H1            -47.2295466405      -52.9521022861       15.9878203535  W2        14694           0.0000000000
     44082     14694  TIP3      H2            -47.8738866405      -54.2710422861       15.6175503535  W2        14694           0.0000000000
     44083     14695  TIP3      OH2           -45.8674566405      -49.5768822861       19.6570403535  W2        14695           0.0000000000
     44084     14695  TIP3      H1            -46.1029166405      -49.7962122861       20.5585303535  W2        14695           0.0000000000
     44085     14695  TIP3      H2            -46.6507666405      -49.7837622861       19.1472903535  W2        14695           0.0000000000
     44086     14696  TIP3      OH2           -43.1517966405      -50.4495322861       18.7323903535  W2        14696           0.0000000000
     44087     14696  TIP3      H1            -44.0992566405      -50.4175622861       18.8647203535  W2        14696           0.0000000000
     44088     14696  TIP3      H2            -42.8391266405      -51.0748222861       19.3862103535  W2        14696           0.0000000000
     44089     14697  TIP3      OH2           -41.5176466405      -51.8154222861       20.7375803535  W2        14697           0.0000000000
     44090     14697  TIP3      H1            -41.6144666405      -52.7676922861       20.7317703535  W2        14697           0.0000000000
     44091     14697  TIP3      H2            -41.8393366405      -51.5467422861       21.5981303535  W2        14697           0.0000000000
     44092     14698  TIP3      OH2           -51.6907166405      -50.6058422861       19.7851303535  W2        14698           0.0000000000
     44093     14698  TIP3      H1            -51.4789766405      -51.3122322861       19.1748803535  W2        14698           0.0000000000
     44094     14698  TIP3      H2            -51.8019666405      -51.0432422861       20.6292503535  W2        14698           0.0000000000
     44095     14699  TIP3      OH2           -46.9096966405      -54.6046822861       18.7644803535  W2        14699           0.0000000000
     44096     14699  TIP3      H1            -46.1978566405      -55.2444622861       18.7503903535  W2        14699           0.0000000000
     44097     14699  TIP3      H2            -47.0106566405      -54.3378522861       17.8507903535  W2        14699           0.0000000000
     44098     14700  TIP3      OH2           -46.5559466405      -52.9218422861       20.8181103535  W2        14700           0.0000000000
     44099     14700  TIP3      H1            -46.6877266405      -53.3974622861       19.9979603535  W2        14700           0.0000000000
     44100     14700  TIP3      H2            -47.1552066405      -52.1774822861       20.7628203535  W2        14700           0.0000000000
     44101     14701  TIP3      OH2           -47.0097166405      -36.0388122861        3.9945103535  W2        14701           0.0000000000
     44102     14701  TIP3      H1            -46.0766466405      -35.8809422861        4.1383503535  W2        14701           0.0000000000
     44103     14701  TIP3      H2            -47.2738366405      -35.3635122861        3.3696603535  W2        14701           0.0000000000
     44104     14702  TIP3      OH2           -53.4412266405      -41.4024322861        3.4773203535  W2        14702           0.0000000000
     44105     14702  TIP3      H1            -52.5273066405      -41.3235422861        3.7507103535  W2        14702           0.0000000000
     44106     14702  TIP3      H2            -53.4339166405      -42.0894722861        2.8108803535  W2        14702           0.0000000000
     44107     14703  TIP3      OH2           -54.7921666405      -36.0095822861        8.5547103535  W2        14703           0.0000000000
     44108     14703  TIP3      H1            -55.4394566405      -36.4714122861        8.0218303535  W2        14703           0.0000000000
     44109     14703  TIP3      H2            -54.4377066405      -36.6812522861        9.1373303535  W2        14703           0.0000000000
     44110     14704  TIP3      OH2           -53.9222466405      -37.9288822861       10.3593303535  W2        14704           0.0000000000
     44111     14704  TIP3      H1            -54.2565666405      -38.8091522861       10.5313503535  W2        14704           0.0000000000
     44112     14704  TIP3      H2            -53.7000066405      -37.5833822861       11.2238903535  W2        14704           0.0000000000
     44113     14705  TIP3      OH2           -36.3737666405      -37.1192422861       13.3398103535  W2        14705           0.0000000000
     44114     14705  TIP3      H1            -36.3950966405      -36.9344022861       14.2787503535  W2        14705           0.0000000000
     44115     14705  TIP3      H2            -35.6831466405      -36.5508422861       12.9989503535  W2        14705           0.0000000000
     44116     14706  TIP3      OH2           -36.8104766405      -37.5521322861       16.2617203535  W2        14706           0.0000000000
     44117     14706  TIP3      H1            -37.2976066405      -38.2877222861       15.8904603535  W2        14706           0.0000000000
     44118     14706  TIP3      H2            -36.2612066405      -37.9457422861       16.9396603535  W2        14706           0.0000000000
     44119     14707  TIP3      OH2           -38.3597466405      -41.7623222861       20.8997503535  W2        14707           0.0000000000
     44120     14707  TIP3      H1            -39.2256366405      -41.8673522861       21.2939803535  W2        14707           0.0000000000
     44121     14707  TIP3      H2            -37.9831566405      -41.0039922861       21.3462203535  W2        14707           0.0000000000
     44122     14708  TIP3      OH2           -37.0587766405      -43.5059522861        6.4140003535  W2        14708           0.0000000000
     44123     14708  TIP3      H1            -36.2086366405      -43.0848622861        6.5411603535  W2        14708           0.0000000000
     44124     14708  TIP3      H2            -37.0532666405      -44.2459422861        7.0211403535  W2        14708           0.0000000000
     44125     14709  TIP3      OH2           -36.6642166405      -45.4522122861        8.2375703535  W2        14709           0.0000000000
     44126     14709  TIP3      H1            -37.3907566405      -45.9319522861        8.6353303535  W2        14709           0.0000000000
     44127     14709  TIP3      H2            -36.0828866405      -45.2467422861        8.9697303535  W2        14709           0.0000000000
     44128     14710  TIP3      OH2           -36.9050966405      -42.6674622861       13.1853303535  W2        14710           0.0000000000
     44129     14710  TIP3      H1            -36.0716766405      -43.0454622861       12.9046903535  W2        14710           0.0000000000
     44130     14710  TIP3      H2            -36.7930666405      -41.7243422861       13.0662403535  W2        14710           0.0000000000
     44131     14711  TIP3      OH2           -38.4188666405      -39.7897122861       15.4921703535  W2        14711           0.0000000000
     44132     14711  TIP3      H1            -39.0663366405      -39.4645622861       16.1176903535  W2        14711           0.0000000000
     44133     14711  TIP3      H2            -38.9364666405      -40.2299422861       14.8180003535  W2        14711           0.0000000000
     44134     14712  TIP3      OH2           -36.3959066405      -45.5513622861        4.6287003535  W2        14712           0.0000000000
     44135     14712  TIP3      H1            -36.9177966405      -45.1949522861        3.9097903535  W2        14712           0.0000000000
     44136     14712  TIP3      H2            -36.4289866405      -44.8765822861        5.3067903535  W2        14712           0.0000000000
     44137     14713  TIP3      OH2           -38.0470066405      -48.3118022861        3.1794103535  W2        14713           0.0000000000
     44138     14713  TIP3      H1            -37.9505666405      -47.6451022861        2.4993803535  W2        14713           0.0000000000
     44139     14713  TIP3      H2            -38.1870466405      -49.1271722861        2.6979603535  W2        14713           0.0000000000
     44140     14714  TIP3      OH2           -38.8775366405      -46.9315622861        8.8004403535  W2        14714           0.0000000000
     44141     14714  TIP3      H1            -39.0276566405      -47.8767022861        8.7802203535  W2        14714           0.0000000000
     44142     14714  TIP3      H2            -39.2310866405      -46.6504222861        9.6443503535  W2        14714           0.0000000000
     44143     14715  TIP3      OH2           -53.8422966405      -44.8533422861       12.8108203535  W2        14715           0.0000000000
     44144     14715  TIP3      H1            -53.6580066405      -44.9351722861       11.8751103535  W2        14715           0.0000000000
     44145     14715  TIP3      H2            -52.9930066405      -44.9776422861       13.2344603535  W2        14715           0.0000000000
     44146     14716  TIP3      OH2           -38.0212466405      -44.9612322861       18.4392703535  W2        14716           0.0000000000
     44147     14716  TIP3      H1            -37.4385166405      -45.6960022861       18.6309903535  W2        14716           0.0000000000
     44148     14716  TIP3      H2            -37.4573166405      -44.1892022861       18.4858503535  W2        14716           0.0000000000
     44149     14717  TIP3      OH2           -36.5245366405      -47.0586522861       19.1238103535  W2        14717           0.0000000000
     44150     14717  TIP3      H1            -37.3878666405      -47.4374422861       18.9582803535  W2        14717           0.0000000000
     44151     14717  TIP3      H2            -35.9201666405      -47.7971722861       19.0493903535  W2        14717           0.0000000000
     44152     14718  TIP3      OH2           -38.7996266405      -50.9038222861        2.2969603535  W2        14718           0.0000000000
     44153     14718  TIP3      H1            -38.1890466405      -51.2751422861        2.9337803535  W2        14718           0.0000000000
     44154     14718  TIP3      H2            -39.6364766405      -51.3251322861        2.4929603535  W2        14718           0.0000000000
     44155     14719  TIP3      OH2           -39.1670566405      -49.3489822861        7.2629503535  W2        14719           0.0000000000
     44156     14719  TIP3      H1            -38.8873466405      -50.2559422861        7.3871203535  W2        14719           0.0000000000
     44157     14719  TIP3      H2            -38.4078866405      -48.9148322861        6.8738703535  W2        14719           0.0000000000
     44158     14720  TIP3      OH2           -38.5552266405      -48.7672422861       12.6988403535  W2        14720           0.0000000000
     44159     14720  TIP3      H1            -37.6224266405      -48.5552522861       12.6644403535  W2        14720           0.0000000000
     44160     14720  TIP3      H2            -38.7904766405      -48.6660322861       13.6211403535  W2        14720           0.0000000000
     44161     14721  TIP3      OH2           -38.5260366405      -48.0307122861       15.4747803535  W2        14721           0.0000000000
     44162     14721  TIP3      H1            -39.3689066405      -47.7626722861       15.8407603535  W2        14721           0.0000000000
     44163     14721  TIP3      H2            -38.0836066405      -47.2085222861       15.2638903535  W2        14721           0.0000000000
     44164     14722  TIP3      OH2           -54.2448166405      -49.5828422861       18.9517003535  W2        14722           0.0000000000
     44165     14722  TIP3      H1            -53.3253266405      -49.7050122861       19.1880103535  W2        14722           0.0000000000
     44166     14722  TIP3      H2            -54.6943666405      -50.3328722861       19.3410503535  W2        14722           0.0000000000
     44167     14723  TIP3      OH2           -36.2428766405      -54.0506922861       20.8282803535  W2        14723           0.0000000000
     44168     14723  TIP3      H1            -35.8931766405      -54.7043422861       20.2227503535  W2        14723           0.0000000000
     44169     14723  TIP3      H2            -36.0959266405      -53.2132822861       20.3885403535  W2        14723           0.0000000000
     44170     14724  TIP3      OH2           -38.5535766405      -52.0860522861        7.3111503535  W2        14724           0.0000000000
     44171     14724  TIP3      H1            -38.3710766405      -52.5349022861        8.1366503535  W2        14724           0.0000000000
     44172     14724  TIP3      H2            -39.1532866405      -52.6706122861        6.8476103535  W2        14724           0.0000000000
     44173     14725  TIP3      OH2           -53.0235666405      -51.2706822861       11.8429903535  W2        14725           0.0000000000
     44174     14725  TIP3      H1            -52.5784066405      -52.0624322861       12.1449603535  W2        14725           0.0000000000
     44175     14725  TIP3      H2            -52.5572666405      -50.5541622861       12.2735503535  W2        14725           0.0000000000
     44176     14726  TIP3      OH2           -54.7195366405      -48.2713822861       12.9120103535  W2        14726           0.0000000000
     44177     14726  TIP3      H1            -54.2275566405      -48.4923322861       12.1212103535  W2        14726           0.0000000000
     44178     14726  TIP3      H2            -54.3574466405      -47.4310422861       13.1929603535  W2        14726           0.0000000000
     44179     14727  TIP3      OH2           -36.7231566405      -51.9412322861       19.1774103535  W2        14727           0.0000000000
     44180     14727  TIP3      H1            -37.6405866405      -51.6705222861       19.1417603535  W2        14727           0.0000000000
     44181     14727  TIP3      H2            -36.6002166405      -52.4763922861       18.3933803535  W2        14727           0.0000000000
     44182     14728  TIP3      OH2           -36.6869566405      -52.0182422861        3.8391803535  W2        14728           0.0000000000
     44183     14728  TIP3      H1            -36.2746966405      -52.7396722861        3.3639803535  W2        14728           0.0000000000
     44184     14728  TIP3      H2            -36.0053066405      -51.3487822861        3.8976103535  W2        14728           0.0000000000
     44185     14729  TIP3      OH2           -54.4058866405      -52.0134722861        6.9662503535  W2        14729           0.0000000000
     44186     14729  TIP3      H1            -55.3310466405      -51.8048122861        6.8368003535  W2        14729           0.0000000000
     44187     14729  TIP3      H2            -53.9518966405      -51.5293922861        6.2764803535  W2        14729           0.0000000000
     44188     14730  TIP3      OH2           -39.6351666405      -37.0293022861        8.9119903535  W2        14730           0.0000000000
     44189     14730  TIP3      H1            -38.9828766405      -37.3770922861        8.3039003535  W2        14730           0.0000000000
     44190     14730  TIP3      H2            -39.1247866405      -36.5409822861        9.5579603535  W2        14730           0.0000000000
     44191     14731  TIP3      OH2           -54.4423466405      -53.2755722861       15.3105003535  W2        14731           0.0000000000
     44192     14731  TIP3      H1            -55.1072966405      -53.5215422861       15.9535903535  W2        14731           0.0000000000
     44193     14731  TIP3      H2            -54.8852166405      -52.6535322861       14.7333003535  W2        14731           0.0000000000
     44194     14732  TIP3      OH2           -52.2504166405      -40.1001622861       19.4550803535  W2        14732           0.0000000000
     44195     14732  TIP3      H1            -53.0711666405      -39.9255122861       18.9945503535  W2        14732           0.0000000000
     44196     14732  TIP3      H2            -52.5026366405      -40.1736922861       20.3755203535  W2        14732           0.0000000000
     44197     14733  TIP3      OH2           -49.2961266405      -39.1260422861       15.7134803535  W2        14733           0.0000000000
     44198     14733  TIP3      H1            -49.7210166405      -38.3161922861       15.4309403535  W2        14733           0.0000000000
     44199     14733  TIP3      H2            -48.3918466405      -39.0406322861       15.4114603535  W2        14733           0.0000000000
     44200     14734  TIP3      OH2           -44.9849866405      -37.7270422861       18.6728503535  W2        14734           0.0000000000
     44201     14734  TIP3      H1            -44.8002366405      -38.0604322861       19.5508803535  W2        14734           0.0000000000
     44202     14734  TIP3      H2            -44.1385366405      -37.4171822861       18.3507703535  W2        14734           0.0000000000
     44203     14735  TIP3      OH2           -42.6399466405      -36.4411522861       17.9169903535  W2        14735           0.0000000000
     44204     14735  TIP3      H1            -41.9630566405      -37.0739222861       17.6769103535  W2        14735           0.0000000000
     44205     14735  TIP3      H2            -42.3180666405      -36.0401022861       18.7243203535  W2        14735           0.0000000000
     44206     14736  TIP3      OH2           -37.7225666405      -53.8516022861       16.9964903535  W2        14736           0.0000000000
     44207     14736  TIP3      H1            -38.5352166405      -53.5265722861       16.6089603535  W2        14736           0.0000000000
     44208     14736  TIP3      H2            -37.4897166405      -54.6117522861       16.4634003535  W2        14736           0.0000000000
     44209     14737  TIP3      OH2           -51.8944566405      -35.8696522861       15.7610103535  W2        14737           0.0000000000
     44210     14737  TIP3      H1            -52.6148166405      -35.4295522861       15.3097803535  W2        14737           0.0000000000
     44211     14737  TIP3      H2            -52.2600566405      -36.1201822861       16.6094103535  W2        14737           0.0000000000
     44212     14738  TIP3      OH2           -49.4271966405      -36.2692622861       14.7907303535  W2        14738           0.0000000000
     44213     14738  TIP3      H1            -50.2919766405      -36.1974122861       15.1947403535  W2        14738           0.0000000000
     44214     14738  TIP3      H2            -49.4822966405      -35.7225322861       14.0069803535  W2        14738           0.0000000000
     44215     14739  TIP3      OH2           -44.7166366405      -36.3813722861       13.9663303535  W2        14739           0.0000000000
     44216     14739  TIP3      H1            -45.1732366405      -35.8524022861       13.3121703535  W2        14739           0.0000000000
     44217     14739  TIP3      H2            -44.5538366405      -35.7782322861       14.6915603535  W2        14739           0.0000000000
     44218     14740  TIP3      OH2           -42.3890066405      -37.5034122861       14.9113603535  W2        14740           0.0000000000
     44219     14740  TIP3      H1            -43.2936366405      -37.3383922861       14.6455703535  W2        14740           0.0000000000
     44220     14740  TIP3      H2            -41.9601466405      -36.6501922861       14.8457003535  W2        14740           0.0000000000
     44221     14741  TIP3      OH2           -39.7848166405      -35.9335022861       15.2061403535  W2        14741           0.0000000000
     44222     14741  TIP3      H1            -39.9666166405      -35.0176122861       14.9956303535  W2        14741           0.0000000000
     44223     14741  TIP3      H2            -39.6080366405      -36.3437922861       14.3596003535  W2        14741           0.0000000000
     44224     14742  TIP3      OH2           -52.4796466405      -37.2464022861       12.6711903535  W2        14742           0.0000000000
     44225     14742  TIP3      H1            -52.4980466405      -37.6718922861       13.5284203535  W2        14742           0.0000000000
     44226     14742  TIP3      H2            -51.6748566405      -37.5649022861       12.2624103535  W2        14742           0.0000000000
     44227     14743  TIP3      OH2           -50.3383366405      -38.5365322861       11.3261803535  W2        14743           0.0000000000
     44228     14743  TIP3      H1            -50.5572666405      -39.4527922861       11.4957803535  W2        14743           0.0000000000
     44229     14743  TIP3      H2            -49.5141166405      -38.3964922861       11.7923203535  W2        14743           0.0000000000
     44230     14744  TIP3      OH2           -47.8010866405      -38.0666022861       12.1749803535  W2        14744           0.0000000000
     44231     14744  TIP3      H1            -47.5885166405      -38.9547022861       11.8880703535  W2        14744           0.0000000000
     44232     14744  TIP3      H2            -47.7365766405      -38.1008322861       13.1293803535  W2        14744           0.0000000000
     44233     14745  TIP3      OH2           -44.2927166405      -52.4025422861       11.3193103535  W2        14745           0.0000000000
     44234     14745  TIP3      H1            -44.9670366405      -53.0319822861       11.5748903535  W2        14745           0.0000000000
     44235     14745  TIP3      H2            -43.7287966405      -52.8866522861       10.7161003535  W2        14745           0.0000000000
     44236     14746  TIP3      OH2           -39.1499966405      -54.2951422861       11.4320203535  W2        14746           0.0000000000
     44237     14746  TIP3      H1            -38.5462366405      -53.7476022861       10.9301203535  W2        14746           0.0000000000
     44238     14746  TIP3      H2            -40.0197966405      -53.9761022861       11.1914303535  W2        14746           0.0000000000
     44239     14747  TIP3      OH2           -37.4229566405      -53.1562722861        9.7651103535  W2        14747           0.0000000000
     44240     14747  TIP3      H1            -36.8112066405      -53.6707022861        9.2384703535  W2        14747           0.0000000000
     44241     14747  TIP3      H2            -37.0406166405      -52.2790622861        9.7885503535  W2        14747           0.0000000000
     44242     14748  TIP3      OH2           -51.9659666405      -53.7685122861        9.1413003535  W2        14748           0.0000000000
     44243     14748  TIP3      H1            -52.7429866405      -54.0030222861        8.6338903535  W2        14748           0.0000000000
     44244     14748  TIP3      H2            -51.4356066405      -54.5653022861        9.1501003535  W2        14748           0.0000000000
     44245     14749  TIP3      OH2           -53.1296266405      -53.9707022861        4.9449103535  W2        14749           0.0000000000
     44246     14749  TIP3      H1            -52.6905566405      -53.3596522861        4.3532603535  W2        14749           0.0000000000
     44247     14749  TIP3      H2            -53.7633866405      -53.4322922861        5.4189103535  W2        14749           0.0000000000
     44248     14750  TIP3      OH2           -47.3867066405      -53.8418022861        8.9546103535  W2        14750           0.0000000000
     44249     14750  TIP3      H1            -46.5123666405      -53.4533722861        8.9250403535  W2        14750           0.0000000000
     44250     14750  TIP3      H2            -47.5226266405      -54.0570222861        9.8773303535  W2        14750           0.0000000000
     44251     14751  TIP3      OH2           -41.8298666405      -53.8118222861       10.6037803535  W2        14751           0.0000000000
     44252     14751  TIP3      H1            -41.7537066405      -53.7166622861        9.6543803535  W2        14751           0.0000000000
     44253     14751  TIP3      H2            -42.1049466405      -54.7195322861       10.7326903535  W2        14751           0.0000000000
     44254     14752  TIP3      OH2           -40.4766066405      -53.7860422861        6.2962803535  W2        14752           0.0000000000
     44255     14752  TIP3      H1            -41.1794966405      -53.1711222861        6.0864203535  W2        14752           0.0000000000
     44256     14752  TIP3      H2            -40.9214666405      -54.6233722861        6.4273703535  W2        14752           0.0000000000
     44257     14753  TIP3      OH2           -53.2286766405      -38.0224822861        5.8424203535  W2        14753           0.0000000000
     44258     14753  TIP3      H1            -53.9136866405      -38.0605922861        5.1749303535  W2        14753           0.0000000000
     44259     14753  TIP3      H2            -53.2249566405      -37.1097222861        6.1306303535  W2        14753           0.0000000000
     44260     14754  TIP3      OH2           -51.2687166405      -52.0545522861        3.3873203535  W2        14754           0.0000000000
     44261     14754  TIP3      H1            -50.7773766405      -52.6843122861        2.8598703535  W2        14754           0.0000000000
     44262     14754  TIP3      H2            -50.6450866405      -51.7586122861        4.0504403535  W2        14754           0.0000000000
     44263     14755  TIP3      OH2           -46.2427066405      -51.7614022861        5.8443703535  W2        14755           0.0000000000
     44264     14755  TIP3      H1            -46.0645766405      -52.4080822861        6.5272303535  W2        14755           0.0000000000
     44265     14755  TIP3      H2            -46.2960866405      -50.9276322861        6.3114803535  W2        14755           0.0000000000
     44266     14756  TIP3      OH2           -44.3643266405      -36.8129922861        4.2400403535  W2        14756           0.0000000000
     44267     14756  TIP3      H1            -43.4983066405      -36.4462522861        4.0618603535  W2        14756           0.0000000000
     44268     14756  TIP3      H2            -44.6110466405      -37.2521922861        3.4261203535  W2        14756           0.0000000000
     44269     14757  TIP3      OH2           -37.6553666405      -37.2499622861        6.9191503535  W2        14757           0.0000000000
     44270     14757  TIP3      H1            -37.8496566405      -37.9977522861        6.3541103535  W2        14757           0.0000000000
     44271     14757  TIP3      H2            -37.6943566405      -36.4919522861        6.3359403535  W2        14757           0.0000000000
     44272     14758  TIP3      OH2           -52.0081666405      -53.2543222861       18.6589203535  W2        14758           0.0000000000
     44273     14758  TIP3      H1            -52.3743466405      -54.0200622861       19.1013903535  W2        14758           0.0000000000
     44274     14758  TIP3      H2            -51.0953166405      -53.2253022861       18.9454303535  W2        14758           0.0000000000
     44275     14759  TIP3      OH2           -50.0350866405      -53.9038822861       20.1946303535  W2        14759           0.0000000000
     44276     14759  TIP3      H1            -49.1367266405      -54.1778622861       20.0099703535  W2        14759           0.0000000000
     44277     14759  TIP3      H2            -50.4217766405      -54.6462822861       20.6588903535  W2        14759           0.0000000000
     44278     14760  TIP3      OH2           -51.4105566405      -37.1024022861        2.8676303535  W2        14760           0.0000000000
     44279     14760  TIP3      H1            -51.6780966405      -36.8161122861        3.7409403535  W2        14760           0.0000000000
     44280     14760  TIP3      H2            -50.6392966405      -37.6484822861        3.0198803535  W2        14760           0.0000000000
     44281     14761  TIP3      OH2           -41.6138566405      -54.5713522861       20.3769103535  W2        14761           0.0000000000
     44282     14761  TIP3      H1            -41.5371366405      -54.9972822861       21.2306803535  W2        14761           0.0000000000
     44283     14761  TIP3      H2            -40.7201966405      -54.5578822861       20.0342603535  W2        14761           0.0000000000
     44284     14762  TIP3      OH2           -38.4377466405      -38.4987222861       19.0693303535  W2        14762           0.0000000000
     44285     14762  TIP3      H1            -39.2195566405      -38.6849222861       18.5493903535  W2        14762           0.0000000000
     44286     14762  TIP3      H2            -38.5097566405      -37.5692922861       19.2865803535  W2        14762           0.0000000000
     44287     14763  TIP3      OH2           -24.0317066405      -44.6122822861        9.1000503535  W2        14763           0.0000000000
     44288     14763  TIP3      H1            -23.9425966405      -43.6684622861        8.9677603535  W2        14763           0.0000000000
     44289     14763  TIP3      H2            -24.6699466405      -44.8876422861        8.4419903535  W2        14763           0.0000000000
     44290     14764  TIP3      OH2           -25.0985766405      -45.3572122861       12.5188703535  W2        14764           0.0000000000
     44291     14764  TIP3      H1            -25.1368266405      -46.0035822861       13.2238303535  W2        14764           0.0000000000
     44292     14764  TIP3      H2            -25.4209266405      -45.8237722861       11.7477403535  W2        14764           0.0000000000
     44293     14765  TIP3      OH2           -32.7300766405      -45.7430022861       14.1118603535  W2        14765           0.0000000000
     44294     14765  TIP3      H1            -32.6888666405      -46.3686722861       14.8351003535  W2        14765           0.0000000000
     44295     14765  TIP3      H2            -32.0273066405      -45.1191422861       14.2939003535  W2        14765           0.0000000000
     44296     14766  TIP3      OH2           -21.3925566405      -42.4181722861       10.8203803535  W2        14766           0.0000000000
     44297     14766  TIP3      H1            -21.8332866405      -43.1385722861       11.2709403535  W2        14766           0.0000000000
     44298     14766  TIP3      H2            -21.4055866405      -41.6974522861       11.4501503535  W2        14766           0.0000000000
     44299     14767  TIP3      OH2           -31.8067666405      -41.2931122861       12.6467703535  W2        14767           0.0000000000
     44300     14767  TIP3      H1            -32.1762466405      -42.0950622861       12.2772003535  W2        14767           0.0000000000
     44301     14767  TIP3      H2            -30.8656566405      -41.4616222861       12.6931103535  W2        14767           0.0000000000
     44302     14768  TIP3      OH2           -35.1967166405      -47.6328522861        8.0396503535  W2        14768           0.0000000000
     44303     14768  TIP3      H1            -35.6443766405      -46.7869822861        8.0213003535  W2        14768           0.0000000000
     44304     14768  TIP3      H2            -35.7575966405      -48.2124322861        7.5241603535  W2        14768           0.0000000000
     44305     14769  TIP3      OH2           -34.4861066405      -45.4708922861       10.1654503535  W2        14769           0.0000000000
     44306     14769  TIP3      H1            -34.2727566405      -46.2407322861       10.6927503535  W2        14769           0.0000000000
     44307     14769  TIP3      H2            -33.7483466405      -45.3812222861        9.5622103535  W2        14769           0.0000000000
     44308     14770  TIP3      OH2           -24.2810066405      -37.3140022861       11.0324203535  W2        14770           0.0000000000
     44309     14770  TIP3      H1            -23.6613666405      -37.9905322861       10.7593403535  W2        14770           0.0000000000
     44310     14770  TIP3      H2            -24.4892666405      -37.5319222861       11.9409103535  W2        14770           0.0000000000
     44311     14771  TIP3      OH2           -26.7091366405      -42.9250722861       12.9249703535  W2        14771           0.0000000000
     44312     14771  TIP3      H1            -26.4053466405      -43.6109322861       12.3303803535  W2        14771           0.0000000000
     44313     14771  TIP3      H2            -25.9877366405      -42.8062022861       13.5427703535  W2        14771           0.0000000000
     44314     14772  TIP3      OH2           -18.0461566405      -51.3235422861       13.7855903535  W2        14772           0.0000000000
     44315     14772  TIP3      H1            -17.9969366405      -50.7134222861       14.5215003535  W2        14772           0.0000000000
     44316     14772  TIP3      H2            -17.6206466405      -50.8624522861       13.0627003535  W2        14772           0.0000000000
     44317     14773  TIP3      OH2           -23.5684366405      -48.5308322861       13.2524503535  W2        14773           0.0000000000
     44318     14773  TIP3      H1            -23.4258466405      -49.4771322861       13.2726103535  W2        14773           0.0000000000
     44319     14773  TIP3      H2            -23.6745366405      -48.3238522861       12.3239403535  W2        14773           0.0000000000
     44320     14774  TIP3      OH2           -30.4136066405      -50.4291922861       10.5249303535  W2        14774           0.0000000000
     44321     14774  TIP3      H1            -30.3704966405      -49.5693422861       10.1065603535  W2        14774           0.0000000000
     44322     14774  TIP3      H2            -30.8711966405      -50.9817222861        9.8912503535  W2        14774           0.0000000000
     44323     14775  TIP3      OH2           -22.6913366405      -50.2986322861        8.9257603535  W2        14775           0.0000000000
     44324     14775  TIP3      H1            -22.0449066405      -50.6273122861        9.5505203535  W2        14775           0.0000000000
     44325     14775  TIP3      H2            -22.1813966405      -49.7807322861        8.3029003535  W2        14775           0.0000000000
     44326     14776  TIP3      OH2           -33.7934566405      -48.0326122861       11.2870703535  W2        14776           0.0000000000
     44327     14776  TIP3      H1            -33.1397966405      -48.5824422861       11.7190803535  W2        14776           0.0000000000
     44328     14776  TIP3      H2            -33.7695266405      -48.3067122861       10.3702703535  W2        14776           0.0000000000
     44329     14777  TIP3      OH2           -28.6370066405      -46.4824822861       10.5022203535  W2        14777           0.0000000000
     44330     14777  TIP3      H1            -28.0209066405      -47.0089422861       11.0116203535  W2        14777           0.0000000000
     44331     14777  TIP3      H2            -29.2231266405      -47.1226122861       10.0985803535  W2        14777           0.0000000000
     44332     14778  TIP3      OH2           -17.6546966405      -49.8456222861       16.0215703535  W2        14778           0.0000000000
     44333     14778  TIP3      H1            -18.3432366405      -49.1875522861       15.9262303535  W2        14778           0.0000000000
     44334     14778  TIP3      H2            -17.6392366405      -50.0428322861       16.9581103535  W2        14778           0.0000000000
     44335     14779  TIP3      OH2           -31.6034166405      -51.5113522861       14.5990103535  W2        14779           0.0000000000
     44336     14779  TIP3      H1            -31.8222466405      -50.9812922861       13.8326103535  W2        14779           0.0000000000
     44337     14779  TIP3      H2            -32.2713266405      -51.2848022861       15.2461503535  W2        14779           0.0000000000
     44338     14780  TIP3      OH2           -24.2344366405      -42.0112422861        8.1429203535  W2        14780           0.0000000000
     44339     14780  TIP3      H1            -24.5299266405      -42.3340122861        7.2916103535  W2        14780           0.0000000000
     44340     14780  TIP3      H2            -24.5586566405      -41.1115722861        8.1841803535  W2        14780           0.0000000000
     44341     14781  TIP3      OH2           -29.0342766405      -43.8357822861       14.8863803535  W2        14781           0.0000000000
     44342     14781  TIP3      H1            -29.7743666405      -43.2376322861       14.9899003535  W2        14781           0.0000000000
     44343     14781  TIP3      H2            -28.3203266405      -43.2818222861       14.5707403535  W2        14781           0.0000000000
     44344     14782  TIP3      OH2           -20.9274966405      -51.0077022861       10.9063503535  W2        14782           0.0000000000
     44345     14782  TIP3      H1            -21.1426966405      -51.7733622861       11.4389503535  W2        14782           0.0000000000
     44346     14782  TIP3      H2            -20.2717566405      -50.5352422861       11.4192003535  W2        14782           0.0000000000
     44347     14783  TIP3      OH2           -32.0096866405      -49.6191722861       12.5512303535  W2        14783           0.0000000000
     44348     14783  TIP3      H1            -31.3960566405      -48.9864122861       12.9244703535  W2        14783           0.0000000000
     44349     14783  TIP3      H2            -31.4976166405      -50.0916722861       11.8949203535  W2        14783           0.0000000000
     44350     14784  TIP3      OH2           -30.6268466405      -41.8714822861       15.6735303535  W2        14784           0.0000000000
     44351     14784  TIP3      H1            -30.6320866405      -40.9921322861       15.2954603535  W2        14784           0.0000000000
     44352     14784  TIP3      H2            -31.4804366405      -41.9550722861       16.0985203535  W2        14784           0.0000000000
     44353     14785  TIP3      OH2           -34.5057566405      -42.2006922861        6.4554603535  W2        14785           0.0000000000
     44354     14785  TIP3      H1            -34.7776666405      -41.9715922861        5.5667503535  W2        14785           0.0000000000
     44355     14785  TIP3      H2            -34.4601866405      -41.3628122861        6.9159903535  W2        14785           0.0000000000
     44356     14786  TIP3      OH2           -20.8807866405      -40.5791022861       13.1683103535  W2        14786           0.0000000000
     44357     14786  TIP3      H1            -21.8224166405      -40.5207122861       13.3300003535  W2        14786           0.0000000000
     44358     14786  TIP3      H2            -20.6041766405      -39.6730522861       13.0312803535  W2        14786           0.0000000000
     44359     14787  TIP3      OH2           -20.5800866405      -52.2925722861       14.5857003535  W2        14787           0.0000000000
     44360     14787  TIP3      H1            -21.3161666405      -51.6818622861       14.5478303535  W2        14787           0.0000000000
     44361     14787  TIP3      H2            -19.8966866405      -51.8776722861       14.0593403535  W2        14787           0.0000000000
     44362     14788  TIP3      OH2           -27.5769466405      -54.2058422861       12.0515003535  W2        14788           0.0000000000
     44363     14788  TIP3      H1            -27.6945266405      -55.1542422861       11.9973303535  W2        14788           0.0000000000
     44364     14788  TIP3      H2            -28.4319366405      -53.8732322861       12.3246103535  W2        14788           0.0000000000
     44365     14789  TIP3      OH2           -22.6286666405      -38.7977522861        9.7934703535  W2        14789           0.0000000000
     44366     14789  TIP3      H1            -22.2034366405      -39.5049622861        9.3084303535  W2        14789           0.0000000000
     44367     14789  TIP3      H2            -22.3116666405      -37.9964822861        9.3766903535  W2        14789           0.0000000000
     44368     14790  TIP3      OH2           -21.4690166405      -40.8969022861        8.3021303535  W2        14790           0.0000000000
     44369     14790  TIP3      H1            -21.7265366405      -41.5868922861        7.6907203535  W2        14790           0.0000000000
     44370     14790  TIP3      H2            -21.3979366405      -41.3397822861        9.1477203535  W2        14790           0.0000000000
     44371     14791  TIP3      OH2           -19.7829966405      -42.3302322861       16.7794803535  W2        14791           0.0000000000
     44372     14791  TIP3      H1            -19.6433666405      -42.9219822861       16.0401803535  W2        14791           0.0000000000
     44373     14791  TIP3      H2            -19.6157166405      -41.4576422861       16.4233603535  W2        14791           0.0000000000
     44374     14792  TIP3      OH2           -25.3104566405      -45.3682822861        6.5520803535  W2        14792           0.0000000000
     44375     14792  TIP3      H1            -26.0219066405      -44.8333122861        6.2001303535  W2        14792           0.0000000000
     44376     14792  TIP3      H2            -24.6194966405      -45.3130722861        5.8919703535  W2        14792           0.0000000000
     44377     14793  TIP3      OH2           -25.2565366405      -46.9108522861        3.5905803535  W2        14793           0.0000000000
     44378     14793  TIP3      H1            -24.5555466405      -46.8881622861        4.2419803535  W2        14793           0.0000000000
     44379     14793  TIP3      H2            -24.9542466405      -47.5388822861        2.9345103535  W2        14793           0.0000000000
     44380     14794  TIP3      OH2           -17.9410666405      -45.9904322861       14.8455203535  W2        14794           0.0000000000
     44381     14794  TIP3      H1            -18.5936566405      -45.2958722861       14.9346103535  W2        14794           0.0000000000
     44382     14794  TIP3      H2            -17.4760366405      -45.7803422861       14.0356803535  W2        14794           0.0000000000
     44383     14795  TIP3      OH2           -21.9046866405      -45.1589522861        7.5036703535  W2        14795           0.0000000000
     44384     14795  TIP3      H1            -22.6365866405      -44.9305822861        8.0767303535  W2        14795           0.0000000000
     44385     14795  TIP3      H2            -21.4574666405      -45.8726822861        7.9584203535  W2        14795           0.0000000000
     44386     14796  TIP3      OH2           -22.0073366405      -46.9846922861       16.5713703535  W2        14796           0.0000000000
     44387     14796  TIP3      H1            -21.9274266405      -46.2212522861       17.1432203535  W2        14796           0.0000000000
     44388     14796  TIP3      H2            -22.6085666405      -46.7054522861       15.8808803535  W2        14796           0.0000000000
     44389     14797  TIP3      OH2           -30.2593166405      -44.5283322861        9.3861703535  W2        14797           0.0000000000
     44390     14797  TIP3      H1            -30.5897966405      -44.8989922861        8.5678703535  W2        14797           0.0000000000
     44391     14797  TIP3      H2            -29.6709066405      -45.1989322861        9.7330003535  W2        14797           0.0000000000
     44392     14798  TIP3      OH2           -28.8925666405      -41.1002722861       12.0673903535  W2        14798           0.0000000000
     44393     14798  TIP3      H1            -28.9874366405      -41.6789622861       11.3108503535  W2        14798           0.0000000000
     44394     14798  TIP3      H2            -28.1632066405      -41.4717022861       12.5636703535  W2        14798           0.0000000000
     44395     14799  TIP3      OH2           -29.8927666405      -45.7597722861       13.0196703535  W2        14799           0.0000000000
     44396     14799  TIP3      H1            -29.3275166405      -45.6383522861       12.2567903535  W2        14799           0.0000000000
     44397     14799  TIP3      H2            -29.5738766405      -45.1222722861       13.6585203535  W2        14799           0.0000000000
     44398     14800  TIP3      OH2           -23.5835466405      -40.2565822861       13.7537203535  W2        14800           0.0000000000
     44399     14800  TIP3      H1            -23.8238866405      -39.5942722861       14.4016403535  W2        14800           0.0000000000
     44400     14800  TIP3      H2            -23.7817266405      -41.0910622861       14.1786803535  W2        14800           0.0000000000
     44401     14801  TIP3      OH2           -29.0126966405      -41.3605022861       17.7368603535  W2        14801           0.0000000000
     44402     14801  TIP3      H1            -29.3239466405      -40.5781822861       18.1921803535  W2        14801           0.0000000000
     44403     14801  TIP3      H2            -29.6626766405      -41.5135922861       17.0510603535  W2        14801           0.0000000000
     44404     14802  TIP3      OH2           -23.0337366405      -45.9966622861        5.1887903535  W2        14802           0.0000000000
     44405     14802  TIP3      H1            -22.4541866405      -45.8466322861        5.9356803535  W2        14802           0.0000000000
     44406     14802  TIP3      H2            -22.6197366405      -45.5259222861        4.4654303535  W2        14802           0.0000000000
     44407     14803  TIP3      OH2           -32.0927066405      -45.1623922861       16.9654303535  W2        14803           0.0000000000
     44408     14803  TIP3      H1            -32.0223866405      -44.5117122861       17.6639303535  W2        14803           0.0000000000
     44409     14803  TIP3      H2            -32.9834866405      -45.0596422861       16.6305203535  W2        14803           0.0000000000
     44410     14804  TIP3      OH2           -25.3072466405      -39.2598122861        8.6241003535  W2        14804           0.0000000000
     44411     14804  TIP3      H1            -24.8334866405      -38.9641822861        9.4015203535  W2        14804           0.0000000000
     44412     14804  TIP3      H2            -25.8703166405      -38.5216522861        8.3910603535  W2        14804           0.0000000000
     44413     14805  TIP3      OH2           -30.7731066405      -39.2890022861       18.5002403535  W2        14805           0.0000000000
     44414     14805  TIP3      H1            -30.7655766405      -39.4250322861       17.5527903535  W2        14805           0.0000000000
     44415     14805  TIP3      H2            -31.6890666405      -39.4061922861       18.7522403535  W2        14805           0.0000000000
     44416     14806  TIP3      OH2           -19.3348966405      -54.2466222861        5.0017603535  W2        14806           0.0000000000
     44417     14806  TIP3      H1            -20.2348266405      -54.1077222861        5.2968203535  W2        14806           0.0000000000
     44418     14806  TIP3      H2            -19.0830566405      -53.4151622861        4.5999303535  W2        14806           0.0000000000
     44419     14807  TIP3      OH2           -31.2690466405      -45.4589022861        6.9754503535  W2        14807           0.0000000000
     44420     14807  TIP3      H1            -31.5609166405      -44.6907322861        6.4845803535  W2        14807           0.0000000000
     44421     14807  TIP3      H2            -31.9435266405      -46.1182822861        6.8125903535  W2        14807           0.0000000000
     44422     14808  TIP3      OH2           -18.1457566405      -39.8803822861        3.3781503535  W2        14808           0.0000000000
     44423     14808  TIP3      H1            -18.0724066405      -38.9413622861        3.5486803535  W2        14808           0.0000000000
     44424     14808  TIP3      H2            -17.2402466405      -40.1855222861        3.3218803535  W2        14808           0.0000000000
     44425     14809  TIP3      OH2           -35.1760366405      -43.0959822861       15.7904303535  W2        14809           0.0000000000
     44426     14809  TIP3      H1            -35.6771966405      -43.1240422861       14.9754003535  W2        14809           0.0000000000
     44427     14809  TIP3      H2            -35.1706666405      -44.0016622861       16.1001603535  W2        14809           0.0000000000
     44428     14810  TIP3      OH2           -35.4257666405      -40.3156022861       12.6744503535  W2        14810           0.0000000000
     44429     14810  TIP3      H1            -34.4797066405      -40.4599022861       12.6554003535  W2        14810           0.0000000000
     44430     14810  TIP3      H2            -35.5381366405      -39.5313222861       13.2115703535  W2        14810           0.0000000000
     44431     14811  TIP3      OH2           -17.2279166405      -39.6496322861       18.3568203535  W2        14811           0.0000000000
     44432     14811  TIP3      H1            -17.2772366405      -40.6048222861       18.3195803535  W2        14811           0.0000000000
     44433     14811  TIP3      H2            -18.0546866405      -39.3821022861       18.7582003535  W2        14811           0.0000000000
     44434     14812  TIP3      OH2           -26.2495166405      -40.0757122861       17.2329603535  W2        14812           0.0000000000
     44435     14812  TIP3      H1            -26.1620566405      -39.2492522861       17.7078703535  W2        14812           0.0000000000
     44436     14812  TIP3      H2            -27.1130066405      -40.4053322861       17.4818903535  W2        14812           0.0000000000
     44437     14813  TIP3      OH2           -25.8349366405      -36.3033422861        7.0390203535  W2        14813           0.0000000000
     44438     14813  TIP3      H1            -25.9103366405      -36.4246222861        6.0925403535  W2        14813           0.0000000000
     44439     14813  TIP3      H2            -25.8020666405      -35.3540722861        7.1574803535  W2        14813           0.0000000000
     44440     14814  TIP3      OH2           -32.1815566405      -37.5146422861        8.8199203535  W2        14814           0.0000000000
     44441     14814  TIP3      H1            -32.0295166405      -37.8626022861        9.6985703535  W2        14814           0.0000000000
     44442     14814  TIP3      H2            -33.0325166405      -37.8709122861        8.5646403535  W2        14814           0.0000000000
     44443     14815  TIP3      OH2           -22.7333366405      -37.1493222861        4.0412603535  W2        14815           0.0000000000
     44444     14815  TIP3      H1            -22.3584966405      -37.8937122861        3.5705203535  W2        14815           0.0000000000
     44445     14815  TIP3      H2            -22.7289666405      -37.4192622861        4.9595903535  W2        14815           0.0000000000
     44446     14816  TIP3      OH2           -23.0645266405      -37.2236122861        6.7904803535  W2        14816           0.0000000000
     44447     14816  TIP3      H1            -23.9995466405      -37.1234222861        6.9691803535  W2        14816           0.0000000000
     44448     14816  TIP3      H2            -22.7843366405      -37.9330122861        7.3688003535  W2        14816           0.0000000000
     44449     14817  TIP3      OH2           -20.0759366405      -48.1563822861       18.8370403535  W2        14817           0.0000000000
     44450     14817  TIP3      H1            -20.4832566405      -47.6758222861       18.1163703535  W2        14817           0.0000000000
     44451     14817  TIP3      H2            -20.0353666405      -49.0617822861       18.5291203535  W2        14817           0.0000000000
     44452     14818  TIP3      OH2           -32.9269866405      -41.7724422861       16.8337103535  W2        14818           0.0000000000
     44453     14818  TIP3      H1            -32.7108566405      -42.1338822861       17.6932903535  W2        14818           0.0000000000
     44454     14818  TIP3      H2            -33.7825166405      -42.1470622861       16.6240603535  W2        14818           0.0000000000
     44455     14819  TIP3      OH2           -30.3081866405      -53.3023922861       12.8291303535  W2        14819           0.0000000000
     44456     14819  TIP3      H1            -31.1698166405      -53.3895722861       12.4214203535  W2        14819           0.0000000000
     44457     14819  TIP3      H2            -30.3306166405      -52.4463822861       13.2568903535  W2        14819           0.0000000000
     44458     14820  TIP3      OH2           -25.6454066405      -53.5803522861       16.2038303535  W2        14820           0.0000000000
     44459     14820  TIP3      H1            -25.2250966405      -53.9956422861       16.9568903535  W2        14820           0.0000000000
     44460     14820  TIP3      H2            -26.5784466405      -53.7590222861       16.3210303535  W2        14820           0.0000000000
     44461     14821  TIP3      OH2           -22.3189166405      -49.8248322861       17.0572803535  W2        14821           0.0000000000
     44462     14821  TIP3      H1            -22.8329666405      -49.9506122861       17.8548803535  W2        14821           0.0000000000
     44463     14821  TIP3      H2            -22.4744466405      -48.9125222861       16.8129003535  W2        14821           0.0000000000
     44464     14822  TIP3      OH2           -21.5564266405      -44.9638322861        2.8185803535  W2        14822           0.0000000000
     44465     14822  TIP3      H1            -21.5143466405      -45.1864422861        1.8885803535  W2        14822           0.0000000000
     44466     14822  TIP3      H2            -20.7072166405      -44.5651222861        3.0085703535  W2        14822           0.0000000000
     44467     14823  TIP3      OH2           -25.9836766405      -51.0880122861        3.4889103535  W2        14823           0.0000000000
     44468     14823  TIP3      H1            -26.2371966405      -51.0688522861        4.4117203535  W2        14823           0.0000000000
     44469     14823  TIP3      H2            -26.2404666405      -51.9594722861        3.1875303535  W2        14823           0.0000000000
     44470     14824  TIP3      OH2           -30.2171766405      -48.3369422861       13.9241503535  W2        14824           0.0000000000
     44471     14824  TIP3      H1            -30.8589666405      -48.3772122861       14.6331603535  W2        14824           0.0000000000
     44472     14824  TIP3      H2            -30.1799766405      -47.4104722861       13.6864503535  W2        14824           0.0000000000
     44473     14825  TIP3      OH2           -30.2202666405      -48.1159322861        8.8361503535  W2        14825           0.0000000000
     44474     14825  TIP3      H1            -31.1129766405      -48.4563222861        8.7775303535  W2        14825           0.0000000000
     44475     14825  TIP3      H2            -29.7696066405      -48.4928422861        8.0804703535  W2        14825           0.0000000000
     44476     14826  TIP3      OH2           -24.6847166405      -47.6999022861        7.6532303535  W2        14826           0.0000000000
     44477     14826  TIP3      H1            -25.0936866405      -46.8850422861        7.3617103535  W2        14826           0.0000000000
     44478     14826  TIP3      H2            -23.9640966405      -47.8398922861        7.0389403535  W2        14826           0.0000000000
     44479     14827  TIP3      OH2           -25.5825566405      -47.5242622861       19.1413003535  W2        14827           0.0000000000
     44480     14827  TIP3      H1            -26.1451766405      -48.2291022861       19.4620803535  W2        14827           0.0000000000
     44481     14827  TIP3      H2            -24.7562166405      -47.6450722861       19.6090603535  W2        14827           0.0000000000
     44482     14828  TIP3      OH2           -23.6799466405      -48.2538622861       10.4672003535  W2        14828           0.0000000000
     44483     14828  TIP3      H1            -23.8754966405      -47.6481822861        9.7522603535  W2        14828           0.0000000000
     44484     14828  TIP3      H2            -23.4986866405      -49.0873422861       10.0328303535  W2        14828           0.0000000000
     44485     14829  TIP3      OH2           -32.4671266405      -48.0165922861       15.7913503535  W2        14829           0.0000000000
     44486     14829  TIP3      H1            -32.5051866405      -47.6164322861       16.6600603535  W2        14829           0.0000000000
     44487     14829  TIP3      H2            -32.9580166405      -48.8333522861       15.8816403535  W2        14829           0.0000000000
     44488     14830  TIP3      OH2           -29.1013866405      -50.6423622861        2.5899503535  W2        14830           0.0000000000
     44489     14830  TIP3      H1            -29.5323166405      -51.0873522861        3.3196903535  W2        14830           0.0000000000
     44490     14830  TIP3      H2            -29.8195166405      -50.2707322861        2.0777003535  W2        14830           0.0000000000
     44491     14831  TIP3      OH2           -35.8590466405      -50.9004122861        9.6418203535  W2        14831           0.0000000000
     44492     14831  TIP3      H1            -35.2282766405      -50.9292022861       10.3612103535  W2        14831           0.0000000000
     44493     14831  TIP3      H2            -35.4096166405      -51.3255422861        8.9114103535  W2        14831           0.0000000000
     44494     14832  TIP3      OH2           -34.5848366405      -50.1542122861        5.0658603535  W2        14832           0.0000000000
     44495     14832  TIP3      H1            -34.1106666405      -49.5632222861        4.4809503535  W2        14832           0.0000000000
     44496     14832  TIP3      H2            -35.3021966405      -49.6239222861        5.4128703535  W2        14832           0.0000000000
     44497     14833  TIP3      OH2           -24.4160266405      -46.6157322861       15.1384403535  W2        14833           0.0000000000
     44498     14833  TIP3      H1            -24.0925466405      -47.2467622861       14.4954903535  W2        14833           0.0000000000
     44499     14833  TIP3      H2            -24.8560966405      -47.1505122861       15.7991803535  W2        14833           0.0000000000
     44500     14834  TIP3      OH2           -27.6387366405      -50.6881822861        9.9225603535  W2        14834           0.0000000000
     44501     14834  TIP3      H1            -28.5496266405      -50.6315022861       10.2111603535  W2        14834           0.0000000000
     44502     14834  TIP3      H2            -27.1334466405      -50.7486322861       10.7332803535  W2        14834           0.0000000000
     44503     14835  TIP3      OH2           -32.8103966405      -49.0595522861        8.7493203535  W2        14835           0.0000000000
     44504     14835  TIP3      H1            -33.6995966405      -48.9600022861        8.4092803535  W2        14835           0.0000000000
     44505     14835  TIP3      H2            -32.5139066405      -49.9012522861        8.4031103535  W2        14835           0.0000000000
     44506     14836  TIP3      OH2           -29.1572166405      -49.0592922861        6.4057803535  W2        14836           0.0000000000
     44507     14836  TIP3      H1            -28.2256666405      -48.9302922861        6.5840903535  W2        14836           0.0000000000
     44508     14836  TIP3      H2            -29.3721866405      -48.3898622861        5.7562503535  W2        14836           0.0000000000
     44509     14837  TIP3      OH2           -23.2335466405      -51.4535522861       13.1867403535  W2        14837           0.0000000000
     44510     14837  TIP3      H1            -23.9103866405      -51.3222422861       13.8507103535  W2        14837           0.0000000000
     44511     14837  TIP3      H2            -23.7190566405      -51.6086022861       12.3765103535  W2        14837           0.0000000000
     44512     14838  TIP3      OH2           -30.4831966405      -47.8650722861        3.9723903535  W2        14838           0.0000000000
     44513     14838  TIP3      H1            -31.0256866405      -48.2446922861        3.2811503535  W2        14838           0.0000000000
     44514     14838  TIP3      H2            -29.6497066405      -47.6706022861        3.5438003535  W2        14838           0.0000000000
     44515     14839  TIP3      OH2           -19.9460366405      -35.7820122861       19.4635003535  W2        14839           0.0000000000
     44516     14839  TIP3      H1            -19.7461666405      -35.3578222861       18.6290303535  W2        14839           0.0000000000
     44517     14839  TIP3      H2            -19.2906666405      -35.4381922861       20.0705403535  W2        14839           0.0000000000
     44518     14840  TIP3      OH2           -32.3480566405      -43.3078822861       19.0715503535  W2        14840           0.0000000000
     44519     14840  TIP3      H1            -31.6158166405      -43.0532922861       19.6330003535  W2        14840           0.0000000000
     44520     14840  TIP3      H2            -33.1281866405      -43.1033422861       19.5870903535  W2        14840           0.0000000000
     44521     14841  TIP3      OH2           -26.3187666405      -47.9008822861       11.8095203535  W2        14841           0.0000000000
     44522     14841  TIP3      H1            -25.7544266405      -48.4472222861       11.2624803535  W2        14841           0.0000000000
     44523     14841  TIP3      H2            -26.4664266405      -48.4226922861       12.5982803535  W2        14841           0.0000000000
     44524     14842  TIP3      OH2           -31.3167966405      -51.7642722861        8.2280003535  W2        14842           0.0000000000
     44525     14842  TIP3      H1            -31.6338466405      -52.6667422861        8.1925403535  W2        14842           0.0000000000
     44526     14842  TIP3      H2            -30.5353866405      -51.7625322861        7.6751603535  W2        14842           0.0000000000
     44527     14843  TIP3      OH2           -27.6921766405      -49.5122722861       14.2235603535  W2        14843           0.0000000000
     44528     14843  TIP3      H1            -28.5276466405      -49.0583222861       14.3338003535  W2        14843           0.0000000000
     44529     14843  TIP3      H2            -27.1681166405      -49.2364222861       14.9755503535  W2        14843           0.0000000000
     44530     14844  TIP3      OH2           -27.1479166405      -43.2995022861        5.9082003535  W2        14844           0.0000000000
     44531     14844  TIP3      H1            -27.8928166405      -43.8069722861        5.5859903535  W2        14844           0.0000000000
     44532     14844  TIP3      H2            -27.2821966405      -43.2507022861        6.8546803535  W2        14844           0.0000000000
     44533     14845  TIP3      OH2           -19.9980266405      -44.1666822861       14.6949603535  W2        14845           0.0000000000
     44534     14845  TIP3      H1            -19.3561466405      -43.7100522861       14.1511803535  W2        14845           0.0000000000
     44535     14845  TIP3      H2            -20.8283366405      -44.0534422861       14.2323703535  W2        14845           0.0000000000
     44536     14846  TIP3      OH2           -23.2502366405      -50.4855122861        4.1074603535  W2        14846           0.0000000000
     44537     14846  TIP3      H1            -24.1888166405      -50.3739522861        3.9563403535  W2        14846           0.0000000000
     44538     14846  TIP3      H2            -22.9530266405      -49.6288222861        4.4140303535  W2        14846           0.0000000000
     44539     14847  TIP3      OH2           -25.6287066405      -43.1151722861       17.1451103535  W2        14847           0.0000000000
     44540     14847  TIP3      H1            -25.9740966405      -43.4969322861       17.9520703535  W2        14847           0.0000000000
     44541     14847  TIP3      H2            -25.8286966405      -42.1818122861       17.2164003535  W2        14847           0.0000000000
     44542     14848  TIP3      OH2           -22.5318866405      -48.6182422861        5.7682003535  W2        14848           0.0000000000
     44543     14848  TIP3      H1            -21.6399866405      -48.7557422861        6.0873203535  W2        14848           0.0000000000
     44544     14848  TIP3      H2            -22.4755266405      -47.8276322861        5.2315503535  W2        14848           0.0000000000
     44545     14849  TIP3      OH2           -32.0230866405      -44.0045022861       11.6779903535  W2        14849           0.0000000000
     44546     14849  TIP3      H1            -31.2783666405      -44.0069322861       11.0766403535  W2        14849           0.0000000000
     44547     14849  TIP3      H2            -31.9454266405      -44.8281222861       12.1595003535  W2        14849           0.0000000000
     44548     14850  TIP3      OH2           -25.0225066405      -41.8410722861        4.9336603535  W2        14850           0.0000000000
     44549     14850  TIP3      H1            -25.3176666405      -41.0142822861        5.3151403535  W2        14850           0.0000000000
     44550     14850  TIP3      H2            -25.7255066405      -42.4603822861        5.1298003535  W2        14850           0.0000000000
     44551     14851  TIP3      OH2           -35.0151166405      -45.5438122861       16.9928403535  W2        14851           0.0000000000
     44552     14851  TIP3      H1            -34.7922566405      -45.9618522861       17.8245903535  W2        14851           0.0000000000
     44553     14851  TIP3      H2            -35.6171066405      -46.1563122861       16.5701203535  W2        14851           0.0000000000
     44554     14852  TIP3      OH2           -27.9986266405      -46.0268222861       19.2058103535  W2        14852           0.0000000000
     44555     14852  TIP3      H1            -28.2945466405      -46.1925222861       18.3107203535  W2        14852           0.0000000000
     44556     14852  TIP3      H2            -27.0671066405      -46.2467922861       19.1952003535  W2        14852           0.0000000000
     44557     14853  TIP3      OH2           -23.3783466405      -40.6536222861       17.0956103535  W2        14853           0.0000000000
     44558     14853  TIP3      H1            -24.2789166405      -40.4703622861       16.8280003535  W2        14853           0.0000000000
     44559     14853  TIP3      H2            -23.3442366405      -40.3946922861       18.0164903535  W2        14853           0.0000000000
     44560     14854  TIP3      OH2           -17.6470166405      -48.4088322861        5.4628703535  W2        14854           0.0000000000
     44561     14854  TIP3      H1            -18.2013866405      -48.8050322861        4.7906203535  W2        14854           0.0000000000
     44562     14854  TIP3      H2            -17.5466566405      -47.4983122861        5.1852003535  W2        14854           0.0000000000
     44563     14855  TIP3      OH2           -17.6838166405      -42.6086622861       18.3000203535  W2        14855           0.0000000000
     44564     14855  TIP3      H1            -18.5349666405      -42.3702822861       17.9326603535  W2        14855           0.0000000000
     44565     14855  TIP3      H2            -17.0934766405      -42.6253422861       17.5467303535  W2        14855           0.0000000000
     44566     14856  TIP3      OH2           -19.3518466405      -39.6227922861        5.9280803535  W2        14856           0.0000000000
     44567     14856  TIP3      H1            -19.7247366405      -40.4484122861        6.2371403535  W2        14856           0.0000000000
     44568     14856  TIP3      H2            -19.0744966405      -39.8058522861        5.0304203535  W2        14856           0.0000000000
     44569     14857  TIP3      OH2           -22.1914566405      -44.8148422861       12.9492703535  W2        14857           0.0000000000
     44570     14857  TIP3      H1            -23.1197666405      -45.0466522861       12.9222003535  W2        14857           0.0000000000
     44571     14857  TIP3      H2            -21.7403466405      -45.5918622861       12.6191503535  W2        14857           0.0000000000
     44572     14858  TIP3      OH2           -29.6481466405      -40.4866822861        9.0821403535  W2        14858           0.0000000000
     44573     14858  TIP3      H1            -29.1209266405      -39.7132422861        8.8820203535  W2        14858           0.0000000000
     44574     14858  TIP3      H2            -30.5282966405      -40.2617622861        8.7805403535  W2        14858           0.0000000000
     44575     14859  TIP3      OH2           -33.8933766405      -45.6242722861        3.6693803535  W2        14859           0.0000000000
     44576     14859  TIP3      H1            -33.2773866405      -44.9975522861        4.0488603535  W2        14859           0.0000000000
     44577     14859  TIP3      H2            -34.7551166405      -45.3082922861        3.9410303535  W2        14859           0.0000000000
     44578     14860  TIP3      OH2           -28.2209166405      -42.8236922861        8.6585703535  W2        14860           0.0000000000
     44579     14860  TIP3      H1            -28.4619166405      -41.8982522861        8.7001003535  W2        14860           0.0000000000
     44580     14860  TIP3      H2            -28.9615566405      -43.2825622861        9.0549603535  W2        14860           0.0000000000
     44581     14861  TIP3      OH2           -27.7062566405      -38.6743322861       14.9736803535  W2        14861           0.0000000000
     44582     14861  TIP3      H1            -27.3437866405      -37.8197722861       14.7401203535  W2        14861           0.0000000000
     44583     14861  TIP3      H2            -27.1747366405      -38.9661722861       15.7143103535  W2        14861           0.0000000000
     44584     14862  TIP3      OH2           -29.5378366405      -37.8019322861        8.2037903535  W2        14862           0.0000000000
     44585     14862  TIP3      H1            -30.4877866405      -37.6961922861        8.2551203535  W2        14862           0.0000000000
     44586     14862  TIP3      H2            -29.1860266405      -36.9811922861        8.5485403535  W2        14862           0.0000000000
     44587     14863  TIP3      OH2           -24.1621766405      -42.5752622861       14.6742403535  W2        14863           0.0000000000
     44588     14863  TIP3      H1            -24.5880466405      -42.8030922861       15.5006403535  W2        14863           0.0000000000
     44589     14863  TIP3      H2            -23.5815966405      -43.3140822861       14.4917703535  W2        14863           0.0000000000
     44590     14864  TIP3      OH2           -21.9592866405      -41.6462122861        3.7481403535  W2        14864           0.0000000000
     44591     14864  TIP3      H1            -21.6059766405      -42.0262322861        4.5524903535  W2        14864           0.0000000000
     44592     14864  TIP3      H2            -22.9079366405      -41.7397322861        3.8350703535  W2        14864           0.0000000000
     44593     14865  TIP3      OH2           -21.5037566405      -38.0233122861       17.1437203535  W2        14865           0.0000000000
     44594     14865  TIP3      H1            -22.1054366405      -38.5790222861       16.6483503535  W2        14865           0.0000000000
     44595     14865  TIP3      H2            -21.2223866405      -37.3563322861       16.5174603535  W2        14865           0.0000000000
     44596     14866  TIP3      OH2           -17.4558466405      -37.1669622861        3.9491603535  W2        14866           0.0000000000
     44597     14866  TIP3      H1            -16.7120566405      -36.5809122861        3.8093203535  W2        14866           0.0000000000
     44598     14866  TIP3      H2            -18.1500366405      -36.5983822861        4.2824003535  W2        14866           0.0000000000
     44599     14867  TIP3      OH2           -33.3811666405      -50.7905422861       16.5509803535  W2        14867           0.0000000000
     44600     14867  TIP3      H1            -34.2739366405      -50.4520022861       16.4833803535  W2        14867           0.0000000000
     44601     14867  TIP3      H2            -33.4798866405      -51.6459322861       16.9690603535  W2        14867           0.0000000000
     44602     14868  TIP3      OH2           -21.0933566405      -42.9740122861        5.9749303535  W2        14868           0.0000000000
     44603     14868  TIP3      H1            -21.3705966405      -43.7020822861        6.5310403535  W2        14868           0.0000000000
     44604     14868  TIP3      H2            -20.1660566405      -42.8548122861        6.1801903535  W2        14868           0.0000000000
     44605     14869  TIP3      OH2           -33.7299666405      -38.9861022861       14.9859203535  W2        14869           0.0000000000
     44606     14869  TIP3      H1            -33.5129366405      -39.9178622861       14.9548903535  W2        14869           0.0000000000
     44607     14869  TIP3      H2            -33.4836166405      -38.7116022861       15.8692003535  W2        14869           0.0000000000
     44608     14870  TIP3      OH2           -27.8685066405      -40.5346022861        2.1951403535  W2        14870           0.0000000000
     44609     14870  TIP3      H1            -27.6295266405      -41.2827922861        1.6480303535  W2        14870           0.0000000000
     44610     14870  TIP3      H2            -28.1373766405      -40.9224322861        3.0279203535  W2        14870           0.0000000000
     44611     14871  TIP3      OH2           -28.9314466405      -40.9642222861        4.6514003535  W2        14871           0.0000000000
     44612     14871  TIP3      H1            -28.7846466405      -41.4842422861        5.4414903535  W2        14871           0.0000000000
     44613     14871  TIP3      H2            -28.9342766405      -40.0574622861        4.9579903535  W2        14871           0.0000000000
     44614     14872  TIP3      OH2           -32.4783366405      -43.7118922861        5.1619403535  W2        14872           0.0000000000
     44615     14872  TIP3      H1            -33.1644066405      -43.3596422861        5.7289103535  W2        14872           0.0000000000
     44616     14872  TIP3      H2            -31.9555466405      -42.9489322861        4.9153703535  W2        14872           0.0000000000
     44617     14873  TIP3      OH2           -24.6468266405      -51.0495122861       15.4408403535  W2        14873           0.0000000000
     44618     14873  TIP3      H1            -23.9480366405      -50.9756422861       16.0908103535  W2        14873           0.0000000000
     44619     14873  TIP3      H2            -25.0276866405      -51.9140122861       15.5951303535  W2        14873           0.0000000000
     44620     14874  TIP3      OH2           -23.8623366405      -51.3973422861        6.5380703535  W2        14874           0.0000000000
     44621     14874  TIP3      H1            -23.6425066405      -50.9258022861        5.7346103535  W2        14874           0.0000000000
     44622     14874  TIP3      H2            -23.3039366405      -51.0030822861        7.2081303535  W2        14874           0.0000000000
     44623     14875  TIP3      OH2           -26.1937266405      -39.2668622861        5.4008203535  W2        14875           0.0000000000
     44624     14875  TIP3      H1            -27.0101166405      -38.7698922861        5.4532503535  W2        14875           0.0000000000
     44625     14875  TIP3      H2            -25.6640966405      -38.7915122861        4.7607003535  W2        14875           0.0000000000
     44626     14876  TIP3      OH2           -26.6623466405      -49.6694622861        7.3729103535  W2        14876           0.0000000000
     44627     14876  TIP3      H1            -25.8500866405      -49.1651422861        7.4190803535  W2        14876           0.0000000000
     44628     14876  TIP3      H2            -26.9070466405      -49.8144922861        8.2868703535  W2        14876           0.0000000000
     44629     14877  TIP3      OH2           -26.1267066405      -48.6831922861       16.5575703535  W2        14877           0.0000000000
     44630     14877  TIP3      H1            -26.0076766405      -48.1096522861       17.3146103535  W2        14877           0.0000000000
     44631     14877  TIP3      H2            -25.4712466405      -49.3712522861       16.6723503535  W2        14877           0.0000000000
     44632     14878  TIP3      OH2           -25.7786766405      -52.5881622861        8.3110203535  W2        14878           0.0000000000
     44633     14878  TIP3      H1            -26.1253266405      -51.9711022861        8.9554503535  W2        14878           0.0000000000
     44634     14878  TIP3      H2            -25.1199866405      -52.0875922861        7.8295703535  W2        14878           0.0000000000
     44635     14879  TIP3      OH2           -28.8554166405      -38.2231422861        5.3825103535  W2        14879           0.0000000000
     44636     14879  TIP3      H1            -28.6945466405      -37.4233922861        4.8817703535  W2        14879           0.0000000000
     44637     14879  TIP3      H2            -29.0526366405      -37.9165422861        6.2675703535  W2        14879           0.0000000000
     44638     14880  TIP3      OH2           -30.1209766405      -51.5252222861        4.9982703535  W2        14880           0.0000000000
     44639     14880  TIP3      H1            -30.2044966405      -50.6369122861        5.3449103535  W2        14880           0.0000000000
     44640     14880  TIP3      H2            -29.2309466405      -51.7905522861        5.2299503535  W2        14880           0.0000000000
     44641     14881  TIP3      OH2           -19.9221266405      -50.7761622861       17.3925403535  W2        14881           0.0000000000
     44642     14881  TIP3      H1            -20.8385466405      -50.5139922861       17.3049103535  W2        14881           0.0000000000
     44643     14881  TIP3      H2            -19.5866266405      -50.7792622861       16.4960703535  W2        14881           0.0000000000
     44644     14882  TIP3      OH2           -21.3200266405      -47.0260622861       11.4882703535  W2        14882           0.0000000000
     44645     14882  TIP3      H1            -22.1175866405      -47.4410422861       11.1597703535  W2        14882           0.0000000000
     44646     14882  TIP3      H2            -20.8749166405      -47.7166922861       11.9793203535  W2        14882           0.0000000000
     44647     14883  TIP3      OH2           -31.8624466405      -41.0980022861        4.0587203535  W2        14883           0.0000000000
     44648     14883  TIP3      H1            -31.2702966405      -40.3985222861        4.3349603535  W2        14883           0.0000000000
     44649     14883  TIP3      H2            -31.4031466405      -41.5310522861        3.3391803535  W2        14883           0.0000000000
     44650     14884  TIP3      OH2           -33.5465266405      -48.4337022861        3.1746603535  W2        14884           0.0000000000
     44651     14884  TIP3      H1            -33.5912666405      -47.4943922861        3.3533603535  W2        14884           0.0000000000
     44652     14884  TIP3      H2            -34.4342066405      -48.6692122861        2.9048703535  W2        14884           0.0000000000
     44653     14885  TIP3      OH2           -20.2335666405      -37.7698122861       13.1106203535  W2        14885           0.0000000000
     44654     14885  TIP3      H1            -20.3891366405      -37.0913722861       12.4535503535  W2        14885           0.0000000000
     44655     14885  TIP3      H2            -19.3009266405      -37.6978822861       13.3136803535  W2        14885           0.0000000000
     44656     14886  TIP3      OH2           -32.7383266405      -53.6520422861       11.8477603535  W2        14886           0.0000000000
     44657     14886  TIP3      H1            -32.9673466405      -53.5927922861       10.9202603535  W2        14886           0.0000000000
     44658     14886  TIP3      H2            -33.1809866405      -54.4434922861       12.1541703535  W2        14886           0.0000000000
     44659     14887  TIP3      OH2           -33.8079966405      -39.7113322861        8.0083403535  W2        14887           0.0000000000
     44660     14887  TIP3      H1            -34.6401366405      -39.2390622861        8.0354803535  W2        14887           0.0000000000
     44661     14887  TIP3      H2            -33.2621666405      -39.2015722861        7.4096503535  W2        14887           0.0000000000
     44662     14888  TIP3      OH2           -34.5196266405      -37.0989622861       19.3381403535  W2        14888           0.0000000000
     44663     14888  TIP3      H1            -33.9794066405      -37.3155622861       20.0980603535  W2        14888           0.0000000000
     44664     14888  TIP3      H2            -35.0008266405      -37.9043622861       19.1483903535  W2        14888           0.0000000000
     44665     14889  TIP3      OH2           -29.9222866405      -38.1795222861       20.9585603535  W2        14889           0.0000000000
     44666     14889  TIP3      H1            -29.1545666405      -38.6384422861       21.2994803535  W2        14889           0.0000000000
     44667     14889  TIP3      H2            -29.9436666405      -38.4055422861       20.0286803535  W2        14889           0.0000000000
     44668     14890  TIP3      OH2           -25.8303266405      -38.6714622861        2.3337403535  W2        14890           0.0000000000
     44669     14890  TIP3      H1            -26.4742266405      -39.3026022861        2.6551103535  W2        14890           0.0000000000
     44670     14890  TIP3      H2            -25.0684966405      -39.2026622861        2.1020903535  W2        14890           0.0000000000
     44671     14891  TIP3      OH2           -23.3454166405      -39.7994122861       19.6877103535  W2        14891           0.0000000000
     44672     14891  TIP3      H1            -23.6964666405      -40.6561122861       19.9307503535  W2        14891           0.0000000000
     44673     14891  TIP3      H2            -22.6190966405      -39.6567422861       20.2946103535  W2        14891           0.0000000000
     44674     14892  TIP3      OH2           -21.2260366405      -38.8544722861        2.5675403535  W2        14892           0.0000000000
     44675     14892  TIP3      H1            -20.9429966405      -39.6489522861        3.0202303535  W2        14892           0.0000000000
     44676     14892  TIP3      H2            -20.4862466405      -38.6213722861        2.0066503535  W2        14892           0.0000000000
     44677     14893  TIP3      OH2           -34.6126766405      -43.2885522861       20.2925703535  W2        14893           0.0000000000
     44678     14893  TIP3      H1            -34.4686266405      -44.1904822861       20.0062403535  W2        14893           0.0000000000
     44679     14893  TIP3      H2            -35.3849366405      -43.0023422861       19.8048003535  W2        14893           0.0000000000
     44680     14894  TIP3      OH2           -30.2713066405      -42.9449822861        2.4250303535  W2        14894           0.0000000000
     44681     14894  TIP3      H1            -30.2068966405      -43.7390222861        2.9556703535  W2        14894           0.0000000000
     44682     14894  TIP3      H2            -29.6183866405      -43.0637022861        1.7352303535  W2        14894           0.0000000000
     44683     14895  TIP3      OH2           -27.9570666405      -43.3187422861       19.7252103535  W2        14895           0.0000000000
     44684     14895  TIP3      H1            -28.2856866405      -43.0479322861       18.8679503535  W2        14895           0.0000000000
     44685     14895  TIP3      H2            -27.8052466405      -44.2597622861       19.6377103535  W2        14895           0.0000000000
     44686     14896  TIP3      OH2           -24.9189666405      -41.8978122861        2.1608303535  W2        14896           0.0000000000
     44687     14896  TIP3      H1            -25.1875566405      -41.7176022861        3.0617203535  W2        14896           0.0000000000
     44688     14896  TIP3      H2            -25.1254066405      -42.8231922861        2.0294103535  W2        14896           0.0000000000
     44689     14897  TIP3      OH2           -22.2225466405      -43.4030122861       17.1084403535  W2        14897           0.0000000000
     44690     14897  TIP3      H1            -21.4770666405      -42.8146422861       16.9888403535  W2        14897           0.0000000000
     44691     14897  TIP3      H2            -22.9798666405      -42.8210422861       17.1717503535  W2        14897           0.0000000000
     44692     14898  TIP3      OH2           -33.7800266405      -46.0882222861       19.7125003535  W2        14898           0.0000000000
     44693     14898  TIP3      H1            -33.3719066405      -46.9455622861       19.5915603535  W2        14898           0.0000000000
     44694     14898  TIP3      H2            -34.0402666405      -46.0740922861       20.6335303535  W2        14898           0.0000000000
     44695     14899  TIP3      OH2           -29.1219266405      -44.9723622861        4.7308303535  W2        14899           0.0000000000
     44696     14899  TIP3      H1            -29.5817266405      -45.4565322861        5.4166803535  W2        14899           0.0000000000
     44697     14899  TIP3      H2            -28.8670566405      -45.6408222861        4.0948803535  W2        14899           0.0000000000
     44698     14900  TIP3      OH2           -29.8329966405      -47.0796522861       17.0867903535  W2        14900           0.0000000000
     44699     14900  TIP3      H1            -30.4513866405      -46.4049922861       17.3672603535  W2        14900           0.0000000000
     44700     14900  TIP3      H2            -29.4888766405      -46.7582622861       16.2534103535  W2        14900           0.0000000000
     44701     14901  TIP3      OH2           -28.0508866405      -46.7291822861        2.9931503535  W2        14901           0.0000000000
     44702     14901  TIP3      H1            -28.2313866405      -46.8840622861        2.0659803535  W2        14901           0.0000000000
     44703     14901  TIP3      H2            -27.1008366405      -46.6213122861        3.0379403535  W2        14901           0.0000000000
     44704     14902  TIP3      OH2           -24.8131766405      -44.6081222861       20.3642703535  W2        14902           0.0000000000
     44705     14902  TIP3      H1            -23.8600566405      -44.5242122861       20.3368703535  W2        14902           0.0000000000
     44706     14902  TIP3      H2            -24.9737166405      -45.3199422861       20.9837603535  W2        14902           0.0000000000
     44707     14903  TIP3      OH2           -18.6610566405      -44.3747622861        2.4389603535  W2        14903           0.0000000000
     44708     14903  TIP3      H1            -18.9345766405      -44.7992122861        1.6257903535  W2        14903           0.0000000000
     44709     14903  TIP3      H2            -18.6216466405      -43.4433122861        2.2220003535  W2        14903           0.0000000000
     44710     14904  TIP3      OH2           -29.4936266405      -49.7245722861       18.1691003535  W2        14904           0.0000000000
     44711     14904  TIP3      H1            -29.3435366405      -50.4534422861       17.5670703535  W2        14904           0.0000000000
     44712     14904  TIP3      H2            -29.4913866405      -48.9474022861       17.6103203535  W2        14904           0.0000000000
     44713     14905  TIP3      OH2           -29.0810566405      -51.3549922861       15.6618403535  W2        14905           0.0000000000
     44714     14905  TIP3      H1            -28.5453066405      -50.9033222861       15.0097703535  W2        14905           0.0000000000
     44715     14905  TIP3      H2            -29.9330966405      -51.4630122861       15.2392503535  W2        14905           0.0000000000
     44716     14906  TIP3      OH2           -27.4992166405      -45.9153722861       15.9013603535  W2        14906           0.0000000000
     44717     14906  TIP3      H1            -26.7487366405      -46.0716222861       15.3281403535  W2        14906           0.0000000000
     44718     14906  TIP3      H2            -27.8383866405      -45.0637122861       15.6259103535  W2        14906           0.0000000000
     44719     14907  TIP3      OH2           -23.0835966405      -48.1001922861       20.9298903535  W2        14907           0.0000000000
     44720     14907  TIP3      H1            -22.8914666405      -49.0312522861       20.8183403535  W2        14907           0.0000000000
     44721     14907  TIP3      H2            -22.2259666405      -47.6752422861       20.9194303535  W2        14907           0.0000000000
     44722     14908  TIP3      OH2           -21.7668766405      -45.3116722861       19.0071603535  W2        14908           0.0000000000
     44723     14908  TIP3      H1            -22.0483766405      -44.6022122861       18.4295403535  W2        14908           0.0000000000
     44724     14908  TIP3      H2            -20.8244466405      -45.3843722861       18.8562803535  W2        14908           0.0000000000
     44725     14909  TIP3      OH2           -31.0149966405      -48.5262222861       20.0806603535  W2        14909           0.0000000000
     44726     14909  TIP3      H1            -31.7820966405      -49.0587422861       19.8704203535  W2        14909           0.0000000000
     44727     14909  TIP3      H2            -30.3360966405      -48.8361822861       19.4812903535  W2        14909           0.0000000000
     44728     14910  TIP3      OH2           -28.2755066405      -53.8984222861       16.0932003535  W2        14910           0.0000000000
     44729     14910  TIP3      H1            -28.3735466405      -52.9521022861       15.9878203535  W2        14910           0.0000000000
     44730     14910  TIP3      H2            -29.0178866405      -54.2710422861       15.6175503535  W2        14910           0.0000000000
     44731     14911  TIP3      OH2           -27.0114566405      -49.5768822861       19.6570403535  W2        14911           0.0000000000
     44732     14911  TIP3      H1            -27.2469166405      -49.7962122861       20.5585303535  W2        14911           0.0000000000
     44733     14911  TIP3      H2            -27.7947666405      -49.7837622861       19.1472903535  W2        14911           0.0000000000
     44734     14912  TIP3      OH2           -24.2957966405      -50.4495322861       18.7323903535  W2        14912           0.0000000000
     44735     14912  TIP3      H1            -25.2432566405      -50.4175622861       18.8647203535  W2        14912           0.0000000000
     44736     14912  TIP3      H2            -23.9831266405      -51.0748222861       19.3862103535  W2        14912           0.0000000000
     44737     14913  TIP3      OH2           -22.6616466405      -51.8154222861       20.7375803535  W2        14913           0.0000000000
     44738     14913  TIP3      H1            -22.7584666405      -52.7676922861       20.7317703535  W2        14913           0.0000000000
     44739     14913  TIP3      H2            -22.9833366405      -51.5467422861       21.5981303535  W2        14913           0.0000000000
     44740     14914  TIP3      OH2           -32.8347166405      -50.6058422861       19.7851303535  W2        14914           0.0000000000
     44741     14914  TIP3      H1            -32.6229766405      -51.3122322861       19.1748803535  W2        14914           0.0000000000
     44742     14914  TIP3      H2            -32.9459666405      -51.0432422861       20.6292503535  W2        14914           0.0000000000
     44743     14915  TIP3      OH2           -28.0536966405      -54.6046822861       18.7644803535  W2        14915           0.0000000000
     44744     14915  TIP3      H1            -27.3418566405      -55.2444622861       18.7503903535  W2        14915           0.0000000000
     44745     14915  TIP3      H2            -28.1546566405      -54.3378522861       17.8507903535  W2        14915           0.0000000000
     44746     14916  TIP3      OH2           -27.6999466405      -52.9218422861       20.8181103535  W2        14916           0.0000000000
     44747     14916  TIP3      H1            -27.8317266405      -53.3974622861       19.9979603535  W2        14916           0.0000000000
     44748     14916  TIP3      H2            -28.2992066405      -52.1774822861       20.7628203535  W2        14916           0.0000000000
     44749     14917  TIP3      OH2           -28.1537166405      -36.0388122861        3.9945103535  W2        14917           0.0000000000
     44750     14917  TIP3      H1            -27.2206466405      -35.8809422861        4.1383503535  W2        14917           0.0000000000
     44751     14917  TIP3      H2            -28.4178366405      -35.3635122861        3.3696603535  W2        14917           0.0000000000
     44752     14918  TIP3      OH2           -34.5852266405      -41.4024322861        3.4773203535  W2        14918           0.0000000000
     44753     14918  TIP3      H1            -33.6713066405      -41.3235422861        3.7507103535  W2        14918           0.0000000000
     44754     14918  TIP3      H2            -34.5779166405      -42.0894722861        2.8108803535  W2        14918           0.0000000000
     44755     14919  TIP3      OH2           -35.9361666405      -36.0095822861        8.5547103535  W2        14919           0.0000000000
     44756     14919  TIP3      H1            -36.5834566405      -36.4714122861        8.0218303535  W2        14919           0.0000000000
     44757     14919  TIP3      H2            -35.5817066405      -36.6812522861        9.1373303535  W2        14919           0.0000000000
     44758     14920  TIP3      OH2           -35.0662466405      -37.9288822861       10.3593303535  W2        14920           0.0000000000
     44759     14920  TIP3      H1            -35.4005666405      -38.8091522861       10.5313503535  W2        14920           0.0000000000
     44760     14920  TIP3      H2            -34.8440066405      -37.5833822861       11.2238903535  W2        14920           0.0000000000
     44761     14921  TIP3      OH2           -17.5177666405      -37.1192422861       13.3398103535  W2        14921           0.0000000000
     44762     14921  TIP3      H1            -17.5390966405      -36.9344022861       14.2787503535  W2        14921           0.0000000000
     44763     14921  TIP3      H2            -16.8271466405      -36.5508422861       12.9989503535  W2        14921           0.0000000000
     44764     14922  TIP3      OH2           -17.9544766405      -37.5521322861       16.2617203535  W2        14922           0.0000000000
     44765     14922  TIP3      H1            -18.4416066405      -38.2877222861       15.8904603535  W2        14922           0.0000000000
     44766     14922  TIP3      H2            -17.4052066405      -37.9457422861       16.9396603535  W2        14922           0.0000000000
     44767     14923  TIP3      OH2           -19.5037466405      -41.7623222861       20.8997503535  W2        14923           0.0000000000
     44768     14923  TIP3      H1            -20.3696366405      -41.8673522861       21.2939803535  W2        14923           0.0000000000
     44769     14923  TIP3      H2            -19.1271566405      -41.0039922861       21.3462203535  W2        14923           0.0000000000
     44770     14924  TIP3      OH2           -18.2027766405      -43.5059522861        6.4140003535  W2        14924           0.0000000000
     44771     14924  TIP3      H1            -17.3526366405      -43.0848622861        6.5411603535  W2        14924           0.0000000000
     44772     14924  TIP3      H2            -18.1972666405      -44.2459422861        7.0211403535  W2        14924           0.0000000000
     44773     14925  TIP3      OH2           -17.8082166405      -45.4522122861        8.2375703535  W2        14925           0.0000000000
     44774     14925  TIP3      H1            -18.5347566405      -45.9319522861        8.6353303535  W2        14925           0.0000000000
     44775     14925  TIP3      H2            -17.2268866405      -45.2467422861        8.9697303535  W2        14925           0.0000000000
     44776     14926  TIP3      OH2           -18.0490966405      -42.6674622861       13.1853303535  W2        14926           0.0000000000
     44777     14926  TIP3      H1            -17.2156766405      -43.0454622861       12.9046903535  W2        14926           0.0000000000
     44778     14926  TIP3      H2            -17.9370666405      -41.7243422861       13.0662403535  W2        14926           0.0000000000
     44779     14927  TIP3      OH2           -19.5628666405      -39.7897122861       15.4921703535  W2        14927           0.0000000000
     44780     14927  TIP3      H1            -20.2103366405      -39.4645622861       16.1176903535  W2        14927           0.0000000000
     44781     14927  TIP3      H2            -20.0804666405      -40.2299422861       14.8180003535  W2        14927           0.0000000000
     44782     14928  TIP3      OH2           -17.5399066405      -45.5513622861        4.6287003535  W2        14928           0.0000000000
     44783     14928  TIP3      H1            -18.0617966405      -45.1949522861        3.9097903535  W2        14928           0.0000000000
     44784     14928  TIP3      H2            -17.5729866405      -44.8765822861        5.3067903535  W2        14928           0.0000000000
     44785     14929  TIP3      OH2           -19.1910066405      -48.3118022861        3.1794103535  W2        14929           0.0000000000
     44786     14929  TIP3      H1            -19.0945666405      -47.6451022861        2.4993803535  W2        14929           0.0000000000
     44787     14929  TIP3      H2            -19.3310466405      -49.1271722861        2.6979603535  W2        14929           0.0000000000
     44788     14930  TIP3      OH2           -20.0215366405      -46.9315622861        8.8004403535  W2        14930           0.0000000000
     44789     14930  TIP3      H1            -20.1716566405      -47.8767022861        8.7802203535  W2        14930           0.0000000000
     44790     14930  TIP3      H2            -20.3750866405      -46.6504222861        9.6443503535  W2        14930           0.0000000000
     44791     14931  TIP3      OH2           -34.9862966405      -44.8533422861       12.8108203535  W2        14931           0.0000000000
     44792     14931  TIP3      H1            -34.8020066405      -44.9351722861       11.8751103535  W2        14931           0.0000000000
     44793     14931  TIP3      H2            -34.1370066405      -44.9776422861       13.2344603535  W2        14931           0.0000000000
     44794     14932  TIP3      OH2           -19.1652466405      -44.9612322861       18.4392703535  W2        14932           0.0000000000
     44795     14932  TIP3      H1            -18.5825166405      -45.6960022861       18.6309903535  W2        14932           0.0000000000
     44796     14932  TIP3      H2            -18.6013166405      -44.1892022861       18.4858503535  W2        14932           0.0000000000
     44797     14933  TIP3      OH2           -17.6685366405      -47.0586522861       19.1238103535  W2        14933           0.0000000000
     44798     14933  TIP3      H1            -18.5318666405      -47.4374422861       18.9582803535  W2        14933           0.0000000000
     44799     14933  TIP3      H2            -17.0641666405      -47.7971722861       19.0493903535  W2        14933           0.0000000000
     44800     14934  TIP3      OH2           -19.9436266405      -50.9038222861        2.2969603535  W2        14934           0.0000000000
     44801     14934  TIP3      H1            -19.3330466405      -51.2751422861        2.9337803535  W2        14934           0.0000000000
     44802     14934  TIP3      H2            -20.7804766405      -51.3251322861        2.4929603535  W2        14934           0.0000000000
     44803     14935  TIP3      OH2           -20.3110566405      -49.3489822861        7.2629503535  W2        14935           0.0000000000
     44804     14935  TIP3      H1            -20.0313466405      -50.2559422861        7.3871203535  W2        14935           0.0000000000
     44805     14935  TIP3      H2            -19.5518866405      -48.9148322861        6.8738703535  W2        14935           0.0000000000
     44806     14936  TIP3      OH2           -19.6992266405      -48.7672422861       12.6988403535  W2        14936           0.0000000000
     44807     14936  TIP3      H1            -18.7664266405      -48.5552522861       12.6644403535  W2        14936           0.0000000000
     44808     14936  TIP3      H2            -19.9344766405      -48.6660322861       13.6211403535  W2        14936           0.0000000000
     44809     14937  TIP3      OH2           -19.6700366405      -48.0307122861       15.4747803535  W2        14937           0.0000000000
     44810     14937  TIP3      H1            -20.5129066405      -47.7626722861       15.8407603535  W2        14937           0.0000000000
     44811     14937  TIP3      H2            -19.2276066405      -47.2085222861       15.2638903535  W2        14937           0.0000000000
     44812     14938  TIP3      OH2           -35.3888166405      -49.5828422861       18.9517003535  W2        14938           0.0000000000
     44813     14938  TIP3      H1            -34.4693266405      -49.7050122861       19.1880103535  W2        14938           0.0000000000
     44814     14938  TIP3      H2            -35.8383666405      -50.3328722861       19.3410503535  W2        14938           0.0000000000
     44815     14939  TIP3      OH2           -17.3868766405      -54.0506922861       20.8282803535  W2        14939           0.0000000000
     44816     14939  TIP3      H1            -17.0371766405      -54.7043422861       20.2227503535  W2        14939           0.0000000000
     44817     14939  TIP3      H2            -17.2399266405      -53.2132822861       20.3885403535  W2        14939           0.0000000000
     44818     14940  TIP3      OH2           -19.6975766405      -52.0860522861        7.3111503535  W2        14940           0.0000000000
     44819     14940  TIP3      H1            -19.5150766405      -52.5349022861        8.1366503535  W2        14940           0.0000000000
     44820     14940  TIP3      H2            -20.2972866405      -52.6706122861        6.8476103535  W2        14940           0.0000000000
     44821     14941  TIP3      OH2           -34.1675666405      -51.2706822861       11.8429903535  W2        14941           0.0000000000
     44822     14941  TIP3      H1            -33.7224066405      -52.0624322861       12.1449603535  W2        14941           0.0000000000
     44823     14941  TIP3      H2            -33.7012666405      -50.5541622861       12.2735503535  W2        14941           0.0000000000
     44824     14942  TIP3      OH2           -35.8635366405      -48.2713822861       12.9120103535  W2        14942           0.0000000000
     44825     14942  TIP3      H1            -35.3715566405      -48.4923322861       12.1212103535  W2        14942           0.0000000000
     44826     14942  TIP3      H2            -35.5014466405      -47.4310422861       13.1929603535  W2        14942           0.0000000000
     44827     14943  TIP3      OH2           -17.8671566405      -51.9412322861       19.1774103535  W2        14943           0.0000000000
     44828     14943  TIP3      H1            -18.7845866405      -51.6705222861       19.1417603535  W2        14943           0.0000000000
     44829     14943  TIP3      H2            -17.7442166405      -52.4763922861       18.3933803535  W2        14943           0.0000000000
     44830     14944  TIP3      OH2           -17.8309566405      -52.0182422861        3.8391803535  W2        14944           0.0000000000
     44831     14944  TIP3      H1            -17.4186966405      -52.7396722861        3.3639803535  W2        14944           0.0000000000
     44832     14944  TIP3      H2            -17.1493066405      -51.3487822861        3.8976103535  W2        14944           0.0000000000
     44833     14945  TIP3      OH2           -35.5498866405      -52.0134722861        6.9662503535  W2        14945           0.0000000000
     44834     14945  TIP3      H1            -36.4750466405      -51.8048122861        6.8368003535  W2        14945           0.0000000000
     44835     14945  TIP3      H2            -35.0958966405      -51.5293922861        6.2764803535  W2        14945           0.0000000000
     44836     14946  TIP3      OH2           -20.7791666405      -37.0293022861        8.9119903535  W2        14946           0.0000000000
     44837     14946  TIP3      H1            -20.1268766405      -37.3770922861        8.3039003535  W2        14946           0.0000000000
     44838     14946  TIP3      H2            -20.2687866405      -36.5409822861        9.5579603535  W2        14946           0.0000000000
     44839     14947  TIP3      OH2           -35.5863466405      -53.2755722861       15.3105003535  W2        14947           0.0000000000
     44840     14947  TIP3      H1            -36.2512966405      -53.5215422861       15.9535903535  W2        14947           0.0000000000
     44841     14947  TIP3      H2            -36.0292166405      -52.6535322861       14.7333003535  W2        14947           0.0000000000
     44842     14948  TIP3      OH2           -33.3944166405      -40.1001622861       19.4550803535  W2        14948           0.0000000000
     44843     14948  TIP3      H1            -34.2151666405      -39.9255122861       18.9945503535  W2        14948           0.0000000000
     44844     14948  TIP3      H2            -33.6466366405      -40.1736922861       20.3755203535  W2        14948           0.0000000000
     44845     14949  TIP3      OH2           -30.4401266405      -39.1260422861       15.7134803535  W2        14949           0.0000000000
     44846     14949  TIP3      H1            -30.8650166405      -38.3161922861       15.4309403535  W2        14949           0.0000000000
     44847     14949  TIP3      H2            -29.5358466405      -39.0406322861       15.4114603535  W2        14949           0.0000000000
     44848     14950  TIP3      OH2           -26.1289866405      -37.7270422861       18.6728503535  W2        14950           0.0000000000
     44849     14950  TIP3      H1            -25.9442366405      -38.0604322861       19.5508803535  W2        14950           0.0000000000
     44850     14950  TIP3      H2            -25.2825366405      -37.4171822861       18.3507703535  W2        14950           0.0000000000
     44851     14951  TIP3      OH2           -23.7839466405      -36.4411522861       17.9169903535  W2        14951           0.0000000000
     44852     14951  TIP3      H1            -23.1070566405      -37.0739222861       17.6769103535  W2        14951           0.0000000000
     44853     14951  TIP3      H2            -23.4620666405      -36.0401022861       18.7243203535  W2        14951           0.0000000000
     44854     14952  TIP3      OH2           -18.8665666405      -53.8516022861       16.9964903535  W2        14952           0.0000000000
     44855     14952  TIP3      H1            -19.6792166405      -53.5265722861       16.6089603535  W2        14952           0.0000000000
     44856     14952  TIP3      H2            -18.6337166405      -54.6117522861       16.4634003535  W2        14952           0.0000000000
     44857     14953  TIP3      OH2           -33.0384566405      -35.8696522861       15.7610103535  W2        14953           0.0000000000
     44858     14953  TIP3      H1            -33.7588166405      -35.4295522861       15.3097803535  W2        14953           0.0000000000
     44859     14953  TIP3      H2            -33.4040566405      -36.1201822861       16.6094103535  W2        14953           0.0000000000
     44860     14954  TIP3      OH2           -30.5711966405      -36.2692622861       14.7907303535  W2        14954           0.0000000000
     44861     14954  TIP3      H1            -31.4359766405      -36.1974122861       15.1947403535  W2        14954           0.0000000000
     44862     14954  TIP3      H2            -30.6262966405      -35.7225322861       14.0069803535  W2        14954           0.0000000000
     44863     14955  TIP3      OH2           -25.8606366405      -36.3813722861       13.9663303535  W2        14955           0.0000000000
     44864     14955  TIP3      H1            -26.3172366405      -35.8524022861       13.3121703535  W2        14955           0.0000000000
     44865     14955  TIP3      H2            -25.6978366405      -35.7782322861       14.6915603535  W2        14955           0.0000000000
     44866     14956  TIP3      OH2           -23.5330066405      -37.5034122861       14.9113603535  W2        14956           0.0000000000
     44867     14956  TIP3      H1            -24.4376366405      -37.3383922861       14.6455703535  W2        14956           0.0000000000
     44868     14956  TIP3      H2            -23.1041466405      -36.6501922861       14.8457003535  W2        14956           0.0000000000
     44869     14957  TIP3      OH2           -20.9288166405      -35.9335022861       15.2061403535  W2        14957           0.0000000000
     44870     14957  TIP3      H1            -21.1106166405      -35.0176122861       14.9956303535  W2        14957           0.0000000000
     44871     14957  TIP3      H2            -20.7520366405      -36.3437922861       14.3596003535  W2        14957           0.0000000000
     44872     14958  TIP3      OH2           -33.6236466405      -37.2464022861       12.6711903535  W2        14958           0.0000000000
     44873     14958  TIP3      H1            -33.6420466405      -37.6718922861       13.5284203535  W2        14958           0.0000000000
     44874     14958  TIP3      H2            -32.8188566405      -37.5649022861       12.2624103535  W2        14958           0.0000000000
     44875     14959  TIP3      OH2           -31.4823366405      -38.5365322861       11.3261803535  W2        14959           0.0000000000
     44876     14959  TIP3      H1            -31.7012666405      -39.4527922861       11.4957803535  W2        14959           0.0000000000
     44877     14959  TIP3      H2            -30.6581166405      -38.3964922861       11.7923203535  W2        14959           0.0000000000
     44878     14960  TIP3      OH2           -28.9450866405      -38.0666022861       12.1749803535  W2        14960           0.0000000000
     44879     14960  TIP3      H1            -28.7325166405      -38.9547022861       11.8880703535  W2        14960           0.0000000000
     44880     14960  TIP3      H2            -28.8805766405      -38.1008322861       13.1293803535  W2        14960           0.0000000000
     44881     14961  TIP3      OH2           -25.4367166405      -52.4025422861       11.3193103535  W2        14961           0.0000000000
     44882     14961  TIP3      H1            -26.1110366405      -53.0319822861       11.5748903535  W2        14961           0.0000000000
     44883     14961  TIP3      H2            -24.8727966405      -52.8866522861       10.7161003535  W2        14961           0.0000000000
     44884     14962  TIP3      OH2           -20.2939966405      -54.2951422861       11.4320203535  W2        14962           0.0000000000
     44885     14962  TIP3      H1            -19.6902366405      -53.7476022861       10.9301203535  W2        14962           0.0000000000
     44886     14962  TIP3      H2            -21.1637966405      -53.9761022861       11.1914303535  W2        14962           0.0000000000
     44887     14963  TIP3      OH2           -18.5669566405      -53.1562722861        9.7651103535  W2        14963           0.0000000000
     44888     14963  TIP3      H1            -17.9552066405      -53.6707022861        9.2384703535  W2        14963           0.0000000000
     44889     14963  TIP3      H2            -18.1846166405      -52.2790622861        9.7885503535  W2        14963           0.0000000000
     44890     14964  TIP3      OH2           -33.1099666405      -53.7685122861        9.1413003535  W2        14964           0.0000000000
     44891     14964  TIP3      H1            -33.8869866405      -54.0030222861        8.6338903535  W2        14964           0.0000000000
     44892     14964  TIP3      H2            -32.5796066405      -54.5653022861        9.1501003535  W2        14964           0.0000000000
     44893     14965  TIP3      OH2           -34.2736266405      -53.9707022861        4.9449103535  W2        14965           0.0000000000
     44894     14965  TIP3      H1            -33.8345566405      -53.3596522861        4.3532603535  W2        14965           0.0000000000
     44895     14965  TIP3      H2            -34.9073866405      -53.4322922861        5.4189103535  W2        14965           0.0000000000
     44896     14966  TIP3      OH2           -28.5307066405      -53.8418022861        8.9546103535  W2        14966           0.0000000000
     44897     14966  TIP3      H1            -27.6563666405      -53.4533722861        8.9250403535  W2        14966           0.0000000000
     44898     14966  TIP3      H2            -28.6666266405      -54.0570222861        9.8773303535  W2        14966           0.0000000000
     44899     14967  TIP3      OH2           -22.9738666405      -53.8118222861       10.6037803535  W2        14967           0.0000000000
     44900     14967  TIP3      H1            -22.8977066405      -53.7166622861        9.6543803535  W2        14967           0.0000000000
     44901     14967  TIP3      H2            -23.2489466405      -54.7195322861       10.7326903535  W2        14967           0.0000000000
     44902     14968  TIP3      OH2           -21.6206066405      -53.7860422861        6.2962803535  W2        14968           0.0000000000
     44903     14968  TIP3      H1            -22.3234966405      -53.1711222861        6.0864203535  W2        14968           0.0000000000
     44904     14968  TIP3      H2            -22.0654666405      -54.6233722861        6.4273703535  W2        14968           0.0000000000
     44905     14969  TIP3      OH2           -34.3726766405      -38.0224822861        5.8424203535  W2        14969           0.0000000000
     44906     14969  TIP3      H1            -35.0576866405      -38.0605922861        5.1749303535  W2        14969           0.0000000000
     44907     14969  TIP3      H2            -34.3689566405      -37.1097222861        6.1306303535  W2        14969           0.0000000000
     44908     14970  TIP3      OH2           -32.4127166405      -52.0545522861        3.3873203535  W2        14970           0.0000000000
     44909     14970  TIP3      H1            -31.9213766405      -52.6843122861        2.8598703535  W2        14970           0.0000000000
     44910     14970  TIP3      H2            -31.7890866405      -51.7586122861        4.0504403535  W2        14970           0.0000000000
     44911     14971  TIP3      OH2           -27.3867066405      -51.7614022861        5.8443703535  W2        14971           0.0000000000
     44912     14971  TIP3      H1            -27.2085766405      -52.4080822861        6.5272303535  W2        14971           0.0000000000
     44913     14971  TIP3      H2            -27.4400866405      -50.9276322861        6.3114803535  W2        14971           0.0000000000
     44914     14972  TIP3      OH2           -25.5083266405      -36.8129922861        4.2400403535  W2        14972           0.0000000000
     44915     14972  TIP3      H1            -24.6423066405      -36.4462522861        4.0618603535  W2        14972           0.0000000000
     44916     14972  TIP3      H2            -25.7550466405      -37.2521922861        3.4261203535  W2        14972           0.0000000000
     44917     14973  TIP3      OH2           -18.7993666405      -37.2499622861        6.9191503535  W2        14973           0.0000000000
     44918     14973  TIP3      H1            -18.9936566405      -37.9977522861        6.3541103535  W2        14973           0.0000000000
     44919     14973  TIP3      H2            -18.8383566405      -36.4919522861        6.3359403535  W2        14973           0.0000000000
     44920     14974  TIP3      OH2           -33.1521666405      -53.2543222861       18.6589203535  W2        14974           0.0000000000
     44921     14974  TIP3      H1            -33.5183466405      -54.0200622861       19.1013903535  W2        14974           0.0000000000
     44922     14974  TIP3      H2            -32.2393166405      -53.2253022861       18.9454303535  W2        14974           0.0000000000
     44923     14975  TIP3      OH2           -31.1790866405      -53.9038822861       20.1946303535  W2        14975           0.0000000000
     44924     14975  TIP3      H1            -30.2807266405      -54.1778622861       20.0099703535  W2        14975           0.0000000000
     44925     14975  TIP3      H2            -31.5657766405      -54.6462822861       20.6588903535  W2        14975           0.0000000000
     44926     14976  TIP3      OH2           -32.5545566405      -37.1024022861        2.8676303535  W2        14976           0.0000000000
     44927     14976  TIP3      H1            -32.8220966405      -36.8161122861        3.7409403535  W2        14976           0.0000000000
     44928     14976  TIP3      H2            -31.7832966405      -37.6484822861        3.0198803535  W2        14976           0.0000000000
     44929     14977  TIP3      OH2           -22.7578566405      -54.5713522861       20.3769103535  W2        14977           0.0000000000
     44930     14977  TIP3      H1            -22.6811366405      -54.9972822861       21.2306803535  W2        14977           0.0000000000
     44931     14977  TIP3      H2            -21.8641966405      -54.5578822861       20.0342603535  W2        14977           0.0000000000
     44932     14978  TIP3      OH2           -19.5817466405      -38.4987222861       19.0693303535  W2        14978           0.0000000000
     44933     14978  TIP3      H1            -20.3635566405      -38.6849222861       18.5493903535  W2        14978           0.0000000000
     44934     14978  TIP3      H2            -19.6537566405      -37.5692922861       19.2865803535  W2        14978           0.0000000000
     44935     14979  TIP3      OH2            -5.1757066405      -44.6122822861        9.1000503535  W2        14979           0.0000000000
     44936     14979  TIP3      H1             -5.0865966405      -43.6684622861        8.9677603535  W2        14979           0.0000000000
     44937     14979  TIP3      H2             -5.8139466405      -44.8876422861        8.4419903535  W2        14979           0.0000000000
     44938     14980  TIP3      OH2            -6.2425766405      -45.3572122861       12.5188703535  W2        14980           0.0000000000
     44939     14980  TIP3      H1             -6.2808266405      -46.0035822861       13.2238303535  W2        14980           0.0000000000
     44940     14980  TIP3      H2             -6.5649266405      -45.8237722861       11.7477403535  W2        14980           0.0000000000
     44941     14981  TIP3      OH2           -13.8740766405      -45.7430022861       14.1118603535  W2        14981           0.0000000000
     44942     14981  TIP3      H1            -13.8328666405      -46.3686722861       14.8351003535  W2        14981           0.0000000000
     44943     14981  TIP3      H2            -13.1713066405      -45.1191422861       14.2939003535  W2        14981           0.0000000000
     44944     14982  TIP3      OH2            -2.5365566405      -42.4181722861       10.8203803535  W2        14982           0.0000000000
     44945     14982  TIP3      H1             -2.9772866405      -43.1385722861       11.2709403535  W2        14982           0.0000000000
     44946     14982  TIP3      H2             -2.5495866405      -41.6974522861       11.4501503535  W2        14982           0.0000000000
     44947     14983  TIP3      OH2           -12.9507666405      -41.2931122861       12.6467703535  W2        14983           0.0000000000
     44948     14983  TIP3      H1            -13.3202466405      -42.0950622861       12.2772003535  W2        14983           0.0000000000
     44949     14983  TIP3      H2            -12.0096566405      -41.4616222861       12.6931103535  W2        14983           0.0000000000
     44950     14984  TIP3      OH2           -16.3407166405      -47.6328522861        8.0396503535  W2        14984           0.0000000000
     44951     14984  TIP3      H1            -16.7883766405      -46.7869822861        8.0213003535  W2        14984           0.0000000000
     44952     14984  TIP3      H2            -16.9015966405      -48.2124322861        7.5241603535  W2        14984           0.0000000000
     44953     14985  TIP3      OH2           -15.6301066405      -45.4708922861       10.1654503535  W2        14985           0.0000000000
     44954     14985  TIP3      H1            -15.4167566405      -46.2407322861       10.6927503535  W2        14985           0.0000000000
     44955     14985  TIP3      H2            -14.8923466405      -45.3812222861        9.5622103535  W2        14985           0.0000000000
     44956     14986  TIP3      OH2            -5.4250066405      -37.3140022861       11.0324203535  W2        14986           0.0000000000
     44957     14986  TIP3      H1             -4.8053666405      -37.9905322861       10.7593403535  W2        14986           0.0000000000
     44958     14986  TIP3      H2             -5.6332666405      -37.5319222861       11.9409103535  W2        14986           0.0000000000
     44959     14987  TIP3      OH2            -7.8531366405      -42.9250722861       12.9249703535  W2        14987           0.0000000000
     44960     14987  TIP3      H1             -7.5493466405      -43.6109322861       12.3303803535  W2        14987           0.0000000000
     44961     14987  TIP3      H2             -7.1317366405      -42.8062022861       13.5427703535  W2        14987           0.0000000000
     44962     14988  TIP3      OH2             0.8098433595      -51.3235422861       13.7855903535  W2        14988           0.0000000000
     44963     14988  TIP3      H1              0.8590633595      -50.7134222861       14.5215003535  W2        14988           0.0000000000
     44964     14988  TIP3      H2              1.2353533595      -50.8624522861       13.0627003535  W2        14988           0.0000000000
     44965     14989  TIP3      OH2            -4.7124366405      -48.5308322861       13.2524503535  W2        14989           0.0000000000
     44966     14989  TIP3      H1             -4.5698466405      -49.4771322861       13.2726103535  W2        14989           0.0000000000
     44967     14989  TIP3      H2             -4.8185366405      -48.3238522861       12.3239403535  W2        14989           0.0000000000
     44968     14990  TIP3      OH2           -11.5576066405      -50.4291922861       10.5249303535  W2        14990           0.0000000000
     44969     14990  TIP3      H1            -11.5144966405      -49.5693422861       10.1065603535  W2        14990           0.0000000000
     44970     14990  TIP3      H2            -12.0151966405      -50.9817222861        9.8912503535  W2        14990           0.0000000000
     44971     14991  TIP3      OH2            -3.8353366405      -50.2986322861        8.9257603535  W2        14991           0.0000000000
     44972     14991  TIP3      H1             -3.1889066405      -50.6273122861        9.5505203535  W2        14991           0.0000000000
     44973     14991  TIP3      H2             -3.3253966405      -49.7807322861        8.3029003535  W2        14991           0.0000000000
     44974     14992  TIP3      OH2           -14.9374566405      -48.0326122861       11.2870703535  W2        14992           0.0000000000
     44975     14992  TIP3      H1            -14.2837966405      -48.5824422861       11.7190803535  W2        14992           0.0000000000
     44976     14992  TIP3      H2            -14.9135266405      -48.3067122861       10.3702703535  W2        14992           0.0000000000
     44977     14993  TIP3      OH2            -9.7810066405      -46.4824822861       10.5022203535  W2        14993           0.0000000000
     44978     14993  TIP3      H1             -9.1649066405      -47.0089422861       11.0116203535  W2        14993           0.0000000000
     44979     14993  TIP3      H2            -10.3671266405      -47.1226122861       10.0985803535  W2        14993           0.0000000000
     44980     14994  TIP3      OH2             1.2013033595      -49.8456222861       16.0215703535  W2        14994           0.0000000000
     44981     14994  TIP3      H1              0.5127633595      -49.1875522861       15.9262303535  W2        14994           0.0000000000
     44982     14994  TIP3      H2              1.2167633595      -50.0428322861       16.9581103535  W2        14994           0.0000000000
     44983     14995  TIP3      OH2           -12.7474166405      -51.5113522861       14.5990103535  W2        14995           0.0000000000
     44984     14995  TIP3      H1            -12.9662466405      -50.9812922861       13.8326103535  W2        14995           0.0000000000
     44985     14995  TIP3      H2            -13.4153266405      -51.2848022861       15.2461503535  W2        14995           0.0000000000
     44986     14996  TIP3      OH2            -5.3784366405      -42.0112422861        8.1429203535  W2        14996           0.0000000000
     44987     14996  TIP3      H1             -5.6739266405      -42.3340122861        7.2916103535  W2        14996           0.0000000000
     44988     14996  TIP3      H2             -5.7026566405      -41.1115722861        8.1841803535  W2        14996           0.0000000000
     44989     14997  TIP3      OH2           -10.1782766405      -43.8357822861       14.8863803535  W2        14997           0.0000000000
     44990     14997  TIP3      H1            -10.9183666405      -43.2376322861       14.9899003535  W2        14997           0.0000000000
     44991     14997  TIP3      H2             -9.4643266405      -43.2818222861       14.5707403535  W2        14997           0.0000000000
     44992     14998  TIP3      OH2            -2.0714966405      -51.0077022861       10.9063503535  W2        14998           0.0000000000
     44993     14998  TIP3      H1             -2.2866966405      -51.7733622861       11.4389503535  W2        14998           0.0000000000
     44994     14998  TIP3      H2             -1.4157566405      -50.5352422861       11.4192003535  W2        14998           0.0000000000
     44995     14999  TIP3      OH2           -13.1536866405      -49.6191722861       12.5512303535  W2        14999           0.0000000000
     44996     14999  TIP3      H1            -12.5400566405      -48.9864122861       12.9244703535  W2        14999           0.0000000000
     44997     14999  TIP3      H2            -12.6416166405      -50.0916722861       11.8949203535  W2        14999           0.0000000000
     44998     15000  TIP3      OH2           -11.7708466405      -41.8714822861       15.6735303535  W2        15000           0.0000000000
     44999     15000  TIP3      H1            -11.7760866405      -40.9921322861       15.2954603535  W2        15000           0.0000000000
     45000     15000  TIP3      H2            -12.6244366405      -41.9550722861       16.0985203535  W2        15000           0.0000000000
     45001     15001  TIP3      OH2           -15.6497566405      -42.2006922861        6.4554603535  W2        15001           0.0000000000
     45002     15001  TIP3      H1            -15.9216666405      -41.9715922861        5.5667503535  W2        15001           0.0000000000
     45003     15001  TIP3      H2            -15.6041866405      -41.3628122861        6.9159903535  W2        15001           0.0000000000
     45004     15002  TIP3      OH2            -2.0247866405      -40.5791022861       13.1683103535  W2        15002           0.0000000000
     45005     15002  TIP3      H1             -2.9664166405      -40.5207122861       13.3300003535  W2        15002           0.0000000000
     45006     15002  TIP3      H2             -1.7481766405      -39.6730522861       13.0312803535  W2        15002           0.0000000000
     45007     15003  TIP3      OH2            -1.7240866405      -52.2925722861       14.5857003535  W2        15003           0.0000000000
     45008     15003  TIP3      H1             -2.4601666405      -51.6818622861       14.5478303535  W2        15003           0.0000000000
     45009     15003  TIP3      H2             -1.0406866405      -51.8776722861       14.0593403535  W2        15003           0.0000000000
     45010     15004  TIP3      OH2            -8.7209466405      -54.2058422861       12.0515003535  W2        15004           0.0000000000
     45011     15004  TIP3      H1             -8.8385266405      -55.1542422861       11.9973303535  W2        15004           0.0000000000
     45012     15004  TIP3      H2             -9.5759366405      -53.8732322861       12.3246103535  W2        15004           0.0000000000
     45013     15005  TIP3      OH2            -3.7726666405      -38.7977522861        9.7934703535  W2        15005           0.0000000000
     45014     15005  TIP3      H1             -3.3474366405      -39.5049622861        9.3084303535  W2        15005           0.0000000000
     45015     15005  TIP3      H2             -3.4556666405      -37.9964822861        9.3766903535  W2        15005           0.0000000000
     45016     15006  TIP3      OH2            -2.6130166405      -40.8969022861        8.3021303535  W2        15006           0.0000000000
     45017     15006  TIP3      H1             -2.8705366405      -41.5868922861        7.6907203535  W2        15006           0.0000000000
     45018     15006  TIP3      H2             -2.5419366405      -41.3397822861        9.1477203535  W2        15006           0.0000000000
     45019     15007  TIP3      OH2            -0.9269966405      -42.3302322861       16.7794803535  W2        15007           0.0000000000
     45020     15007  TIP3      H1             -0.7873666405      -42.9219822861       16.0401803535  W2        15007           0.0000000000
     45021     15007  TIP3      H2             -0.7597166405      -41.4576422861       16.4233603535  W2        15007           0.0000000000
     45022     15008  TIP3      OH2            -6.4544566405      -45.3682822861        6.5520803535  W2        15008           0.0000000000
     45023     15008  TIP3      H1             -7.1659066405      -44.8333122861        6.2001303535  W2        15008           0.0000000000
     45024     15008  TIP3      H2             -5.7634966405      -45.3130722861        5.8919703535  W2        15008           0.0000000000
     45025     15009  TIP3      OH2            -6.4005366405      -46.9108522861        3.5905803535  W2        15009           0.0000000000
     45026     15009  TIP3      H1             -5.6995466405      -46.8881622861        4.2419803535  W2        15009           0.0000000000
     45027     15009  TIP3      H2             -6.0982466405      -47.5388822861        2.9345103535  W2        15009           0.0000000000
     45028     15010  TIP3      OH2             0.9149333595      -45.9904322861       14.8455203535  W2        15010           0.0000000000
     45029     15010  TIP3      H1              0.2623433595      -45.2958722861       14.9346103535  W2        15010           0.0000000000
     45030     15010  TIP3      H2              1.3799633595      -45.7803422861       14.0356803535  W2        15010           0.0000000000
     45031     15011  TIP3      OH2            -3.0486866405      -45.1589522861        7.5036703535  W2        15011           0.0000000000
     45032     15011  TIP3      H1             -3.7805866405      -44.9305822861        8.0767303535  W2        15011           0.0000000000
     45033     15011  TIP3      H2             -2.6014666405      -45.8726822861        7.9584203535  W2        15011           0.0000000000
     45034     15012  TIP3      OH2            -3.1513366405      -46.9846922861       16.5713703535  W2        15012           0.0000000000
     45035     15012  TIP3      H1             -3.0714266405      -46.2212522861       17.1432203535  W2        15012           0.0000000000
     45036     15012  TIP3      H2             -3.7525666405      -46.7054522861       15.8808803535  W2        15012           0.0000000000
     45037     15013  TIP3      OH2           -11.4033166405      -44.5283322861        9.3861703535  W2        15013           0.0000000000
     45038     15013  TIP3      H1            -11.7337966405      -44.8989922861        8.5678703535  W2        15013           0.0000000000
     45039     15013  TIP3      H2            -10.8149066405      -45.1989322861        9.7330003535  W2        15013           0.0000000000
     45040     15014  TIP3      OH2           -10.0365666405      -41.1002722861       12.0673903535  W2        15014           0.0000000000
     45041     15014  TIP3      H1            -10.1314366405      -41.6789622861       11.3108503535  W2        15014           0.0000000000
     45042     15014  TIP3      H2             -9.3072066405      -41.4717022861       12.5636703535  W2        15014           0.0000000000
     45043     15015  TIP3      OH2           -11.0367666405      -45.7597722861       13.0196703535  W2        15015           0.0000000000
     45044     15015  TIP3      H1            -10.4715166405      -45.6383522861       12.2567903535  W2        15015           0.0000000000
     45045     15015  TIP3      H2            -10.7178766405      -45.1222722861       13.6585203535  W2        15015           0.0000000000
     45046     15016  TIP3      OH2            -4.7275466405      -40.2565822861       13.7537203535  W2        15016           0.0000000000
     45047     15016  TIP3      H1             -4.9678866405      -39.5942722861       14.4016403535  W2        15016           0.0000000000
     45048     15016  TIP3      H2             -4.9257266405      -41.0910622861       14.1786803535  W2        15016           0.0000000000
     45049     15017  TIP3      OH2           -10.1566966405      -41.3605022861       17.7368603535  W2        15017           0.0000000000
     45050     15017  TIP3      H1            -10.4679466405      -40.5781822861       18.1921803535  W2        15017           0.0000000000
     45051     15017  TIP3      H2            -10.8066766405      -41.5135922861       17.0510603535  W2        15017           0.0000000000
     45052     15018  TIP3      OH2            -4.1777366405      -45.9966622861        5.1887903535  W2        15018           0.0000000000
     45053     15018  TIP3      H1             -3.5981866405      -45.8466322861        5.9356803535  W2        15018           0.0000000000
     45054     15018  TIP3      H2             -3.7637366405      -45.5259222861        4.4654303535  W2        15018           0.0000000000
     45055     15019  TIP3      OH2           -13.2367066405      -45.1623922861       16.9654303535  W2        15019           0.0000000000
     45056     15019  TIP3      H1            -13.1663866405      -44.5117122861       17.6639303535  W2        15019           0.0000000000
     45057     15019  TIP3      H2            -14.1274866405      -45.0596422861       16.6305203535  W2        15019           0.0000000000
     45058     15020  TIP3      OH2            -6.4512466405      -39.2598122861        8.6241003535  W2        15020           0.0000000000
     45059     15020  TIP3      H1             -5.9774866405      -38.9641822861        9.4015203535  W2        15020           0.0000000000
     45060     15020  TIP3      H2             -7.0143166405      -38.5216522861        8.3910603535  W2        15020           0.0000000000
     45061     15021  TIP3      OH2           -11.9171066405      -39.2890022861       18.5002403535  W2        15021           0.0000000000
     45062     15021  TIP3      H1            -11.9095766405      -39.4250322861       17.5527903535  W2        15021           0.0000000000
     45063     15021  TIP3      H2            -12.8330666405      -39.4061922861       18.7522403535  W2        15021           0.0000000000
     45064     15022  TIP3      OH2            -0.4788966405      -54.2466222861        5.0017603535  W2        15022           0.0000000000
     45065     15022  TIP3      H1             -1.3788266405      -54.1077222861        5.2968203535  W2        15022           0.0000000000
     45066     15022  TIP3      H2             -0.2270566405      -53.4151622861        4.5999303535  W2        15022           0.0000000000
     45067     15023  TIP3      OH2           -12.4130466405      -45.4589022861        6.9754503535  W2        15023           0.0000000000
     45068     15023  TIP3      H1            -12.7049166405      -44.6907322861        6.4845803535  W2        15023           0.0000000000
     45069     15023  TIP3      H2            -13.0875266405      -46.1182822861        6.8125903535  W2        15023           0.0000000000
     45070     15024  TIP3      OH2             0.7102433595      -39.8803822861        3.3781503535  W2        15024           0.0000000000
     45071     15024  TIP3      H1              0.7835933595      -38.9413622861        3.5486803535  W2        15024           0.0000000000
     45072     15024  TIP3      H2              1.6157533595      -40.1855222861        3.3218803535  W2        15024           0.0000000000
     45073     15025  TIP3      OH2           -16.3200366405      -43.0959822861       15.7904303535  W2        15025           0.0000000000
     45074     15025  TIP3      H1            -16.8211966405      -43.1240422861       14.9754003535  W2        15025           0.0000000000
     45075     15025  TIP3      H2            -16.3146666405      -44.0016622861       16.1001603535  W2        15025           0.0000000000
     45076     15026  TIP3      OH2           -16.5697666405      -40.3156022861       12.6744503535  W2        15026           0.0000000000
     45077     15026  TIP3      H1            -15.6237066405      -40.4599022861       12.6554003535  W2        15026           0.0000000000
     45078     15026  TIP3      H2            -16.6821366405      -39.5313222861       13.2115703535  W2        15026           0.0000000000
     45079     15027  TIP3      OH2             1.6280833595      -39.6496322861       18.3568203535  W2        15027           0.0000000000
     45080     15027  TIP3      H1              1.5787633595      -40.6048222861       18.3195803535  W2        15027           0.0000000000
     45081     15027  TIP3      H2              0.8013133595      -39.3821022861       18.7582003535  W2        15027           0.0000000000
     45082     15028  TIP3      OH2            -7.3935166405      -40.0757122861       17.2329603535  W2        15028           0.0000000000
     45083     15028  TIP3      H1             -7.3060566405      -39.2492522861       17.7078703535  W2        15028           0.0000000000
     45084     15028  TIP3      H2             -8.2570066405      -40.4053322861       17.4818903535  W2        15028           0.0000000000
     45085     15029  TIP3      OH2            -6.9789366405      -36.3033422861        7.0390203535  W2        15029           0.0000000000
     45086     15029  TIP3      H1             -7.0543366405      -36.4246222861        6.0925403535  W2        15029           0.0000000000
     45087     15029  TIP3      H2             -6.9460666405      -35.3540722861        7.1574803535  W2        15029           0.0000000000
     45088     15030  TIP3      OH2           -13.3255566405      -37.5146422861        8.8199203535  W2        15030           0.0000000000
     45089     15030  TIP3      H1            -13.1735166405      -37.8626022861        9.6985703535  W2        15030           0.0000000000
     45090     15030  TIP3      H2            -14.1765166405      -37.8709122861        8.5646403535  W2        15030           0.0000000000
     45091     15031  TIP3      OH2            -3.8773366405      -37.1493222861        4.0412603535  W2        15031           0.0000000000
     45092     15031  TIP3      H1             -3.5024966405      -37.8937122861        3.5705203535  W2        15031           0.0000000000
     45093     15031  TIP3      H2             -3.8729666405      -37.4192622861        4.9595903535  W2        15031           0.0000000000
     45094     15032  TIP3      OH2            -4.2085266405      -37.2236122861        6.7904803535  W2        15032           0.0000000000
     45095     15032  TIP3      H1             -5.1435466405      -37.1234222861        6.9691803535  W2        15032           0.0000000000
     45096     15032  TIP3      H2             -3.9283366405      -37.9330122861        7.3688003535  W2        15032           0.0000000000
     45097     15033  TIP3      OH2            -1.2199366405      -48.1563822861       18.8370403535  W2        15033           0.0000000000
     45098     15033  TIP3      H1             -1.6272566405      -47.6758222861       18.1163703535  W2        15033           0.0000000000
     45099     15033  TIP3      H2             -1.1793666405      -49.0617822861       18.5291203535  W2        15033           0.0000000000
     45100     15034  TIP3      OH2           -14.0709866405      -41.7724422861       16.8337103535  W2        15034           0.0000000000
     45101     15034  TIP3      H1            -13.8548566405      -42.1338822861       17.6932903535  W2        15034           0.0000000000
     45102     15034  TIP3      H2            -14.9265166405      -42.1470622861       16.6240603535  W2        15034           0.0000000000
     45103     15035  TIP3      OH2           -11.4521866405      -53.3023922861       12.8291303535  W2        15035           0.0000000000
     45104     15035  TIP3      H1            -12.3138166405      -53.3895722861       12.4214203535  W2        15035           0.0000000000
     45105     15035  TIP3      H2            -11.4746166405      -52.4463822861       13.2568903535  W2        15035           0.0000000000
     45106     15036  TIP3      OH2            -6.7894066405      -53.5803522861       16.2038303535  W2        15036           0.0000000000
     45107     15036  TIP3      H1             -6.3690966405      -53.9956422861       16.9568903535  W2        15036           0.0000000000
     45108     15036  TIP3      H2             -7.7224466405      -53.7590222861       16.3210303535  W2        15036           0.0000000000
     45109     15037  TIP3      OH2            -3.4629166405      -49.8248322861       17.0572803535  W2        15037           0.0000000000
     45110     15037  TIP3      H1             -3.9769666405      -49.9506122861       17.8548803535  W2        15037           0.0000000000
     45111     15037  TIP3      H2             -3.6184466405      -48.9125222861       16.8129003535  W2        15037           0.0000000000
     45112     15038  TIP3      OH2            -2.7004266405      -44.9638322861        2.8185803535  W2        15038           0.0000000000
     45113     15038  TIP3      H1             -2.6583466405      -45.1864422861        1.8885803535  W2        15038           0.0000000000
     45114     15038  TIP3      H2             -1.8512166405      -44.5651222861        3.0085703535  W2        15038           0.0000000000
     45115     15039  TIP3      OH2            -7.1276766405      -51.0880122861        3.4889103535  W2        15039           0.0000000000
     45116     15039  TIP3      H1             -7.3811966405      -51.0688522861        4.4117203535  W2        15039           0.0000000000
     45117     15039  TIP3      H2             -7.3844666405      -51.9594722861        3.1875303535  W2        15039           0.0000000000
     45118     15040  TIP3      OH2           -11.3611766405      -48.3369422861       13.9241503535  W2        15040           0.0000000000
     45119     15040  TIP3      H1            -12.0029666405      -48.3772122861       14.6331603535  W2        15040           0.0000000000
     45120     15040  TIP3      H2            -11.3239766405      -47.4104722861       13.6864503535  W2        15040           0.0000000000
     45121     15041  TIP3      OH2           -11.3642666405      -48.1159322861        8.8361503535  W2        15041           0.0000000000
     45122     15041  TIP3      H1            -12.2569766405      -48.4563222861        8.7775303535  W2        15041           0.0000000000
     45123     15041  TIP3      H2            -10.9136066405      -48.4928422861        8.0804703535  W2        15041           0.0000000000
     45124     15042  TIP3      OH2            -5.8287166405      -47.6999022861        7.6532303535  W2        15042           0.0000000000
     45125     15042  TIP3      H1             -6.2376866405      -46.8850422861        7.3617103535  W2        15042           0.0000000000
     45126     15042  TIP3      H2             -5.1080966405      -47.8398922861        7.0389403535  W2        15042           0.0000000000
     45127     15043  TIP3      OH2            -6.7265566405      -47.5242622861       19.1413003535  W2        15043           0.0000000000
     45128     15043  TIP3      H1             -7.2891766405      -48.2291022861       19.4620803535  W2        15043           0.0000000000
     45129     15043  TIP3      H2             -5.9002166405      -47.6450722861       19.6090603535  W2        15043           0.0000000000
     45130     15044  TIP3      OH2            -4.8239466405      -48.2538622861       10.4672003535  W2        15044           0.0000000000
     45131     15044  TIP3      H1             -5.0194966405      -47.6481822861        9.7522603535  W2        15044           0.0000000000
     45132     15044  TIP3      H2             -4.6426866405      -49.0873422861       10.0328303535  W2        15044           0.0000000000
     45133     15045  TIP3      OH2           -13.6111266405      -48.0165922861       15.7913503535  W2        15045           0.0000000000
     45134     15045  TIP3      H1            -13.6491866405      -47.6164322861       16.6600603535  W2        15045           0.0000000000
     45135     15045  TIP3      H2            -14.1020166405      -48.8333522861       15.8816403535  W2        15045           0.0000000000
     45136     15046  TIP3      OH2           -10.2453866405      -50.6423622861        2.5899503535  W2        15046           0.0000000000
     45137     15046  TIP3      H1            -10.6763166405      -51.0873522861        3.3196903535  W2        15046           0.0000000000
     45138     15046  TIP3      H2            -10.9635166405      -50.2707322861        2.0777003535  W2        15046           0.0000000000
     45139     15047  TIP3      OH2           -17.0030466405      -50.9004122861        9.6418203535  W2        15047           0.0000000000
     45140     15047  TIP3      H1            -16.3722766405      -50.9292022861       10.3612103535  W2        15047           0.0000000000
     45141     15047  TIP3      H2            -16.5536166405      -51.3255422861        8.9114103535  W2        15047           0.0000000000
     45142     15048  TIP3      OH2           -15.7288366405      -50.1542122861        5.0658603535  W2        15048           0.0000000000
     45143     15048  TIP3      H1            -15.2546666405      -49.5632222861        4.4809503535  W2        15048           0.0000000000
     45144     15048  TIP3      H2            -16.4461966405      -49.6239222861        5.4128703535  W2        15048           0.0000000000
     45145     15049  TIP3      OH2            -5.5600266405      -46.6157322861       15.1384403535  W2        15049           0.0000000000
     45146     15049  TIP3      H1             -5.2365466405      -47.2467622861       14.4954903535  W2        15049           0.0000000000
     45147     15049  TIP3      H2             -6.0000966405      -47.1505122861       15.7991803535  W2        15049           0.0000000000
     45148     15050  TIP3      OH2            -8.7827366405      -50.6881822861        9.9225603535  W2        15050           0.0000000000
     45149     15050  TIP3      H1             -9.6936266405      -50.6315022861       10.2111603535  W2        15050           0.0000000000
     45150     15050  TIP3      H2             -8.2774466405      -50.7486322861       10.7332803535  W2        15050           0.0000000000
     45151     15051  TIP3      OH2           -13.9543966405      -49.0595522861        8.7493203535  W2        15051           0.0000000000
     45152     15051  TIP3      H1            -14.8435966405      -48.9600022861        8.4092803535  W2        15051           0.0000000000
     45153     15051  TIP3      H2            -13.6579066405      -49.9012522861        8.4031103535  W2        15051           0.0000000000
     45154     15052  TIP3      OH2           -10.3012166405      -49.0592922861        6.4057803535  W2        15052           0.0000000000
     45155     15052  TIP3      H1             -9.3696666405      -48.9302922861        6.5840903535  W2        15052           0.0000000000
     45156     15052  TIP3      H2            -10.5161866405      -48.3898622861        5.7562503535  W2        15052           0.0000000000
     45157     15053  TIP3      OH2            -4.3775466405      -51.4535522861       13.1867403535  W2        15053           0.0000000000
     45158     15053  TIP3      H1             -5.0543866405      -51.3222422861       13.8507103535  W2        15053           0.0000000000
     45159     15053  TIP3      H2             -4.8630566405      -51.6086022861       12.3765103535  W2        15053           0.0000000000
     45160     15054  TIP3      OH2           -11.6271966405      -47.8650722861        3.9723903535  W2        15054           0.0000000000
     45161     15054  TIP3      H1            -12.1696866405      -48.2446922861        3.2811503535  W2        15054           0.0000000000
     45162     15054  TIP3      H2            -10.7937066405      -47.6706022861        3.5438003535  W2        15054           0.0000000000
     45163     15055  TIP3      OH2            -1.0900366405      -35.7820122861       19.4635003535  W2        15055           0.0000000000
     45164     15055  TIP3      H1             -0.8901666405      -35.3578222861       18.6290303535  W2        15055           0.0000000000
     45165     15055  TIP3      H2             -0.4346666405      -35.4381922861       20.0705403535  W2        15055           0.0000000000
     45166     15056  TIP3      OH2           -13.4920566405      -43.3078822861       19.0715503535  W2        15056           0.0000000000
     45167     15056  TIP3      H1            -12.7598166405      -43.0532922861       19.6330003535  W2        15056           0.0000000000
     45168     15056  TIP3      H2            -14.2721866405      -43.1033422861       19.5870903535  W2        15056           0.0000000000
     45169     15057  TIP3      OH2            -7.4627666405      -47.9008822861       11.8095203535  W2        15057           0.0000000000
     45170     15057  TIP3      H1             -6.8984266405      -48.4472222861       11.2624803535  W2        15057           0.0000000000
     45171     15057  TIP3      H2             -7.6104266405      -48.4226922861       12.5982803535  W2        15057           0.0000000000
     45172     15058  TIP3      OH2           -12.4607966405      -51.7642722861        8.2280003535  W2        15058           0.0000000000
     45173     15058  TIP3      H1            -12.7778466405      -52.6667422861        8.1925403535  W2        15058           0.0000000000
     45174     15058  TIP3      H2            -11.6793866405      -51.7625322861        7.6751603535  W2        15058           0.0000000000
     45175     15059  TIP3      OH2            -8.8361766405      -49.5122722861       14.2235603535  W2        15059           0.0000000000
     45176     15059  TIP3      H1             -9.6716466405      -49.0583222861       14.3338003535  W2        15059           0.0000000000
     45177     15059  TIP3      H2             -8.3121166405      -49.2364222861       14.9755503535  W2        15059           0.0000000000
     45178     15060  TIP3      OH2            -8.2919166405      -43.2995022861        5.9082003535  W2        15060           0.0000000000
     45179     15060  TIP3      H1             -9.0368166405      -43.8069722861        5.5859903535  W2        15060           0.0000000000
     45180     15060  TIP3      H2             -8.4261966405      -43.2507022861        6.8546803535  W2        15060           0.0000000000
     45181     15061  TIP3      OH2            -1.1420266405      -44.1666822861       14.6949603535  W2        15061           0.0000000000
     45182     15061  TIP3      H1             -0.5001466405      -43.7100522861       14.1511803535  W2        15061           0.0000000000
     45183     15061  TIP3      H2             -1.9723366405      -44.0534422861       14.2323703535  W2        15061           0.0000000000
     45184     15062  TIP3      OH2            -4.3942366405      -50.4855122861        4.1074603535  W2        15062           0.0000000000
     45185     15062  TIP3      H1             -5.3328166405      -50.3739522861        3.9563403535  W2        15062           0.0000000000
     45186     15062  TIP3      H2             -4.0970266405      -49.6288222861        4.4140303535  W2        15062           0.0000000000
     45187     15063  TIP3      OH2            -6.7727066405      -43.1151722861       17.1451103535  W2        15063           0.0000000000
     45188     15063  TIP3      H1             -7.1180966405      -43.4969322861       17.9520703535  W2        15063           0.0000000000
     45189     15063  TIP3      H2             -6.9726966405      -42.1818122861       17.2164003535  W2        15063           0.0000000000
     45190     15064  TIP3      OH2            -3.6758866405      -48.6182422861        5.7682003535  W2        15064           0.0000000000
     45191     15064  TIP3      H1             -2.7839866405      -48.7557422861        6.0873203535  W2        15064           0.0000000000
     45192     15064  TIP3      H2             -3.6195266405      -47.8276322861        5.2315503535  W2        15064           0.0000000000
     45193     15065  TIP3      OH2           -13.1670866405      -44.0045022861       11.6779903535  W2        15065           0.0000000000
     45194     15065  TIP3      H1            -12.4223666405      -44.0069322861       11.0766403535  W2        15065           0.0000000000
     45195     15065  TIP3      H2            -13.0894266405      -44.8281222861       12.1595003535  W2        15065           0.0000000000
     45196     15066  TIP3      OH2            -6.1665066405      -41.8410722861        4.9336603535  W2        15066           0.0000000000
     45197     15066  TIP3      H1             -6.4616666405      -41.0142822861        5.3151403535  W2        15066           0.0000000000
     45198     15066  TIP3      H2             -6.8695066405      -42.4603822861        5.1298003535  W2        15066           0.0000000000
     45199     15067  TIP3      OH2           -16.1591166405      -45.5438122861       16.9928403535  W2        15067           0.0000000000
     45200     15067  TIP3      H1            -15.9362566405      -45.9618522861       17.8245903535  W2        15067           0.0000000000
     45201     15067  TIP3      H2            -16.7611066405      -46.1563122861       16.5701203535  W2        15067           0.0000000000
     45202     15068  TIP3      OH2            -9.1426266405      -46.0268222861       19.2058103535  W2        15068           0.0000000000
     45203     15068  TIP3      H1             -9.4385466405      -46.1925222861       18.3107203535  W2        15068           0.0000000000
     45204     15068  TIP3      H2             -8.2111066405      -46.2467922861       19.1952003535  W2        15068           0.0000000000
     45205     15069  TIP3      OH2            -4.5223466405      -40.6536222861       17.0956103535  W2        15069           0.0000000000
     45206     15069  TIP3      H1             -5.4229166405      -40.4703622861       16.8280003535  W2        15069           0.0000000000
     45207     15069  TIP3      H2             -4.4882366405      -40.3946922861       18.0164903535  W2        15069           0.0000000000
     45208     15070  TIP3      OH2             1.2089833595      -48.4088322861        5.4628703535  W2        15070           0.0000000000
     45209     15070  TIP3      H1              0.6546133595      -48.8050322861        4.7906203535  W2        15070           0.0000000000
     45210     15070  TIP3      H2              1.3093433595      -47.4983122861        5.1852003535  W2        15070           0.0000000000
     45211     15071  TIP3      OH2             1.1721833595      -42.6086622861       18.3000203535  W2        15071           0.0000000000
     45212     15071  TIP3      H1              0.3210333595      -42.3702822861       17.9326603535  W2        15071           0.0000000000
     45213     15071  TIP3      H2              1.7625233595      -42.6253422861       17.5467303535  W2        15071           0.0000000000
     45214     15072  TIP3      OH2            -0.4958466405      -39.6227922861        5.9280803535  W2        15072           0.0000000000
     45215     15072  TIP3      H1             -0.8687366405      -40.4484122861        6.2371403535  W2        15072           0.0000000000
     45216     15072  TIP3      H2             -0.2184966405      -39.8058522861        5.0304203535  W2        15072           0.0000000000
     45217     15073  TIP3      OH2            -3.3354566405      -44.8148422861       12.9492703535  W2        15073           0.0000000000
     45218     15073  TIP3      H1             -4.2637666405      -45.0466522861       12.9222003535  W2        15073           0.0000000000
     45219     15073  TIP3      H2             -2.8843466405      -45.5918622861       12.6191503535  W2        15073           0.0000000000
     45220     15074  TIP3      OH2           -10.7921466405      -40.4866822861        9.0821403535  W2        15074           0.0000000000
     45221     15074  TIP3      H1            -10.2649266405      -39.7132422861        8.8820203535  W2        15074           0.0000000000
     45222     15074  TIP3      H2            -11.6722966405      -40.2617622861        8.7805403535  W2        15074           0.0000000000
     45223     15075  TIP3      OH2           -15.0373766405      -45.6242722861        3.6693803535  W2        15075           0.0000000000
     45224     15075  TIP3      H1            -14.4213866405      -44.9975522861        4.0488603535  W2        15075           0.0000000000
     45225     15075  TIP3      H2            -15.8991166405      -45.3082922861        3.9410303535  W2        15075           0.0000000000
     45226     15076  TIP3      OH2            -9.3649166405      -42.8236922861        8.6585703535  W2        15076           0.0000000000
     45227     15076  TIP3      H1             -9.6059166405      -41.8982522861        8.7001003535  W2        15076           0.0000000000
     45228     15076  TIP3      H2            -10.1055566405      -43.2825622861        9.0549603535  W2        15076           0.0000000000
     45229     15077  TIP3      OH2            -8.8502566405      -38.6743322861       14.9736803535  W2        15077           0.0000000000
     45230     15077  TIP3      H1             -8.4877866405      -37.8197722861       14.7401203535  W2        15077           0.0000000000
     45231     15077  TIP3      H2             -8.3187366405      -38.9661722861       15.7143103535  W2        15077           0.0000000000
     45232     15078  TIP3      OH2           -10.6818366405      -37.8019322861        8.2037903535  W2        15078           0.0000000000
     45233     15078  TIP3      H1            -11.6317866405      -37.6961922861        8.2551203535  W2        15078           0.0000000000
     45234     15078  TIP3      H2            -10.3300266405      -36.9811922861        8.5485403535  W2        15078           0.0000000000
     45235     15079  TIP3      OH2            -5.3061766405      -42.5752622861       14.6742403535  W2        15079           0.0000000000
     45236     15079  TIP3      H1             -5.7320466405      -42.8030922861       15.5006403535  W2        15079           0.0000000000
     45237     15079  TIP3      H2             -4.7255966405      -43.3140822861       14.4917703535  W2        15079           0.0000000000
     45238     15080  TIP3      OH2            -3.1032866405      -41.6462122861        3.7481403535  W2        15080           0.0000000000
     45239     15080  TIP3      H1             -2.7499766405      -42.0262322861        4.5524903535  W2        15080           0.0000000000
     45240     15080  TIP3      H2             -4.0519366405      -41.7397322861        3.8350703535  W2        15080           0.0000000000
     45241     15081  TIP3      OH2            -2.6477566405      -38.0233122861       17.1437203535  W2        15081           0.0000000000
     45242     15081  TIP3      H1             -3.2494366405      -38.5790222861       16.6483503535  W2        15081           0.0000000000
     45243     15081  TIP3      H2             -2.3663866405      -37.3563322861       16.5174603535  W2        15081           0.0000000000
     45244     15082  TIP3      OH2             1.4001533595      -37.1669622861        3.9491603535  W2        15082           0.0000000000
     45245     15082  TIP3      H1              2.1439433595      -36.5809122861        3.8093203535  W2        15082           0.0000000000
     45246     15082  TIP3      H2              0.7059633595      -36.5983822861        4.2824003535  W2        15082           0.0000000000
     45247     15083  TIP3      OH2           -14.5251666405      -50.7905422861       16.5509803535  W2        15083           0.0000000000
     45248     15083  TIP3      H1            -15.4179366405      -50.4520022861       16.4833803535  W2        15083           0.0000000000
     45249     15083  TIP3      H2            -14.6238866405      -51.6459322861       16.9690603535  W2        15083           0.0000000000
     45250     15084  TIP3      OH2            -2.2373566405      -42.9740122861        5.9749303535  W2        15084           0.0000000000
     45251     15084  TIP3      H1             -2.5145966405      -43.7020822861        6.5310403535  W2        15084           0.0000000000
     45252     15084  TIP3      H2             -1.3100566405      -42.8548122861        6.1801903535  W2        15084           0.0000000000
     45253     15085  TIP3      OH2           -14.8739666405      -38.9861022861       14.9859203535  W2        15085           0.0000000000
     45254     15085  TIP3      H1            -14.6569366405      -39.9178622861       14.9548903535  W2        15085           0.0000000000
     45255     15085  TIP3      H2            -14.6276166405      -38.7116022861       15.8692003535  W2        15085           0.0000000000
     45256     15086  TIP3      OH2            -9.0125066405      -40.5346022861        2.1951403535  W2        15086           0.0000000000
     45257     15086  TIP3      H1             -8.7735266405      -41.2827922861        1.6480303535  W2        15086           0.0000000000
     45258     15086  TIP3      H2             -9.2813766405      -40.9224322861        3.0279203535  W2        15086           0.0000000000
     45259     15087  TIP3      OH2           -10.0754466405      -40.9642222861        4.6514003535  W2        15087           0.0000000000
     45260     15087  TIP3      H1             -9.9286466405      -41.4842422861        5.4414903535  W2        15087           0.0000000000
     45261     15087  TIP3      H2            -10.0782766405      -40.0574622861        4.9579903535  W2        15087           0.0000000000
     45262     15088  TIP3      OH2           -13.6223366405      -43.7118922861        5.1619403535  W2        15088           0.0000000000
     45263     15088  TIP3      H1            -14.3084066405      -43.3596422861        5.7289103535  W2        15088           0.0000000000
     45264     15088  TIP3      H2            -13.0995466405      -42.9489322861        4.9153703535  W2        15088           0.0000000000
     45265     15089  TIP3      OH2            -5.7908266405      -51.0495122861       15.4408403535  W2        15089           0.0000000000
     45266     15089  TIP3      H1             -5.0920366405      -50.9756422861       16.0908103535  W2        15089           0.0000000000
     45267     15089  TIP3      H2             -6.1716866405      -51.9140122861       15.5951303535  W2        15089           0.0000000000
     45268     15090  TIP3      OH2            -5.0063366405      -51.3973422861        6.5380703535  W2        15090           0.0000000000
     45269     15090  TIP3      H1             -4.7865066405      -50.9258022861        5.7346103535  W2        15090           0.0000000000
     45270     15090  TIP3      H2             -4.4479366405      -51.0030822861        7.2081303535  W2        15090           0.0000000000
     45271     15091  TIP3      OH2            -7.3377266405      -39.2668622861        5.4008203535  W2        15091           0.0000000000
     45272     15091  TIP3      H1             -8.1541166405      -38.7698922861        5.4532503535  W2        15091           0.0000000000
     45273     15091  TIP3      H2             -6.8080966405      -38.7915122861        4.7607003535  W2        15091           0.0000000000
     45274     15092  TIP3      OH2            -7.8063466405      -49.6694622861        7.3729103535  W2        15092           0.0000000000
     45275     15092  TIP3      H1             -6.9940866405      -49.1651422861        7.4190803535  W2        15092           0.0000000000
     45276     15092  TIP3      H2             -8.0510466405      -49.8144922861        8.2868703535  W2        15092           0.0000000000
     45277     15093  TIP3      OH2            -7.2707066405      -48.6831922861       16.5575703535  W2        15093           0.0000000000
     45278     15093  TIP3      H1             -7.1516766405      -48.1096522861       17.3146103535  W2        15093           0.0000000000
     45279     15093  TIP3      H2             -6.6152466405      -49.3712522861       16.6723503535  W2        15093           0.0000000000
     45280     15094  TIP3      OH2            -6.9226766405      -52.5881622861        8.3110203535  W2        15094           0.0000000000
     45281     15094  TIP3      H1             -7.2693266405      -51.9711022861        8.9554503535  W2        15094           0.0000000000
     45282     15094  TIP3      H2             -6.2639866405      -52.0875922861        7.8295703535  W2        15094           0.0000000000
     45283     15095  TIP3      OH2            -9.9994166405      -38.2231422861        5.3825103535  W2        15095           0.0000000000
     45284     15095  TIP3      H1             -9.8385466405      -37.4233922861        4.8817703535  W2        15095           0.0000000000
     45285     15095  TIP3      H2            -10.1966366405      -37.9165422861        6.2675703535  W2        15095           0.0000000000
     45286     15096  TIP3      OH2           -11.2649766405      -51.5252222861        4.9982703535  W2        15096           0.0000000000
     45287     15096  TIP3      H1            -11.3484966405      -50.6369122861        5.3449103535  W2        15096           0.0000000000
     45288     15096  TIP3      H2            -10.3749466405      -51.7905522861        5.2299503535  W2        15096           0.0000000000
     45289     15097  TIP3      OH2            -1.0661266405      -50.7761622861       17.3925403535  W2        15097           0.0000000000
     45290     15097  TIP3      H1             -1.9825466405      -50.5139922861       17.3049103535  W2        15097           0.0000000000
     45291     15097  TIP3      H2             -0.7306266405      -50.7792622861       16.4960703535  W2        15097           0.0000000000
     45292     15098  TIP3      OH2            -2.4640266405      -47.0260622861       11.4882703535  W2        15098           0.0000000000
     45293     15098  TIP3      H1             -3.2615866405      -47.4410422861       11.1597703535  W2        15098           0.0000000000
     45294     15098  TIP3      H2             -2.0189166405      -47.7166922861       11.9793203535  W2        15098           0.0000000000
     45295     15099  TIP3      OH2           -13.0064466405      -41.0980022861        4.0587203535  W2        15099           0.0000000000
     45296     15099  TIP3      H1            -12.4142966405      -40.3985222861        4.3349603535  W2        15099           0.0000000000
     45297     15099  TIP3      H2            -12.5471466405      -41.5310522861        3.3391803535  W2        15099           0.0000000000
     45298     15100  TIP3      OH2           -14.6905266405      -48.4337022861        3.1746603535  W2        15100           0.0000000000
     45299     15100  TIP3      H1            -14.7352666405      -47.4943922861        3.3533603535  W2        15100           0.0000000000
     45300     15100  TIP3      H2            -15.5782066405      -48.6692122861        2.9048703535  W2        15100           0.0000000000
     45301     15101  TIP3      OH2            -1.3775666405      -37.7698122861       13.1106203535  W2        15101           0.0000000000
     45302     15101  TIP3      H1             -1.5331366405      -37.0913722861       12.4535503535  W2        15101           0.0000000000
     45303     15101  TIP3      H2             -0.4449266405      -37.6978822861       13.3136803535  W2        15101           0.0000000000
     45304     15102  TIP3      OH2           -13.8823266405      -53.6520422861       11.8477603535  W2        15102           0.0000000000
     45305     15102  TIP3      H1            -14.1113466405      -53.5927922861       10.9202603535  W2        15102           0.0000000000
     45306     15102  TIP3      H2            -14.3249866405      -54.4434922861       12.1541703535  W2        15102           0.0000000000
     45307     15103  TIP3      OH2           -14.9519966405      -39.7113322861        8.0083403535  W2        15103           0.0000000000
     45308     15103  TIP3      H1            -15.7841366405      -39.2390622861        8.0354803535  W2        15103           0.0000000000
     45309     15103  TIP3      H2            -14.4061666405      -39.2015722861        7.4096503535  W2        15103           0.0000000000
     45310     15104  TIP3      OH2           -15.6636266405      -37.0989622861       19.3381403535  W2        15104           0.0000000000
     45311     15104  TIP3      H1            -15.1234066405      -37.3155622861       20.0980603535  W2        15104           0.0000000000
     45312     15104  TIP3      H2            -16.1448266405      -37.9043622861       19.1483903535  W2        15104           0.0000000000
     45313     15105  TIP3      OH2           -11.0662866405      -38.1795222861       20.9585603535  W2        15105           0.0000000000
     45314     15105  TIP3      H1            -10.2985666405      -38.6384422861       21.2994803535  W2        15105           0.0000000000
     45315     15105  TIP3      H2            -11.0876666405      -38.4055422861       20.0286803535  W2        15105           0.0000000000
     45316     15106  TIP3      OH2            -6.9743266405      -38.6714622861        2.3337403535  W2        15106           0.0000000000
     45317     15106  TIP3      H1             -7.6182266405      -39.3026022861        2.6551103535  W2        15106           0.0000000000
     45318     15106  TIP3      H2             -6.2124966405      -39.2026622861        2.1020903535  W2        15106           0.0000000000
     45319     15107  TIP3      OH2            -4.4894166405      -39.7994122861       19.6877103535  W2        15107           0.0000000000
     45320     15107  TIP3      H1             -4.8404666405      -40.6561122861       19.9307503535  W2        15107           0.0000000000
     45321     15107  TIP3      H2             -3.7630966405      -39.6567422861       20.2946103535  W2        15107           0.0000000000
     45322     15108  TIP3      OH2            -2.3700366405      -38.8544722861        2.5675403535  W2        15108           0.0000000000
     45323     15108  TIP3      H1             -2.0869966405      -39.6489522861        3.0202303535  W2        15108           0.0000000000
     45324     15108  TIP3      H2             -1.6302466405      -38.6213722861        2.0066503535  W2        15108           0.0000000000
     45325     15109  TIP3      OH2           -15.7566766405      -43.2885522861       20.2925703535  W2        15109           0.0000000000
     45326     15109  TIP3      H1            -15.6126266405      -44.1904822861       20.0062403535  W2        15109           0.0000000000
     45327     15109  TIP3      H2            -16.5289366405      -43.0023422861       19.8048003535  W2        15109           0.0000000000
     45328     15110  TIP3      OH2           -11.4153066405      -42.9449822861        2.4250303535  W2        15110           0.0000000000
     45329     15110  TIP3      H1            -11.3508966405      -43.7390222861        2.9556703535  W2        15110           0.0000000000
     45330     15110  TIP3      H2            -10.7623866405      -43.0637022861        1.7352303535  W2        15110           0.0000000000
     45331     15111  TIP3      OH2            -9.1010666405      -43.3187422861       19.7252103535  W2        15111           0.0000000000
     45332     15111  TIP3      H1             -9.4296866405      -43.0479322861       18.8679503535  W2        15111           0.0000000000
     45333     15111  TIP3      H2             -8.9492466405      -44.2597622861       19.6377103535  W2        15111           0.0000000000
     45334     15112  TIP3      OH2            -6.0629666405      -41.8978122861        2.1608303535  W2        15112           0.0000000000
     45335     15112  TIP3      H1             -6.3315566405      -41.7176022861        3.0617203535  W2        15112           0.0000000000
     45336     15112  TIP3      H2             -6.2694066405      -42.8231922861        2.0294103535  W2        15112           0.0000000000
     45337     15113  TIP3      OH2            -3.3665466405      -43.4030122861       17.1084403535  W2        15113           0.0000000000
     45338     15113  TIP3      H1             -2.6210666405      -42.8146422861       16.9888403535  W2        15113           0.0000000000
     45339     15113  TIP3      H2             -4.1238666405      -42.8210422861       17.1717503535  W2        15113           0.0000000000
     45340     15114  TIP3      OH2           -14.9240266405      -46.0882222861       19.7125003535  W2        15114           0.0000000000
     45341     15114  TIP3      H1            -14.5159066405      -46.9455622861       19.5915603535  W2        15114           0.0000000000
     45342     15114  TIP3      H2            -15.1842666405      -46.0740922861       20.6335303535  W2        15114           0.0000000000
     45343     15115  TIP3      OH2           -10.2659266405      -44.9723622861        4.7308303535  W2        15115           0.0000000000
     45344     15115  TIP3      H1            -10.7257266405      -45.4565322861        5.4166803535  W2        15115           0.0000000000
     45345     15115  TIP3      H2            -10.0110566405      -45.6408222861        4.0948803535  W2        15115           0.0000000000
     45346     15116  TIP3      OH2           -10.9769966405      -47.0796522861       17.0867903535  W2        15116           0.0000000000
     45347     15116  TIP3      H1            -11.5953866405      -46.4049922861       17.3672603535  W2        15116           0.0000000000
     45348     15116  TIP3      H2            -10.6328766405      -46.7582622861       16.2534103535  W2        15116           0.0000000000
     45349     15117  TIP3      OH2            -9.1948866405      -46.7291822861        2.9931503535  W2        15117           0.0000000000
     45350     15117  TIP3      H1             -9.3753866405      -46.8840622861        2.0659803535  W2        15117           0.0000000000
     45351     15117  TIP3      H2             -8.2448366405      -46.6213122861        3.0379403535  W2        15117           0.0000000000
     45352     15118  TIP3      OH2            -5.9571766405      -44.6081222861       20.3642703535  W2        15118           0.0000000000
     45353     15118  TIP3      H1             -5.0040566405      -44.5242122861       20.3368703535  W2        15118           0.0000000000
     45354     15118  TIP3      H2             -6.1177166405      -45.3199422861       20.9837603535  W2        15118           0.0000000000
     45355     15119  TIP3      OH2             0.1949433595      -44.3747622861        2.4389603535  W2        15119           0.0000000000
     45356     15119  TIP3      H1             -0.0785766405      -44.7992122861        1.6257903535  W2        15119           0.0000000000
     45357     15119  TIP3      H2              0.2343533595      -43.4433122861        2.2220003535  W2        15119           0.0000000000
     45358     15120  TIP3      OH2           -10.6376266405      -49.7245722861       18.1691003535  W2        15120           0.0000000000
     45359     15120  TIP3      H1            -10.4875366405      -50.4534422861       17.5670703535  W2        15120           0.0000000000
     45360     15120  TIP3      H2            -10.6353866405      -48.9474022861       17.6103203535  W2        15120           0.0000000000
     45361     15121  TIP3      OH2           -10.2250566405      -51.3549922861       15.6618403535  W2        15121           0.0000000000
     45362     15121  TIP3      H1             -9.6893066405      -50.9033222861       15.0097703535  W2        15121           0.0000000000
     45363     15121  TIP3      H2            -11.0770966405      -51.4630122861       15.2392503535  W2        15121           0.0000000000
     45364     15122  TIP3      OH2            -8.6432166405      -45.9153722861       15.9013603535  W2        15122           0.0000000000
     45365     15122  TIP3      H1             -7.8927366405      -46.0716222861       15.3281403535  W2        15122           0.0000000000
     45366     15122  TIP3      H2             -8.9823866405      -45.0637122861       15.6259103535  W2        15122           0.0000000000
     45367     15123  TIP3      OH2            -4.2275966405      -48.1001922861       20.9298903535  W2        15123           0.0000000000
     45368     15123  TIP3      H1             -4.0354666405      -49.0312522861       20.8183403535  W2        15123           0.0000000000
     45369     15123  TIP3      H2             -3.3699666405      -47.6752422861       20.9194303535  W2        15123           0.0000000000
     45370     15124  TIP3      OH2            -2.9108766405      -45.3116722861       19.0071603535  W2        15124           0.0000000000
     45371     15124  TIP3      H1             -3.1923766405      -44.6022122861       18.4295403535  W2        15124           0.0000000000
     45372     15124  TIP3      H2             -1.9684466405      -45.3843722861       18.8562803535  W2        15124           0.0000000000
     45373     15125  TIP3      OH2           -12.1589966405      -48.5262222861       20.0806603535  W2        15125           0.0000000000
     45374     15125  TIP3      H1            -12.9260966405      -49.0587422861       19.8704203535  W2        15125           0.0000000000
     45375     15125  TIP3      H2            -11.4800966405      -48.8361822861       19.4812903535  W2        15125           0.0000000000
     45376     15126  TIP3      OH2            -9.4195066405      -53.8984222861       16.0932003535  W2        15126           0.0000000000
     45377     15126  TIP3      H1             -9.5175466405      -52.9521022861       15.9878203535  W2        15126           0.0000000000
     45378     15126  TIP3      H2            -10.1618866405      -54.2710422861       15.6175503535  W2        15126           0.0000000000
     45379     15127  TIP3      OH2            -8.1554566405      -49.5768822861       19.6570403535  W2        15127           0.0000000000
     45380     15127  TIP3      H1             -8.3909166405      -49.7962122861       20.5585303535  W2        15127           0.0000000000
     45381     15127  TIP3      H2             -8.9387666405      -49.7837622861       19.1472903535  W2        15127           0.0000000000
     45382     15128  TIP3      OH2            -5.4397966405      -50.4495322861       18.7323903535  W2        15128           0.0000000000
     45383     15128  TIP3      H1             -6.3872566405      -50.4175622861       18.8647203535  W2        15128           0.0000000000
     45384     15128  TIP3      H2             -5.1271266405      -51.0748222861       19.3862103535  W2        15128           0.0000000000
     45385     15129  TIP3      OH2            -3.8056466405      -51.8154222861       20.7375803535  W2        15129           0.0000000000
     45386     15129  TIP3      H1             -3.9024666405      -52.7676922861       20.7317703535  W2        15129           0.0000000000
     45387     15129  TIP3      H2             -4.1273366405      -51.5467422861       21.5981303535  W2        15129           0.0000000000
     45388     15130  TIP3      OH2           -13.9787166405      -50.6058422861       19.7851303535  W2        15130           0.0000000000
     45389     15130  TIP3      H1            -13.7669766405      -51.3122322861       19.1748803535  W2        15130           0.0000000000
     45390     15130  TIP3      H2            -14.0899666405      -51.0432422861       20.6292503535  W2        15130           0.0000000000
     45391     15131  TIP3      OH2            -9.1976966405      -54.6046822861       18.7644803535  W2        15131           0.0000000000
     45392     15131  TIP3      H1             -8.4858566405      -55.2444622861       18.7503903535  W2        15131           0.0000000000
     45393     15131  TIP3      H2             -9.2986566405      -54.3378522861       17.8507903535  W2        15131           0.0000000000
     45394     15132  TIP3      OH2            -8.8439466405      -52.9218422861       20.8181103535  W2        15132           0.0000000000
     45395     15132  TIP3      H1             -8.9757266405      -53.3974622861       19.9979603535  W2        15132           0.0000000000
     45396     15132  TIP3      H2             -9.4432066405      -52.1774822861       20.7628203535  W2        15132           0.0000000000
     45397     15133  TIP3      OH2            -9.2977166405      -36.0388122861        3.9945103535  W2        15133           0.0000000000
     45398     15133  TIP3      H1             -8.3646466405      -35.8809422861        4.1383503535  W2        15133           0.0000000000
     45399     15133  TIP3      H2             -9.5618366405      -35.3635122861        3.3696603535  W2        15133           0.0000000000
     45400     15134  TIP3      OH2           -15.7292266405      -41.4024322861        3.4773203535  W2        15134           0.0000000000
     45401     15134  TIP3      H1            -14.8153066405      -41.3235422861        3.7507103535  W2        15134           0.0000000000
     45402     15134  TIP3      H2            -15.7219166405      -42.0894722861        2.8108803535  W2        15134           0.0000000000
     45403     15135  TIP3      OH2           -17.0801666405      -36.0095822861        8.5547103535  W2        15135           0.0000000000
     45404     15135  TIP3      H1            -17.7274566405      -36.4714122861        8.0218303535  W2        15135           0.0000000000
     45405     15135  TIP3      H2            -16.7257066405      -36.6812522861        9.1373303535  W2        15135           0.0000000000
     45406     15136  TIP3      OH2           -16.2102466405      -37.9288822861       10.3593303535  W2        15136           0.0000000000
     45407     15136  TIP3      H1            -16.5445666405      -38.8091522861       10.5313503535  W2        15136           0.0000000000
     45408     15136  TIP3      H2            -15.9880066405      -37.5833822861       11.2238903535  W2        15136           0.0000000000
     45409     15137  TIP3      OH2             1.3382333595      -37.1192422861       13.3398103535  W2        15137           0.0000000000
     45410     15137  TIP3      H1              1.3169033595      -36.9344022861       14.2787503535  W2        15137           0.0000000000
     45411     15137  TIP3      H2              2.0288533595      -36.5508422861       12.9989503535  W2        15137           0.0000000000
     45412     15138  TIP3      OH2             0.9015233595      -37.5521322861       16.2617203535  W2        15138           0.0000000000
     45413     15138  TIP3      H1              0.4143933595      -38.2877222861       15.8904603535  W2        15138           0.0000000000
     45414     15138  TIP3      H2              1.4507933595      -37.9457422861       16.9396603535  W2        15138           0.0000000000
     45415     15139  TIP3      OH2            -0.6477466405      -41.7623222861       20.8997503535  W2        15139           0.0000000000
     45416     15139  TIP3      H1             -1.5136366405      -41.8673522861       21.2939803535  W2        15139           0.0000000000
     45417     15139  TIP3      H2             -0.2711566405      -41.0039922861       21.3462203535  W2        15139           0.0000000000
     45418     15140  TIP3      OH2             0.6532233595      -43.5059522861        6.4140003535  W2        15140           0.0000000000
     45419     15140  TIP3      H1              1.5033633595      -43.0848622861        6.5411603535  W2        15140           0.0000000000
     45420     15140  TIP3      H2              0.6587333595      -44.2459422861        7.0211403535  W2        15140           0.0000000000
     45421     15141  TIP3      OH2             1.0477833595      -45.4522122861        8.2375703535  W2        15141           0.0000000000
     45422     15141  TIP3      H1              0.3212433595      -45.9319522861        8.6353303535  W2        15141           0.0000000000
     45423     15141  TIP3      H2              1.6291133595      -45.2467422861        8.9697303535  W2        15141           0.0000000000
     45424     15142  TIP3      OH2             0.8069033595      -42.6674622861       13.1853303535  W2        15142           0.0000000000
     45425     15142  TIP3      H1              1.6403233595      -43.0454622861       12.9046903535  W2        15142           0.0000000000
     45426     15142  TIP3      H2              0.9189333595      -41.7243422861       13.0662403535  W2        15142           0.0000000000
     45427     15143  TIP3      OH2            -0.7068666405      -39.7897122861       15.4921703535  W2        15143           0.0000000000
     45428     15143  TIP3      H1             -1.3543366405      -39.4645622861       16.1176903535  W2        15143           0.0000000000
     45429     15143  TIP3      H2             -1.2244666405      -40.2299422861       14.8180003535  W2        15143           0.0000000000
     45430     15144  TIP3      OH2             1.3160933595      -45.5513622861        4.6287003535  W2        15144           0.0000000000
     45431     15144  TIP3      H1              0.7942033595      -45.1949522861        3.9097903535  W2        15144           0.0000000000
     45432     15144  TIP3      H2              1.2830133595      -44.8765822861        5.3067903535  W2        15144           0.0000000000
     45433     15145  TIP3      OH2            -0.3350066405      -48.3118022861        3.1794103535  W2        15145           0.0000000000
     45434     15145  TIP3      H1             -0.2385666405      -47.6451022861        2.4993803535  W2        15145           0.0000000000
     45435     15145  TIP3      H2             -0.4750466405      -49.1271722861        2.6979603535  W2        15145           0.0000000000
     45436     15146  TIP3      OH2            -1.1655366405      -46.9315622861        8.8004403535  W2        15146           0.0000000000
     45437     15146  TIP3      H1             -1.3156566405      -47.8767022861        8.7802203535  W2        15146           0.0000000000
     45438     15146  TIP3      H2             -1.5190866405      -46.6504222861        9.6443503535  W2        15146           0.0000000000
     45439     15147  TIP3      OH2           -16.1302966405      -44.8533422861       12.8108203535  W2        15147           0.0000000000
     45440     15147  TIP3      H1            -15.9460066405      -44.9351722861       11.8751103535  W2        15147           0.0000000000
     45441     15147  TIP3      H2            -15.2810066405      -44.9776422861       13.2344603535  W2        15147           0.0000000000
     45442     15148  TIP3      OH2            -0.3092466405      -44.9612322861       18.4392703535  W2        15148           0.0000000000
     45443     15148  TIP3      H1              0.2734833595      -45.6960022861       18.6309903535  W2        15148           0.0000000000
     45444     15148  TIP3      H2              0.2546833595      -44.1892022861       18.4858503535  W2        15148           0.0000000000
     45445     15149  TIP3      OH2             1.1874633595      -47.0586522861       19.1238103535  W2        15149           0.0000000000
     45446     15149  TIP3      H1              0.3241333595      -47.4374422861       18.9582803535  W2        15149           0.0000000000
     45447     15149  TIP3      H2              1.7918333595      -47.7971722861       19.0493903535  W2        15149           0.0000000000
     45448     15150  TIP3      OH2            -1.0876266405      -50.9038222861        2.2969603535  W2        15150           0.0000000000
     45449     15150  TIP3      H1             -0.4770466405      -51.2751422861        2.9337803535  W2        15150           0.0000000000
     45450     15150  TIP3      H2             -1.9244766405      -51.3251322861        2.4929603535  W2        15150           0.0000000000
     45451     15151  TIP3      OH2            -1.4550566405      -49.3489822861        7.2629503535  W2        15151           0.0000000000
     45452     15151  TIP3      H1             -1.1753466405      -50.2559422861        7.3871203535  W2        15151           0.0000000000
     45453     15151  TIP3      H2             -0.6958866405      -48.9148322861        6.8738703535  W2        15151           0.0000000000
     45454     15152  TIP3      OH2            -0.8432266405      -48.7672422861       12.6988403535  W2        15152           0.0000000000
     45455     15152  TIP3      H1              0.0895733595      -48.5552522861       12.6644403535  W2        15152           0.0000000000
     45456     15152  TIP3      H2             -1.0784766405      -48.6660322861       13.6211403535  W2        15152           0.0000000000
     45457     15153  TIP3      OH2            -0.8140366405      -48.0307122861       15.4747803535  W2        15153           0.0000000000
     45458     15153  TIP3      H1             -1.6569066405      -47.7626722861       15.8407603535  W2        15153           0.0000000000
     45459     15153  TIP3      H2             -0.3716066405      -47.2085222861       15.2638903535  W2        15153           0.0000000000
     45460     15154  TIP3      OH2           -16.5328166405      -49.5828422861       18.9517003535  W2        15154           0.0000000000
     45461     15154  TIP3      H1            -15.6133266405      -49.7050122861       19.1880103535  W2        15154           0.0000000000
     45462     15154  TIP3      H2            -16.9823666405      -50.3328722861       19.3410503535  W2        15154           0.0000000000
     45463     15155  TIP3      OH2             1.4691233595      -54.0506922861       20.8282803535  W2        15155           0.0000000000
     45464     15155  TIP3      H1              1.8188233595      -54.7043422861       20.2227503535  W2        15155           0.0000000000
     45465     15155  TIP3      H2              1.6160733595      -53.2132822861       20.3885403535  W2        15155           0.0000000000
     45466     15156  TIP3      OH2            -0.8415766405      -52.0860522861        7.3111503535  W2        15156           0.0000000000
     45467     15156  TIP3      H1             -0.6590766405      -52.5349022861        8.1366503535  W2        15156           0.0000000000
     45468     15156  TIP3      H2             -1.4412866405      -52.6706122861        6.8476103535  W2        15156           0.0000000000
     45469     15157  TIP3      OH2           -15.3115666405      -51.2706822861       11.8429903535  W2        15157           0.0000000000
     45470     15157  TIP3      H1            -14.8664066405      -52.0624322861       12.1449603535  W2        15157           0.0000000000
     45471     15157  TIP3      H2            -14.8452666405      -50.5541622861       12.2735503535  W2        15157           0.0000000000
     45472     15158  TIP3      OH2           -17.0075366405      -48.2713822861       12.9120103535  W2        15158           0.0000000000
     45473     15158  TIP3      H1            -16.5155566405      -48.4923322861       12.1212103535  W2        15158           0.0000000000
     45474     15158  TIP3      H2            -16.6454466405      -47.4310422861       13.1929603535  W2        15158           0.0000000000
     45475     15159  TIP3      OH2             0.9888433595      -51.9412322861       19.1774103535  W2        15159           0.0000000000
     45476     15159  TIP3      H1              0.0714133595      -51.6705222861       19.1417603535  W2        15159           0.0000000000
     45477     15159  TIP3      H2              1.1117833595      -52.4763922861       18.3933803535  W2        15159           0.0000000000
     45478     15160  TIP3      OH2             1.0250433595      -52.0182422861        3.8391803535  W2        15160           0.0000000000
     45479     15160  TIP3      H1              1.4373033595      -52.7396722861        3.3639803535  W2        15160           0.0000000000
     45480     15160  TIP3      H2              1.7066933595      -51.3487822861        3.8976103535  W2        15160           0.0000000000
     45481     15161  TIP3      OH2           -16.6938866405      -52.0134722861        6.9662503535  W2        15161           0.0000000000
     45482     15161  TIP3      H1            -17.6190466405      -51.8048122861        6.8368003535  W2        15161           0.0000000000
     45483     15161  TIP3      H2            -16.2398966405      -51.5293922861        6.2764803535  W2        15161           0.0000000000
     45484     15162  TIP3      OH2            -1.9231666405      -37.0293022861        8.9119903535  W2        15162           0.0000000000
     45485     15162  TIP3      H1             -1.2708766405      -37.3770922861        8.3039003535  W2        15162           0.0000000000
     45486     15162  TIP3      H2             -1.4127866405      -36.5409822861        9.5579603535  W2        15162           0.0000000000
     45487     15163  TIP3      OH2           -16.7303466405      -53.2755722861       15.3105003535  W2        15163           0.0000000000
     45488     15163  TIP3      H1            -17.3952966405      -53.5215422861       15.9535903535  W2        15163           0.0000000000
     45489     15163  TIP3      H2            -17.1732166405      -52.6535322861       14.7333003535  W2        15163           0.0000000000
     45490     15164  TIP3      OH2           -14.5384166405      -40.1001622861       19.4550803535  W2        15164           0.0000000000
     45491     15164  TIP3      H1            -15.3591666405      -39.9255122861       18.9945503535  W2        15164           0.0000000000
     45492     15164  TIP3      H2            -14.7906366405      -40.1736922861       20.3755203535  W2        15164           0.0000000000
     45493     15165  TIP3      OH2           -11.5841266405      -39.1260422861       15.7134803535  W2        15165           0.0000000000
     45494     15165  TIP3      H1            -12.0090166405      -38.3161922861       15.4309403535  W2        15165           0.0000000000
     45495     15165  TIP3      H2            -10.6798466405      -39.0406322861       15.4114603535  W2        15165           0.0000000000
     45496     15166  TIP3      OH2            -7.2729866405      -37.7270422861       18.6728503535  W2        15166           0.0000000000
     45497     15166  TIP3      H1             -7.0882366405      -38.0604322861       19.5508803535  W2        15166           0.0000000000
     45498     15166  TIP3      H2             -6.4265366405      -37.4171822861       18.3507703535  W2        15166           0.0000000000
     45499     15167  TIP3      OH2            -4.9279466405      -36.4411522861       17.9169903535  W2        15167           0.0000000000
     45500     15167  TIP3      H1             -4.2510566405      -37.0739222861       17.6769103535  W2        15167           0.0000000000
     45501     15167  TIP3      H2             -4.6060666405      -36.0401022861       18.7243203535  W2        15167           0.0000000000
     45502     15168  TIP3      OH2            -0.0105666405      -53.8516022861       16.9964903535  W2        15168           0.0000000000
     45503     15168  TIP3      H1             -0.8232166405      -53.5265722861       16.6089603535  W2        15168           0.0000000000
     45504     15168  TIP3      H2              0.2222833595      -54.6117522861       16.4634003535  W2        15168           0.0000000000
     45505     15169  TIP3      OH2           -14.1824566405      -35.8696522861       15.7610103535  W2        15169           0.0000000000
     45506     15169  TIP3      H1            -14.9028166405      -35.4295522861       15.3097803535  W2        15169           0.0000000000
     45507     15169  TIP3      H2            -14.5480566405      -36.1201822861       16.6094103535  W2        15169           0.0000000000
     45508     15170  TIP3      OH2           -11.7151966405      -36.2692622861       14.7907303535  W2        15170           0.0000000000
     45509     15170  TIP3      H1            -12.5799766405      -36.1974122861       15.1947403535  W2        15170           0.0000000000
     45510     15170  TIP3      H2            -11.7702966405      -35.7225322861       14.0069803535  W2        15170           0.0000000000
     45511     15171  TIP3      OH2            -7.0046366405      -36.3813722861       13.9663303535  W2        15171           0.0000000000
     45512     15171  TIP3      H1             -7.4612366405      -35.8524022861       13.3121703535  W2        15171           0.0000000000
     45513     15171  TIP3      H2             -6.8418366405      -35.7782322861       14.6915603535  W2        15171           0.0000000000
     45514     15172  TIP3      OH2            -4.6770066405      -37.5034122861       14.9113603535  W2        15172           0.0000000000
     45515     15172  TIP3      H1             -5.5816366405      -37.3383922861       14.6455703535  W2        15172           0.0000000000
     45516     15172  TIP3      H2             -4.2481466405      -36.6501922861       14.8457003535  W2        15172           0.0000000000
     45517     15173  TIP3      OH2            -2.0728166405      -35.9335022861       15.2061403535  W2        15173           0.0000000000
     45518     15173  TIP3      H1             -2.2546166405      -35.0176122861       14.9956303535  W2        15173           0.0000000000
     45519     15173  TIP3      H2             -1.8960366405      -36.3437922861       14.3596003535  W2        15173           0.0000000000
     45520     15174  TIP3      OH2           -14.7676466405      -37.2464022861       12.6711903535  W2        15174           0.0000000000
     45521     15174  TIP3      H1            -14.7860466405      -37.6718922861       13.5284203535  W2        15174           0.0000000000
     45522     15174  TIP3      H2            -13.9628566405      -37.5649022861       12.2624103535  W2        15174           0.0000000000
     45523     15175  TIP3      OH2           -12.6263366405      -38.5365322861       11.3261803535  W2        15175           0.0000000000
     45524     15175  TIP3      H1            -12.8452666405      -39.4527922861       11.4957803535  W2        15175           0.0000000000
     45525     15175  TIP3      H2            -11.8021166405      -38.3964922861       11.7923203535  W2        15175           0.0000000000
     45526     15176  TIP3      OH2           -10.0890866405      -38.0666022861       12.1749803535  W2        15176           0.0000000000
     45527     15176  TIP3      H1             -9.8765166405      -38.9547022861       11.8880703535  W2        15176           0.0000000000
     45528     15176  TIP3      H2            -10.0245766405      -38.1008322861       13.1293803535  W2        15176           0.0000000000
     45529     15177  TIP3      OH2            -6.5807166405      -52.4025422861       11.3193103535  W2        15177           0.0000000000
     45530     15177  TIP3      H1             -7.2550366405      -53.0319822861       11.5748903535  W2        15177           0.0000000000
     45531     15177  TIP3      H2             -6.0167966405      -52.8866522861       10.7161003535  W2        15177           0.0000000000
     45532     15178  TIP3      OH2            -1.4379966405      -54.2951422861       11.4320203535  W2        15178           0.0000000000
     45533     15178  TIP3      H1             -0.8342366405      -53.7476022861       10.9301203535  W2        15178           0.0000000000
     45534     15178  TIP3      H2             -2.3077966405      -53.9761022861       11.1914303535  W2        15178           0.0000000000
     45535     15179  TIP3      OH2             0.2890433595      -53.1562722861        9.7651103535  W2        15179           0.0000000000
     45536     15179  TIP3      H1              0.9007933595      -53.6707022861        9.2384703535  W2        15179           0.0000000000
     45537     15179  TIP3      H2              0.6713833595      -52.2790622861        9.7885503535  W2        15179           0.0000000000
     45538     15180  TIP3      OH2           -14.2539666405      -53.7685122861        9.1413003535  W2        15180           0.0000000000
     45539     15180  TIP3      H1            -15.0309866405      -54.0030222861        8.6338903535  W2        15180           0.0000000000
     45540     15180  TIP3      H2            -13.7236066405      -54.5653022861        9.1501003535  W2        15180           0.0000000000
     45541     15181  TIP3      OH2           -15.4176266405      -53.9707022861        4.9449103535  W2        15181           0.0000000000
     45542     15181  TIP3      H1            -14.9785566405      -53.3596522861        4.3532603535  W2        15181           0.0000000000
     45543     15181  TIP3      H2            -16.0513866405      -53.4322922861        5.4189103535  W2        15181           0.0000000000
     45544     15182  TIP3      OH2            -9.6747066405      -53.8418022861        8.9546103535  W2        15182           0.0000000000
     45545     15182  TIP3      H1             -8.8003666405      -53.4533722861        8.9250403535  W2        15182           0.0000000000
     45546     15182  TIP3      H2             -9.8106266405      -54.0570222861        9.8773303535  W2        15182           0.0000000000
     45547     15183  TIP3      OH2            -4.1178666405      -53.8118222861       10.6037803535  W2        15183           0.0000000000
     45548     15183  TIP3      H1             -4.0417066405      -53.7166622861        9.6543803535  W2        15183           0.0000000000
     45549     15183  TIP3      H2             -4.3929466405      -54.7195322861       10.7326903535  W2        15183           0.0000000000
     45550     15184  TIP3      OH2            -2.7646066405      -53.7860422861        6.2962803535  W2        15184           0.0000000000
     45551     15184  TIP3      H1             -3.4674966405      -53.1711222861        6.0864203535  W2        15184           0.0000000000
     45552     15184  TIP3      H2             -3.2094666405      -54.6233722861        6.4273703535  W2        15184           0.0000000000
     45553     15185  TIP3      OH2           -15.5166766405      -38.0224822861        5.8424203535  W2        15185           0.0000000000
     45554     15185  TIP3      H1            -16.2016866405      -38.0605922861        5.1749303535  W2        15185           0.0000000000
     45555     15185  TIP3      H2            -15.5129566405      -37.1097222861        6.1306303535  W2        15185           0.0000000000
     45556     15186  TIP3      OH2           -13.5567166405      -52.0545522861        3.3873203535  W2        15186           0.0000000000
     45557     15186  TIP3      H1            -13.0653766405      -52.6843122861        2.8598703535  W2        15186           0.0000000000
     45558     15186  TIP3      H2            -12.9330866405      -51.7586122861        4.0504403535  W2        15186           0.0000000000
     45559     15187  TIP3      OH2            -8.5307066405      -51.7614022861        5.8443703535  W2        15187           0.0000000000
     45560     15187  TIP3      H1             -8.3525766405      -52.4080822861        6.5272303535  W2        15187           0.0000000000
     45561     15187  TIP3      H2             -8.5840866405      -50.9276322861        6.3114803535  W2        15187           0.0000000000
     45562     15188  TIP3      OH2            -6.6523266405      -36.8129922861        4.2400403535  W2        15188           0.0000000000
     45563     15188  TIP3      H1             -5.7863066405      -36.4462522861        4.0618603535  W2        15188           0.0000000000
     45564     15188  TIP3      H2             -6.8990466405      -37.2521922861        3.4261203535  W2        15188           0.0000000000
     45565     15189  TIP3      OH2             0.0566333595      -37.2499622861        6.9191503535  W2        15189           0.0000000000
     45566     15189  TIP3      H1             -0.1376566405      -37.9977522861        6.3541103535  W2        15189           0.0000000000
     45567     15189  TIP3      H2              0.0176433595      -36.4919522861        6.3359403535  W2        15189           0.0000000000
     45568     15190  TIP3      OH2           -14.2961666405      -53.2543222861       18.6589203535  W2        15190           0.0000000000
     45569     15190  TIP3      H1            -14.6623466405      -54.0200622861       19.1013903535  W2        15190           0.0000000000
     45570     15190  TIP3      H2            -13.3833166405      -53.2253022861       18.9454303535  W2        15190           0.0000000000
     45571     15191  TIP3      OH2           -12.3230866405      -53.9038822861       20.1946303535  W2        15191           0.0000000000
     45572     15191  TIP3      H1            -11.4247266405      -54.1778622861       20.0099703535  W2        15191           0.0000000000
     45573     15191  TIP3      H2            -12.7097766405      -54.6462822861       20.6588903535  W2        15191           0.0000000000
     45574     15192  TIP3      OH2           -13.6985566405      -37.1024022861        2.8676303535  W2        15192           0.0000000000
     45575     15192  TIP3      H1            -13.9660966405      -36.8161122861        3.7409403535  W2        15192           0.0000000000
     45576     15192  TIP3      H2            -12.9272966405      -37.6484822861        3.0198803535  W2        15192           0.0000000000
     45577     15193  TIP3      OH2            -3.9018566405      -54.5713522861       20.3769103535  W2        15193           0.0000000000
     45578     15193  TIP3      H1             -3.8251366405      -54.9972822861       21.2306803535  W2        15193           0.0000000000
     45579     15193  TIP3      H2             -3.0081966405      -54.5578822861       20.0342603535  W2        15193           0.0000000000
     45580     15194  TIP3      OH2            -0.7257466405      -38.4987222861       19.0693303535  W2        15194           0.0000000000
     45581     15194  TIP3      H1             -1.5075566405      -38.6849222861       18.5493903535  W2        15194           0.0000000000
     45582     15194  TIP3      H2             -0.7977566405      -37.5692922861       19.2865803535  W2        15194           0.0000000000
     45583     15195  TIP3      OH2            13.6802933595      -44.6122822861        9.1000503535  W2        15195           0.0000000000
     45584     15195  TIP3      H1             13.7694033595      -43.6684622861        8.9677603535  W2        15195           0.0000000000
     45585     15195  TIP3      H2             13.0420533595      -44.8876422861        8.4419903535  W2        15195           0.0000000000
     45586     15196  TIP3      OH2            12.6134233595      -45.3572122861       12.5188703535  W2        15196           0.0000000000
     45587     15196  TIP3      H1             12.5751733595      -46.0035822861       13.2238303535  W2        15196           0.0000000000
     45588     15196  TIP3      H2             12.2910733595      -45.8237722861       11.7477403535  W2        15196           0.0000000000
     45589     15197  TIP3      OH2             4.9819233595      -45.7430022861       14.1118603535  W2        15197           0.0000000000
     45590     15197  TIP3      H1              5.0231333595      -46.3686722861       14.8351003535  W2        15197           0.0000000000
     45591     15197  TIP3      H2              5.6846933595      -45.1191422861       14.2939003535  W2        15197           0.0000000000
     45592     15198  TIP3      OH2            16.3194433595      -42.4181722861       10.8203803535  W2        15198           0.0000000000
     45593     15198  TIP3      H1             15.8787133595      -43.1385722861       11.2709403535  W2        15198           0.0000000000
     45594     15198  TIP3      H2             16.3064133595      -41.6974522861       11.4501503535  W2        15198           0.0000000000
     45595     15199  TIP3      OH2             5.9052333595      -41.2931122861       12.6467703535  W2        15199           0.0000000000
     45596     15199  TIP3      H1              5.5357533595      -42.0950622861       12.2772003535  W2        15199           0.0000000000
     45597     15199  TIP3      H2              6.8463433595      -41.4616222861       12.6931103535  W2        15199           0.0000000000
     45598     15200  TIP3      OH2             2.5152833595      -47.6328522861        8.0396503535  W2        15200           0.0000000000
     45599     15200  TIP3      H1              2.0676233595      -46.7869822861        8.0213003535  W2        15200           0.0000000000
     45600     15200  TIP3      H2              1.9544033595      -48.2124322861        7.5241603535  W2        15200           0.0000000000
     45601     15201  TIP3      OH2             3.2258933595      -45.4708922861       10.1654503535  W2        15201           0.0000000000
     45602     15201  TIP3      H1              3.4392433595      -46.2407322861       10.6927503535  W2        15201           0.0000000000
     45603     15201  TIP3      H2              3.9636533595      -45.3812222861        9.5622103535  W2        15201           0.0000000000
     45604     15202  TIP3      OH2            13.4309933595      -37.3140022861       11.0324203535  W2        15202           0.0000000000
     45605     15202  TIP3      H1             14.0506333595      -37.9905322861       10.7593403535  W2        15202           0.0000000000
     45606     15202  TIP3      H2             13.2227333595      -37.5319222861       11.9409103535  W2        15202           0.0000000000
     45607     15203  TIP3      OH2            11.0028633595      -42.9250722861       12.9249703535  W2        15203           0.0000000000
     45608     15203  TIP3      H1             11.3066533595      -43.6109322861       12.3303803535  W2        15203           0.0000000000
     45609     15203  TIP3      H2             11.7242633595      -42.8062022861       13.5427703535  W2        15203           0.0000000000
     45610     15204  TIP3      OH2            19.6658433595      -51.3235422861       13.7855903535  W2        15204           0.0000000000
     45611     15204  TIP3      H1             19.7150633595      -50.7134222861       14.5215003535  W2        15204           0.0000000000
     45612     15204  TIP3      H2             20.0913533595      -50.8624522861       13.0627003535  W2        15204           0.0000000000
     45613     15205  TIP3      OH2            14.1435633595      -48.5308322861       13.2524503535  W2        15205           0.0000000000
     45614     15205  TIP3      H1             14.2861533595      -49.4771322861       13.2726103535  W2        15205           0.0000000000
     45615     15205  TIP3      H2             14.0374633595      -48.3238522861       12.3239403535  W2        15205           0.0000000000
     45616     15206  TIP3      OH2             7.2983933595      -50.4291922861       10.5249303535  W2        15206           0.0000000000
     45617     15206  TIP3      H1              7.3415033595      -49.5693422861       10.1065603535  W2        15206           0.0000000000
     45618     15206  TIP3      H2              6.8408033595      -50.9817222861        9.8912503535  W2        15206           0.0000000000
     45619     15207  TIP3      OH2            15.0206633595      -50.2986322861        8.9257603535  W2        15207           0.0000000000
     45620     15207  TIP3      H1             15.6670933595      -50.6273122861        9.5505203535  W2        15207           0.0000000000
     45621     15207  TIP3      H2             15.5306033595      -49.7807322861        8.3029003535  W2        15207           0.0000000000
     45622     15208  TIP3      OH2             3.9185433595      -48.0326122861       11.2870703535  W2        15208           0.0000000000
     45623     15208  TIP3      H1              4.5722033595      -48.5824422861       11.7190803535  W2        15208           0.0000000000
     45624     15208  TIP3      H2              3.9424733595      -48.3067122861       10.3702703535  W2        15208           0.0000000000
     45625     15209  TIP3      OH2             9.0749933595      -46.4824822861       10.5022203535  W2        15209           0.0000000000
     45626     15209  TIP3      H1              9.6910933595      -47.0089422861       11.0116203535  W2        15209           0.0000000000
     45627     15209  TIP3      H2              8.4888733595      -47.1226122861       10.0985803535  W2        15209           0.0000000000
     45628     15210  TIP3      OH2            20.0573033595      -49.8456222861       16.0215703535  W2        15210           0.0000000000
     45629     15210  TIP3      H1             19.3687633595      -49.1875522861       15.9262303535  W2        15210           0.0000000000
     45630     15210  TIP3      H2             20.0727633595      -50.0428322861       16.9581103535  W2        15210           0.0000000000
     45631     15211  TIP3      OH2             6.1085833595      -51.5113522861       14.5990103535  W2        15211           0.0000000000
     45632     15211  TIP3      H1              5.8897533595      -50.9812922861       13.8326103535  W2        15211           0.0000000000
     45633     15211  TIP3      H2              5.4406733595      -51.2848022861       15.2461503535  W2        15211           0.0000000000
     45634     15212  TIP3      OH2            13.4775633595      -42.0112422861        8.1429203535  W2        15212           0.0000000000
     45635     15212  TIP3      H1             13.1820733595      -42.3340122861        7.2916103535  W2        15212           0.0000000000
     45636     15212  TIP3      H2             13.1533433595      -41.1115722861        8.1841803535  W2        15212           0.0000000000
     45637     15213  TIP3      OH2             8.6777233595      -43.8357822861       14.8863803535  W2        15213           0.0000000000
     45638     15213  TIP3      H1              7.9376333595      -43.2376322861       14.9899003535  W2        15213           0.0000000000
     45639     15213  TIP3      H2              9.3916733595      -43.2818222861       14.5707403535  W2        15213           0.0000000000
     45640     15214  TIP3      OH2            16.7845033595      -51.0077022861       10.9063503535  W2        15214           0.0000000000
     45641     15214  TIP3      H1             16.5693033595      -51.7733622861       11.4389503535  W2        15214           0.0000000000
     45642     15214  TIP3      H2             17.4402433595      -50.5352422861       11.4192003535  W2        15214           0.0000000000
     45643     15215  TIP3      OH2             5.7023133595      -49.6191722861       12.5512303535  W2        15215           0.0000000000
     45644     15215  TIP3      H1              6.3159433595      -48.9864122861       12.9244703535  W2        15215           0.0000000000
     45645     15215  TIP3      H2              6.2143833595      -50.0916722861       11.8949203535  W2        15215           0.0000000000
     45646     15216  TIP3      OH2             7.0851533595      -41.8714822861       15.6735303535  W2        15216           0.0000000000
     45647     15216  TIP3      H1              7.0799133595      -40.9921322861       15.2954603535  W2        15216           0.0000000000
     45648     15216  TIP3      H2              6.2315633595      -41.9550722861       16.0985203535  W2        15216           0.0000000000
     45649     15217  TIP3      OH2             3.2062433595      -42.2006922861        6.4554603535  W2        15217           0.0000000000
     45650     15217  TIP3      H1              2.9343333595      -41.9715922861        5.5667503535  W2        15217           0.0000000000
     45651     15217  TIP3      H2              3.2518133595      -41.3628122861        6.9159903535  W2        15217           0.0000000000
     45652     15218  TIP3      OH2            16.8312133595      -40.5791022861       13.1683103535  W2        15218           0.0000000000
     45653     15218  TIP3      H1             15.8895833595      -40.5207122861       13.3300003535  W2        15218           0.0000000000
     45654     15218  TIP3      H2             17.1078233595      -39.6730522861       13.0312803535  W2        15218           0.0000000000
     45655     15219  TIP3      OH2            17.1319133595      -52.2925722861       14.5857003535  W2        15219           0.0000000000
     45656     15219  TIP3      H1             16.3958333595      -51.6818622861       14.5478303535  W2        15219           0.0000000000
     45657     15219  TIP3      H2             17.8153133595      -51.8776722861       14.0593403535  W2        15219           0.0000000000
     45658     15220  TIP3      OH2            10.1350533595      -54.2058422861       12.0515003535  W2        15220           0.0000000000
     45659     15220  TIP3      H1             10.0174733595      -55.1542422861       11.9973303535  W2        15220           0.0000000000
     45660     15220  TIP3      H2              9.2800633595      -53.8732322861       12.3246103535  W2        15220           0.0000000000
     45661     15221  TIP3      OH2            15.0833333595      -38.7977522861        9.7934703535  W2        15221           0.0000000000
     45662     15221  TIP3      H1             15.5085633595      -39.5049622861        9.3084303535  W2        15221           0.0000000000
     45663     15221  TIP3      H2             15.4003333595      -37.9964822861        9.3766903535  W2        15221           0.0000000000
     45664     15222  TIP3      OH2            16.2429833595      -40.8969022861        8.3021303535  W2        15222           0.0000000000
     45665     15222  TIP3      H1             15.9854633595      -41.5868922861        7.6907203535  W2        15222           0.0000000000
     45666     15222  TIP3      H2             16.3140633595      -41.3397822861        9.1477203535  W2        15222           0.0000000000
     45667     15223  TIP3      OH2            17.9290033595      -42.3302322861       16.7794803535  W2        15223           0.0000000000
     45668     15223  TIP3      H1             18.0686333595      -42.9219822861       16.0401803535  W2        15223           0.0000000000
     45669     15223  TIP3      H2             18.0962833595      -41.4576422861       16.4233603535  W2        15223           0.0000000000
     45670     15224  TIP3      OH2            12.4015433595      -45.3682822861        6.5520803535  W2        15224           0.0000000000
     45671     15224  TIP3      H1             11.6900933595      -44.8333122861        6.2001303535  W2        15224           0.0000000000
     45672     15224  TIP3      H2             13.0925033595      -45.3130722861        5.8919703535  W2        15224           0.0000000000
     45673     15225  TIP3      OH2            12.4554633595      -46.9108522861        3.5905803535  W2        15225           0.0000000000
     45674     15225  TIP3      H1             13.1564533595      -46.8881622861        4.2419803535  W2        15225           0.0000000000
     45675     15225  TIP3      H2             12.7577533595      -47.5388822861        2.9345103535  W2        15225           0.0000000000
     45676     15226  TIP3      OH2            19.7709333595      -45.9904322861       14.8455203535  W2        15226           0.0000000000
     45677     15226  TIP3      H1             19.1183433595      -45.2958722861       14.9346103535  W2        15226           0.0000000000
     45678     15226  TIP3      H2             20.2359633595      -45.7803422861       14.0356803535  W2        15226           0.0000000000
     45679     15227  TIP3      OH2            15.8073133595      -45.1589522861        7.5036703535  W2        15227           0.0000000000
     45680     15227  TIP3      H1             15.0754133595      -44.9305822861        8.0767303535  W2        15227           0.0000000000
     45681     15227  TIP3      H2             16.2545333595      -45.8726822861        7.9584203535  W2        15227           0.0000000000
     45682     15228  TIP3      OH2            15.7046633595      -46.9846922861       16.5713703535  W2        15228           0.0000000000
     45683     15228  TIP3      H1             15.7845733595      -46.2212522861       17.1432203535  W2        15228           0.0000000000
     45684     15228  TIP3      H2             15.1034333595      -46.7054522861       15.8808803535  W2        15228           0.0000000000
     45685     15229  TIP3      OH2             7.4526833595      -44.5283322861        9.3861703535  W2        15229           0.0000000000
     45686     15229  TIP3      H1              7.1222033595      -44.8989922861        8.5678703535  W2        15229           0.0000000000
     45687     15229  TIP3      H2              8.0410933595      -45.1989322861        9.7330003535  W2        15229           0.0000000000
     45688     15230  TIP3      OH2             8.8194333595      -41.1002722861       12.0673903535  W2        15230           0.0000000000
     45689     15230  TIP3      H1              8.7245633595      -41.6789622861       11.3108503535  W2        15230           0.0000000000
     45690     15230  TIP3      H2              9.5487933595      -41.4717022861       12.5636703535  W2        15230           0.0000000000
     45691     15231  TIP3      OH2             7.8192333595      -45.7597722861       13.0196703535  W2        15231           0.0000000000
     45692     15231  TIP3      H1              8.3844833595      -45.6383522861       12.2567903535  W2        15231           0.0000000000
     45693     15231  TIP3      H2              8.1381233595      -45.1222722861       13.6585203535  W2        15231           0.0000000000
     45694     15232  TIP3      OH2            14.1284533595      -40.2565822861       13.7537203535  W2        15232           0.0000000000
     45695     15232  TIP3      H1             13.8881133595      -39.5942722861       14.4016403535  W2        15232           0.0000000000
     45696     15232  TIP3      H2             13.9302733595      -41.0910622861       14.1786803535  W2        15232           0.0000000000
     45697     15233  TIP3      OH2             8.6993033595      -41.3605022861       17.7368603535  W2        15233           0.0000000000
     45698     15233  TIP3      H1              8.3880533595      -40.5781822861       18.1921803535  W2        15233           0.0000000000
     45699     15233  TIP3      H2              8.0493233595      -41.5135922861       17.0510603535  W2        15233           0.0000000000
     45700     15234  TIP3      OH2            14.6782633595      -45.9966622861        5.1887903535  W2        15234           0.0000000000
     45701     15234  TIP3      H1             15.2578133595      -45.8466322861        5.9356803535  W2        15234           0.0000000000
     45702     15234  TIP3      H2             15.0922633595      -45.5259222861        4.4654303535  W2        15234           0.0000000000
     45703     15235  TIP3      OH2             5.6192933595      -45.1623922861       16.9654303535  W2        15235           0.0000000000
     45704     15235  TIP3      H1              5.6896133595      -44.5117122861       17.6639303535  W2        15235           0.0000000000
     45705     15235  TIP3      H2              4.7285133595      -45.0596422861       16.6305203535  W2        15235           0.0000000000
     45706     15236  TIP3      OH2            12.4047533595      -39.2598122861        8.6241003535  W2        15236           0.0000000000
     45707     15236  TIP3      H1             12.8785133595      -38.9641822861        9.4015203535  W2        15236           0.0000000000
     45708     15236  TIP3      H2             11.8416833595      -38.5216522861        8.3910603535  W2        15236           0.0000000000
     45709     15237  TIP3      OH2             6.9388933595      -39.2890022861       18.5002403535  W2        15237           0.0000000000
     45710     15237  TIP3      H1              6.9464233595      -39.4250322861       17.5527903535  W2        15237           0.0000000000
     45711     15237  TIP3      H2              6.0229333595      -39.4061922861       18.7522403535  W2        15237           0.0000000000
     45712     15238  TIP3      OH2            18.3771033595      -54.2466222861        5.0017603535  W2        15238           0.0000000000
     45713     15238  TIP3      H1             17.4771733595      -54.1077222861        5.2968203535  W2        15238           0.0000000000
     45714     15238  TIP3      H2             18.6289433595      -53.4151622861        4.5999303535  W2        15238           0.0000000000
     45715     15239  TIP3      OH2             6.4429533595      -45.4589022861        6.9754503535  W2        15239           0.0000000000
     45716     15239  TIP3      H1              6.1510833595      -44.6907322861        6.4845803535  W2        15239           0.0000000000
     45717     15239  TIP3      H2              5.7684733595      -46.1182822861        6.8125903535  W2        15239           0.0000000000
     45718     15240  TIP3      OH2            19.5662433595      -39.8803822861        3.3781503535  W2        15240           0.0000000000
     45719     15240  TIP3      H1             19.6395933595      -38.9413622861        3.5486803535  W2        15240           0.0000000000
     45720     15240  TIP3      H2             20.4717533595      -40.1855222861        3.3218803535  W2        15240           0.0000000000
     45721     15241  TIP3      OH2             2.5359633595      -43.0959822861       15.7904303535  W2        15241           0.0000000000
     45722     15241  TIP3      H1              2.0348033595      -43.1240422861       14.9754003535  W2        15241           0.0000000000
     45723     15241  TIP3      H2              2.5413333595      -44.0016622861       16.1001603535  W2        15241           0.0000000000
     45724     15242  TIP3      OH2             2.2862333595      -40.3156022861       12.6744503535  W2        15242           0.0000000000
     45725     15242  TIP3      H1              3.2322933595      -40.4599022861       12.6554003535  W2        15242           0.0000000000
     45726     15242  TIP3      H2              2.1738633595      -39.5313222861       13.2115703535  W2        15242           0.0000000000
     45727     15243  TIP3      OH2            20.4840833595      -39.6496322861       18.3568203535  W2        15243           0.0000000000
     45728     15243  TIP3      H1             20.4347633595      -40.6048222861       18.3195803535  W2        15243           0.0000000000
     45729     15243  TIP3      H2             19.6573133595      -39.3821022861       18.7582003535  W2        15243           0.0000000000
     45730     15244  TIP3      OH2            11.4624833595      -40.0757122861       17.2329603535  W2        15244           0.0000000000
     45731     15244  TIP3      H1             11.5499433595      -39.2492522861       17.7078703535  W2        15244           0.0000000000
     45732     15244  TIP3      H2             10.5989933595      -40.4053322861       17.4818903535  W2        15244           0.0000000000
     45733     15245  TIP3      OH2            11.8770633595      -36.3033422861        7.0390203535  W2        15245           0.0000000000
     45734     15245  TIP3      H1             11.8016633595      -36.4246222861        6.0925403535  W2        15245           0.0000000000
     45735     15245  TIP3      H2             11.9099333595      -35.3540722861        7.1574803535  W2        15245           0.0000000000
     45736     15246  TIP3      OH2             5.5304433595      -37.5146422861        8.8199203535  W2        15246           0.0000000000
     45737     15246  TIP3      H1              5.6824833595      -37.8626022861        9.6985703535  W2        15246           0.0000000000
     45738     15246  TIP3      H2              4.6794833595      -37.8709122861        8.5646403535  W2        15246           0.0000000000
     45739     15247  TIP3      OH2            14.9786633595      -37.1493222861        4.0412603535  W2        15247           0.0000000000
     45740     15247  TIP3      H1             15.3535033595      -37.8937122861        3.5705203535  W2        15247           0.0000000000
     45741     15247  TIP3      H2             14.9830333595      -37.4192622861        4.9595903535  W2        15247           0.0000000000
     45742     15248  TIP3      OH2            14.6474733595      -37.2236122861        6.7904803535  W2        15248           0.0000000000
     45743     15248  TIP3      H1             13.7124533595      -37.1234222861        6.9691803535  W2        15248           0.0000000000
     45744     15248  TIP3      H2             14.9276633595      -37.9330122861        7.3688003535  W2        15248           0.0000000000
     45745     15249  TIP3      OH2            17.6360633595      -48.1563822861       18.8370403535  W2        15249           0.0000000000
     45746     15249  TIP3      H1             17.2287433595      -47.6758222861       18.1163703535  W2        15249           0.0000000000
     45747     15249  TIP3      H2             17.6766333595      -49.0617822861       18.5291203535  W2        15249           0.0000000000
     45748     15250  TIP3      OH2             4.7850133595      -41.7724422861       16.8337103535  W2        15250           0.0000000000
     45749     15250  TIP3      H1              5.0011433595      -42.1338822861       17.6932903535  W2        15250           0.0000000000
     45750     15250  TIP3      H2              3.9294833595      -42.1470622861       16.6240603535  W2        15250           0.0000000000
     45751     15251  TIP3      OH2             7.4038133595      -53.3023922861       12.8291303535  W2        15251           0.0000000000
     45752     15251  TIP3      H1              6.5421833595      -53.3895722861       12.4214203535  W2        15251           0.0000000000
     45753     15251  TIP3      H2              7.3813833595      -52.4463822861       13.2568903535  W2        15251           0.0000000000
     45754     15252  TIP3      OH2            12.0665933595      -53.5803522861       16.2038303535  W2        15252           0.0000000000
     45755     15252  TIP3      H1             12.4869033595      -53.9956422861       16.9568903535  W2        15252           0.0000000000
     45756     15252  TIP3      H2             11.1335533595      -53.7590222861       16.3210303535  W2        15252           0.0000000000
     45757     15253  TIP3      OH2            15.3930833595      -49.8248322861       17.0572803535  W2        15253           0.0000000000
     45758     15253  TIP3      H1             14.8790333595      -49.9506122861       17.8548803535  W2        15253           0.0000000000
     45759     15253  TIP3      H2             15.2375533595      -48.9125222861       16.8129003535  W2        15253           0.0000000000
     45760     15254  TIP3      OH2            16.1555733595      -44.9638322861        2.8185803535  W2        15254           0.0000000000
     45761     15254  TIP3      H1             16.1976533595      -45.1864422861        1.8885803535  W2        15254           0.0000000000
     45762     15254  TIP3      H2             17.0047833595      -44.5651222861        3.0085703535  W2        15254           0.0000000000
     45763     15255  TIP3      OH2            11.7283233595      -51.0880122861        3.4889103535  W2        15255           0.0000000000
     45764     15255  TIP3      H1             11.4748033595      -51.0688522861        4.4117203535  W2        15255           0.0000000000
     45765     15255  TIP3      H2             11.4715333595      -51.9594722861        3.1875303535  W2        15255           0.0000000000
     45766     15256  TIP3      OH2             7.4948233595      -48.3369422861       13.9241503535  W2        15256           0.0000000000
     45767     15256  TIP3      H1              6.8530333595      -48.3772122861       14.6331603535  W2        15256           0.0000000000
     45768     15256  TIP3      H2              7.5320233595      -47.4104722861       13.6864503535  W2        15256           0.0000000000
     45769     15257  TIP3      OH2             7.4917333595      -48.1159322861        8.8361503535  W2        15257           0.0000000000
     45770     15257  TIP3      H1              6.5990233595      -48.4563222861        8.7775303535  W2        15257           0.0000000000
     45771     15257  TIP3      H2              7.9423933595      -48.4928422861        8.0804703535  W2        15257           0.0000000000
     45772     15258  TIP3      OH2            13.0272833595      -47.6999022861        7.6532303535  W2        15258           0.0000000000
     45773     15258  TIP3      H1             12.6183133595      -46.8850422861        7.3617103535  W2        15258           0.0000000000
     45774     15258  TIP3      H2             13.7479033595      -47.8398922861        7.0389403535  W2        15258           0.0000000000
     45775     15259  TIP3      OH2            12.1294433595      -47.5242622861       19.1413003535  W2        15259           0.0000000000
     45776     15259  TIP3      H1             11.5668233595      -48.2291022861       19.4620803535  W2        15259           0.0000000000
     45777     15259  TIP3      H2             12.9557833595      -47.6450722861       19.6090603535  W2        15259           0.0000000000
     45778     15260  TIP3      OH2            14.0320533595      -48.2538622861       10.4672003535  W2        15260           0.0000000000
     45779     15260  TIP3      H1             13.8365033595      -47.6481822861        9.7522603535  W2        15260           0.0000000000
     45780     15260  TIP3      H2             14.2133133595      -49.0873422861       10.0328303535  W2        15260           0.0000000000
     45781     15261  TIP3      OH2             5.2448733595      -48.0165922861       15.7913503535  W2        15261           0.0000000000
     45782     15261  TIP3      H1              5.2068133595      -47.6164322861       16.6600603535  W2        15261           0.0000000000
     45783     15261  TIP3      H2              4.7539833595      -48.8333522861       15.8816403535  W2        15261           0.0000000000
     45784     15262  TIP3      OH2             8.6106133595      -50.6423622861        2.5899503535  W2        15262           0.0000000000
     45785     15262  TIP3      H1              8.1796833595      -51.0873522861        3.3196903535  W2        15262           0.0000000000
     45786     15262  TIP3      H2              7.8924833595      -50.2707322861        2.0777003535  W2        15262           0.0000000000
     45787     15263  TIP3      OH2             1.8529533595      -50.9004122861        9.6418203535  W2        15263           0.0000000000
     45788     15263  TIP3      H1              2.4837233595      -50.9292022861       10.3612103535  W2        15263           0.0000000000
     45789     15263  TIP3      H2              2.3023833595      -51.3255422861        8.9114103535  W2        15263           0.0000000000
     45790     15264  TIP3      OH2             3.1271633595      -50.1542122861        5.0658603535  W2        15264           0.0000000000
     45791     15264  TIP3      H1              3.6013333595      -49.5632222861        4.4809503535  W2        15264           0.0000000000
     45792     15264  TIP3      H2              2.4098033595      -49.6239222861        5.4128703535  W2        15264           0.0000000000
     45793     15265  TIP3      OH2            13.2959733595      -46.6157322861       15.1384403535  W2        15265           0.0000000000
     45794     15265  TIP3      H1             13.6194533595      -47.2467622861       14.4954903535  W2        15265           0.0000000000
     45795     15265  TIP3      H2             12.8559033595      -47.1505122861       15.7991803535  W2        15265           0.0000000000
     45796     15266  TIP3      OH2            10.0732633595      -50.6881822861        9.9225603535  W2        15266           0.0000000000
     45797     15266  TIP3      H1              9.1623733595      -50.6315022861       10.2111603535  W2        15266           0.0000000000
     45798     15266  TIP3      H2             10.5785533595      -50.7486322861       10.7332803535  W2        15266           0.0000000000
     45799     15267  TIP3      OH2             4.9016033595      -49.0595522861        8.7493203535  W2        15267           0.0000000000
     45800     15267  TIP3      H1              4.0124033595      -48.9600022861        8.4092803535  W2        15267           0.0000000000
     45801     15267  TIP3      H2              5.1980933595      -49.9012522861        8.4031103535  W2        15267           0.0000000000
     45802     15268  TIP3      OH2             8.5547833595      -49.0592922861        6.4057803535  W2        15268           0.0000000000
     45803     15268  TIP3      H1              9.4863333595      -48.9302922861        6.5840903535  W2        15268           0.0000000000
     45804     15268  TIP3      H2              8.3398133595      -48.3898622861        5.7562503535  W2        15268           0.0000000000
     45805     15269  TIP3      OH2            14.4784533595      -51.4535522861       13.1867403535  W2        15269           0.0000000000
     45806     15269  TIP3      H1             13.8016133595      -51.3222422861       13.8507103535  W2        15269           0.0000000000
     45807     15269  TIP3      H2             13.9929433595      -51.6086022861       12.3765103535  W2        15269           0.0000000000
     45808     15270  TIP3      OH2             7.2288033595      -47.8650722861        3.9723903535  W2        15270           0.0000000000
     45809     15270  TIP3      H1              6.6863133595      -48.2446922861        3.2811503535  W2        15270           0.0000000000
     45810     15270  TIP3      H2              8.0622933595      -47.6706022861        3.5438003535  W2        15270           0.0000000000
     45811     15271  TIP3      OH2            17.7659633595      -35.7820122861       19.4635003535  W2        15271           0.0000000000
     45812     15271  TIP3      H1             17.9658333595      -35.3578222861       18.6290303535  W2        15271           0.0000000000
     45813     15271  TIP3      H2             18.4213333595      -35.4381922861       20.0705403535  W2        15271           0.0000000000
     45814     15272  TIP3      OH2             5.3639433595      -43.3078822861       19.0715503535  W2        15272           0.0000000000
     45815     15272  TIP3      H1              6.0961833595      -43.0532922861       19.6330003535  W2        15272           0.0000000000
     45816     15272  TIP3      H2              4.5838133595      -43.1033422861       19.5870903535  W2        15272           0.0000000000
     45817     15273  TIP3      OH2            11.3932333595      -47.9008822861       11.8095203535  W2        15273           0.0000000000
     45818     15273  TIP3      H1             11.9575733595      -48.4472222861       11.2624803535  W2        15273           0.0000000000
     45819     15273  TIP3      H2             11.2455733595      -48.4226922861       12.5982803535  W2        15273           0.0000000000
     45820     15274  TIP3      OH2             6.3952033595      -51.7642722861        8.2280003535  W2        15274           0.0000000000
     45821     15274  TIP3      H1              6.0781533595      -52.6667422861        8.1925403535  W2        15274           0.0000000000
     45822     15274  TIP3      H2              7.1766133595      -51.7625322861        7.6751603535  W2        15274           0.0000000000
     45823     15275  TIP3      OH2            10.0198233595      -49.5122722861       14.2235603535  W2        15275           0.0000000000
     45824     15275  TIP3      H1              9.1843533595      -49.0583222861       14.3338003535  W2        15275           0.0000000000
     45825     15275  TIP3      H2             10.5438833595      -49.2364222861       14.9755503535  W2        15275           0.0000000000
     45826     15276  TIP3      OH2            10.5640833595      -43.2995022861        5.9082003535  W2        15276           0.0000000000
     45827     15276  TIP3      H1              9.8191833595      -43.8069722861        5.5859903535  W2        15276           0.0000000000
     45828     15276  TIP3      H2             10.4298033595      -43.2507022861        6.8546803535  W2        15276           0.0000000000
     45829     15277  TIP3      OH2            17.7139733595      -44.1666822861       14.6949603535  W2        15277           0.0000000000
     45830     15277  TIP3      H1             18.3558533595      -43.7100522861       14.1511803535  W2        15277           0.0000000000
     45831     15277  TIP3      H2             16.8836633595      -44.0534422861       14.2323703535  W2        15277           0.0000000000
     45832     15278  TIP3      OH2            14.4617633595      -50.4855122861        4.1074603535  W2        15278           0.0000000000
     45833     15278  TIP3      H1             13.5231833595      -50.3739522861        3.9563403535  W2        15278           0.0000000000
     45834     15278  TIP3      H2             14.7589733595      -49.6288222861        4.4140303535  W2        15278           0.0000000000
     45835     15279  TIP3      OH2            12.0832933595      -43.1151722861       17.1451103535  W2        15279           0.0000000000
     45836     15279  TIP3      H1             11.7379033595      -43.4969322861       17.9520703535  W2        15279           0.0000000000
     45837     15279  TIP3      H2             11.8833033595      -42.1818122861       17.2164003535  W2        15279           0.0000000000
     45838     15280  TIP3      OH2            15.1801133595      -48.6182422861        5.7682003535  W2        15280           0.0000000000
     45839     15280  TIP3      H1             16.0720133595      -48.7557422861        6.0873203535  W2        15280           0.0000000000
     45840     15280  TIP3      H2             15.2364733595      -47.8276322861        5.2315503535  W2        15280           0.0000000000
     45841     15281  TIP3      OH2             5.6889133595      -44.0045022861       11.6779903535  W2        15281           0.0000000000
     45842     15281  TIP3      H1              6.4336333595      -44.0069322861       11.0766403535  W2        15281           0.0000000000
     45843     15281  TIP3      H2              5.7665733595      -44.8281222861       12.1595003535  W2        15281           0.0000000000
     45844     15282  TIP3      OH2            12.6894933595      -41.8410722861        4.9336603535  W2        15282           0.0000000000
     45845     15282  TIP3      H1             12.3943333595      -41.0142822861        5.3151403535  W2        15282           0.0000000000
     45846     15282  TIP3      H2             11.9864933595      -42.4603822861        5.1298003535  W2        15282           0.0000000000
     45847     15283  TIP3      OH2             2.6968833595      -45.5438122861       16.9928403535  W2        15283           0.0000000000
     45848     15283  TIP3      H1              2.9197433595      -45.9618522861       17.8245903535  W2        15283           0.0000000000
     45849     15283  TIP3      H2              2.0948933595      -46.1563122861       16.5701203535  W2        15283           0.0000000000
     45850     15284  TIP3      OH2             9.7133733595      -46.0268222861       19.2058103535  W2        15284           0.0000000000
     45851     15284  TIP3      H1              9.4174533595      -46.1925222861       18.3107203535  W2        15284           0.0000000000
     45852     15284  TIP3      H2             10.6448933595      -46.2467922861       19.1952003535  W2        15284           0.0000000000
     45853     15285  TIP3      OH2            14.3336533595      -40.6536222861       17.0956103535  W2        15285           0.0000000000
     45854     15285  TIP3      H1             13.4330833595      -40.4703622861       16.8280003535  W2        15285           0.0000000000
     45855     15285  TIP3      H2             14.3677633595      -40.3946922861       18.0164903535  W2        15285           0.0000000000
     45856     15286  TIP3      OH2            20.0649833595      -48.4088322861        5.4628703535  W2        15286           0.0000000000
     45857     15286  TIP3      H1             19.5106133595      -48.8050322861        4.7906203535  W2        15286           0.0000000000
     45858     15286  TIP3      H2             20.1653433595      -47.4983122861        5.1852003535  W2        15286           0.0000000000
     45859     15287  TIP3      OH2            20.0281833595      -42.6086622861       18.3000203535  W2        15287           0.0000000000
     45860     15287  TIP3      H1             19.1770333595      -42.3702822861       17.9326603535  W2        15287           0.0000000000
     45861     15287  TIP3      H2             20.6185233595      -42.6253422861       17.5467303535  W2        15287           0.0000000000
     45862     15288  TIP3      OH2            18.3601533595      -39.6227922861        5.9280803535  W2        15288           0.0000000000
     45863     15288  TIP3      H1             17.9872633595      -40.4484122861        6.2371403535  W2        15288           0.0000000000
     45864     15288  TIP3      H2             18.6375033595      -39.8058522861        5.0304203535  W2        15288           0.0000000000
     45865     15289  TIP3      OH2            15.5205433595      -44.8148422861       12.9492703535  W2        15289           0.0000000000
     45866     15289  TIP3      H1             14.5922333595      -45.0466522861       12.9222003535  W2        15289           0.0000000000
     45867     15289  TIP3      H2             15.9716533595      -45.5918622861       12.6191503535  W2        15289           0.0000000000
     45868     15290  TIP3      OH2             8.0638533595      -40.4866822861        9.0821403535  W2        15290           0.0000000000
     45869     15290  TIP3      H1              8.5910733595      -39.7132422861        8.8820203535  W2        15290           0.0000000000
     45870     15290  TIP3      H2              7.1837033595      -40.2617622861        8.7805403535  W2        15290           0.0000000000
     45871     15291  TIP3      OH2             3.8186233595      -45.6242722861        3.6693803535  W2        15291           0.0000000000
     45872     15291  TIP3      H1              4.4346133595      -44.9975522861        4.0488603535  W2        15291           0.0000000000
     45873     15291  TIP3      H2              2.9568833595      -45.3082922861        3.9410303535  W2        15291           0.0000000000
     45874     15292  TIP3      OH2             9.4910833595      -42.8236922861        8.6585703535  W2        15292           0.0000000000
     45875     15292  TIP3      H1              9.2500833595      -41.8982522861        8.7001003535  W2        15292           0.0000000000
     45876     15292  TIP3      H2              8.7504433595      -43.2825622861        9.0549603535  W2        15292           0.0000000000
     45877     15293  TIP3      OH2            10.0057433595      -38.6743322861       14.9736803535  W2        15293           0.0000000000
     45878     15293  TIP3      H1             10.3682133595      -37.8197722861       14.7401203535  W2        15293           0.0000000000
     45879     15293  TIP3      H2             10.5372633595      -38.9661722861       15.7143103535  W2        15293           0.0000000000
     45880     15294  TIP3      OH2             8.1741633595      -37.8019322861        8.2037903535  W2        15294           0.0000000000
     45881     15294  TIP3      H1              7.2242133595      -37.6961922861        8.2551203535  W2        15294           0.0000000000
     45882     15294  TIP3      H2              8.5259733595      -36.9811922861        8.5485403535  W2        15294           0.0000000000
     45883     15295  TIP3      OH2            13.5498233595      -42.5752622861       14.6742403535  W2        15295           0.0000000000
     45884     15295  TIP3      H1             13.1239533595      -42.8030922861       15.5006403535  W2        15295           0.0000000000
     45885     15295  TIP3      H2             14.1304033595      -43.3140822861       14.4917703535  W2        15295           0.0000000000
     45886     15296  TIP3      OH2            15.7527133595      -41.6462122861        3.7481403535  W2        15296           0.0000000000
     45887     15296  TIP3      H1             16.1060233595      -42.0262322861        4.5524903535  W2        15296           0.0000000000
     45888     15296  TIP3      H2             14.8040633595      -41.7397322861        3.8350703535  W2        15296           0.0000000000
     45889     15297  TIP3      OH2            16.2082433595      -38.0233122861       17.1437203535  W2        15297           0.0000000000
     45890     15297  TIP3      H1             15.6065633595      -38.5790222861       16.6483503535  W2        15297           0.0000000000
     45891     15297  TIP3      H2             16.4896133595      -37.3563322861       16.5174603535  W2        15297           0.0000000000
     45892     15298  TIP3      OH2            20.2561533595      -37.1669622861        3.9491603535  W2        15298           0.0000000000
     45893     15298  TIP3      H1             20.9999433595      -36.5809122861        3.8093203535  W2        15298           0.0000000000
     45894     15298  TIP3      H2             19.5619633595      -36.5983822861        4.2824003535  W2        15298           0.0000000000
     45895     15299  TIP3      OH2             4.3308333595      -50.7905422861       16.5509803535  W2        15299           0.0000000000
     45896     15299  TIP3      H1              3.4380633595      -50.4520022861       16.4833803535  W2        15299           0.0000000000
     45897     15299  TIP3      H2              4.2321133595      -51.6459322861       16.9690603535  W2        15299           0.0000000000
     45898     15300  TIP3      OH2            16.6186433595      -42.9740122861        5.9749303535  W2        15300           0.0000000000
     45899     15300  TIP3      H1             16.3414033595      -43.7020822861        6.5310403535  W2        15300           0.0000000000
     45900     15300  TIP3      H2             17.5459433595      -42.8548122861        6.1801903535  W2        15300           0.0000000000
     45901     15301  TIP3      OH2             3.9820333595      -38.9861022861       14.9859203535  W2        15301           0.0000000000
     45902     15301  TIP3      H1              4.1990633595      -39.9178622861       14.9548903535  W2        15301           0.0000000000
     45903     15301  TIP3      H2              4.2283833595      -38.7116022861       15.8692003535  W2        15301           0.0000000000
     45904     15302  TIP3      OH2             9.8434933595      -40.5346022861        2.1951403535  W2        15302           0.0000000000
     45905     15302  TIP3      H1             10.0824733595      -41.2827922861        1.6480303535  W2        15302           0.0000000000
     45906     15302  TIP3      H2              9.5746233595      -40.9224322861        3.0279203535  W2        15302           0.0000000000
     45907     15303  TIP3      OH2             8.7805533595      -40.9642222861        4.6514003535  W2        15303           0.0000000000
     45908     15303  TIP3      H1              8.9273533595      -41.4842422861        5.4414903535  W2        15303           0.0000000000
     45909     15303  TIP3      H2              8.7777233595      -40.0574622861        4.9579903535  W2        15303           0.0000000000
     45910     15304  TIP3      OH2             5.2336633595      -43.7118922861        5.1619403535  W2        15304           0.0000000000
     45911     15304  TIP3      H1              4.5475933595      -43.3596422861        5.7289103535  W2        15304           0.0000000000
     45912     15304  TIP3      H2              5.7564533595      -42.9489322861        4.9153703535  W2        15304           0.0000000000
     45913     15305  TIP3      OH2            13.0651733595      -51.0495122861       15.4408403535  W2        15305           0.0000000000
     45914     15305  TIP3      H1             13.7639633595      -50.9756422861       16.0908103535  W2        15305           0.0000000000
     45915     15305  TIP3      H2             12.6843133595      -51.9140122861       15.5951303535  W2        15305           0.0000000000
     45916     15306  TIP3      OH2            13.8496633595      -51.3973422861        6.5380703535  W2        15306           0.0000000000
     45917     15306  TIP3      H1             14.0694933595      -50.9258022861        5.7346103535  W2        15306           0.0000000000
     45918     15306  TIP3      H2             14.4080633595      -51.0030822861        7.2081303535  W2        15306           0.0000000000
     45919     15307  TIP3      OH2            11.5182733595      -39.2668622861        5.4008203535  W2        15307           0.0000000000
     45920     15307  TIP3      H1             10.7018833595      -38.7698922861        5.4532503535  W2        15307           0.0000000000
     45921     15307  TIP3      H2             12.0479033595      -38.7915122861        4.7607003535  W2        15307           0.0000000000
     45922     15308  TIP3      OH2            11.0496533595      -49.6694622861        7.3729103535  W2        15308           0.0000000000
     45923     15308  TIP3      H1             11.8619133595      -49.1651422861        7.4190803535  W2        15308           0.0000000000
     45924     15308  TIP3      H2             10.8049533595      -49.8144922861        8.2868703535  W2        15308           0.0000000000
     45925     15309  TIP3      OH2            11.5852933595      -48.6831922861       16.5575703535  W2        15309           0.0000000000
     45926     15309  TIP3      H1             11.7043233595      -48.1096522861       17.3146103535  W2        15309           0.0000000000
     45927     15309  TIP3      H2             12.2407533595      -49.3712522861       16.6723503535  W2        15309           0.0000000000
     45928     15310  TIP3      OH2            11.9333233595      -52.5881622861        8.3110203535  W2        15310           0.0000000000
     45929     15310  TIP3      H1             11.5866733595      -51.9711022861        8.9554503535  W2        15310           0.0000000000
     45930     15310  TIP3      H2             12.5920133595      -52.0875922861        7.8295703535  W2        15310           0.0000000000
     45931     15311  TIP3      OH2             8.8565833595      -38.2231422861        5.3825103535  W2        15311           0.0000000000
     45932     15311  TIP3      H1              9.0174533595      -37.4233922861        4.8817703535  W2        15311           0.0000000000
     45933     15311  TIP3      H2              8.6593633595      -37.9165422861        6.2675703535  W2        15311           0.0000000000
     45934     15312  TIP3      OH2             7.5910233595      -51.5252222861        4.9982703535  W2        15312           0.0000000000
     45935     15312  TIP3      H1              7.5075033595      -50.6369122861        5.3449103535  W2        15312           0.0000000000
     45936     15312  TIP3      H2              8.4810533595      -51.7905522861        5.2299503535  W2        15312           0.0000000000
     45937     15313  TIP3      OH2            17.7898733595      -50.7761622861       17.3925403535  W2        15313           0.0000000000
     45938     15313  TIP3      H1             16.8734533595      -50.5139922861       17.3049103535  W2        15313           0.0000000000
     45939     15313  TIP3      H2             18.1253733595      -50.7792622861       16.4960703535  W2        15313           0.0000000000
     45940     15314  TIP3      OH2            16.3919733595      -47.0260622861       11.4882703535  W2        15314           0.0000000000
     45941     15314  TIP3      H1             15.5944133595      -47.4410422861       11.1597703535  W2        15314           0.0000000000
     45942     15314  TIP3      H2             16.8370833595      -47.7166922861       11.9793203535  W2        15314           0.0000000000
     45943     15315  TIP3      OH2             5.8495533595      -41.0980022861        4.0587203535  W2        15315           0.0000000000
     45944     15315  TIP3      H1              6.4417033595      -40.3985222861        4.3349603535  W2        15315           0.0000000000
     45945     15315  TIP3      H2              6.3088533595      -41.5310522861        3.3391803535  W2        15315           0.0000000000
     45946     15316  TIP3      OH2             4.1654733595      -48.4337022861        3.1746603535  W2        15316           0.0000000000
     45947     15316  TIP3      H1              4.1207333595      -47.4943922861        3.3533603535  W2        15316           0.0000000000
     45948     15316  TIP3      H2              3.2777933595      -48.6692122861        2.9048703535  W2        15316           0.0000000000
     45949     15317  TIP3      OH2            17.4784333595      -37.7698122861       13.1106203535  W2        15317           0.0000000000
     45950     15317  TIP3      H1             17.3228633595      -37.0913722861       12.4535503535  W2        15317           0.0000000000
     45951     15317  TIP3      H2             18.4110733595      -37.6978822861       13.3136803535  W2        15317           0.0000000000
     45952     15318  TIP3      OH2             4.9736733595      -53.6520422861       11.8477603535  W2        15318           0.0000000000
     45953     15318  TIP3      H1              4.7446533595      -53.5927922861       10.9202603535  W2        15318           0.0000000000
     45954     15318  TIP3      H2              4.5310133595      -54.4434922861       12.1541703535  W2        15318           0.0000000000
     45955     15319  TIP3      OH2             3.9040033595      -39.7113322861        8.0083403535  W2        15319           0.0000000000
     45956     15319  TIP3      H1              3.0718633595      -39.2390622861        8.0354803535  W2        15319           0.0000000000
     45957     15319  TIP3      H2              4.4498333595      -39.2015722861        7.4096503535  W2        15319           0.0000000000
     45958     15320  TIP3      OH2             3.1923733595      -37.0989622861       19.3381403535  W2        15320           0.0000000000
     45959     15320  TIP3      H1              3.7325933595      -37.3155622861       20.0980603535  W2        15320           0.0000000000
     45960     15320  TIP3      H2              2.7111733595      -37.9043622861       19.1483903535  W2        15320           0.0000000000
     45961     15321  TIP3      OH2             7.7897133595      -38.1795222861       20.9585603535  W2        15321           0.0000000000
     45962     15321  TIP3      H1              8.5574333595      -38.6384422861       21.2994803535  W2        15321           0.0000000000
     45963     15321  TIP3      H2              7.7683333595      -38.4055422861       20.0286803535  W2        15321           0.0000000000
     45964     15322  TIP3      OH2            11.8816733595      -38.6714622861        2.3337403535  W2        15322           0.0000000000
     45965     15322  TIP3      H1             11.2377733595      -39.3026022861        2.6551103535  W2        15322           0.0000000000
     45966     15322  TIP3      H2             12.6435033595      -39.2026622861        2.1020903535  W2        15322           0.0000000000
     45967     15323  TIP3      OH2            14.3665833595      -39.7994122861       19.6877103535  W2        15323           0.0000000000
     45968     15323  TIP3      H1             14.0155333595      -40.6561122861       19.9307503535  W2        15323           0.0000000000
     45969     15323  TIP3      H2             15.0929033595      -39.6567422861       20.2946103535  W2        15323           0.0000000000
     45970     15324  TIP3      OH2            16.4859633595      -38.8544722861        2.5675403535  W2        15324           0.0000000000
     45971     15324  TIP3      H1             16.7690033595      -39.6489522861        3.0202303535  W2        15324           0.0000000000
     45972     15324  TIP3      H2             17.2257533595      -38.6213722861        2.0066503535  W2        15324           0.0000000000
     45973     15325  TIP3      OH2             3.0993233595      -43.2885522861       20.2925703535  W2        15325           0.0000000000
     45974     15325  TIP3      H1              3.2433733595      -44.1904822861       20.0062403535  W2        15325           0.0000000000
     45975     15325  TIP3      H2              2.3270633595      -43.0023422861       19.8048003535  W2        15325           0.0000000000
     45976     15326  TIP3      OH2             7.4406933595      -42.9449822861        2.4250303535  W2        15326           0.0000000000
     45977     15326  TIP3      H1              7.5051033595      -43.7390222861        2.9556703535  W2        15326           0.0000000000
     45978     15326  TIP3      H2              8.0936133595      -43.0637022861        1.7352303535  W2        15326           0.0000000000
     45979     15327  TIP3      OH2             9.7549333595      -43.3187422861       19.7252103535  W2        15327           0.0000000000
     45980     15327  TIP3      H1              9.4263133595      -43.0479322861       18.8679503535  W2        15327           0.0000000000
     45981     15327  TIP3      H2              9.9067533595      -44.2597622861       19.6377103535  W2        15327           0.0000000000
     45982     15328  TIP3      OH2            12.7930333595      -41.8978122861        2.1608303535  W2        15328           0.0000000000
     45983     15328  TIP3      H1             12.5244433595      -41.7176022861        3.0617203535  W2        15328           0.0000000000
     45984     15328  TIP3      H2             12.5865933595      -42.8231922861        2.0294103535  W2        15328           0.0000000000
     45985     15329  TIP3      OH2            15.4894533595      -43.4030122861       17.1084403535  W2        15329           0.0000000000
     45986     15329  TIP3      H1             16.2349333595      -42.8146422861       16.9888403535  W2        15329           0.0000000000
     45987     15329  TIP3      H2             14.7321333595      -42.8210422861       17.1717503535  W2        15329           0.0000000000
     45988     15330  TIP3      OH2             3.9319733595      -46.0882222861       19.7125003535  W2        15330           0.0000000000
     45989     15330  TIP3      H1              4.3400933595      -46.9455622861       19.5915603535  W2        15330           0.0000000000
     45990     15330  TIP3      H2              3.6717333595      -46.0740922861       20.6335303535  W2        15330           0.0000000000
     45991     15331  TIP3      OH2             8.5900733595      -44.9723622861        4.7308303535  W2        15331           0.0000000000
     45992     15331  TIP3      H1              8.1302733595      -45.4565322861        5.4166803535  W2        15331           0.0000000000
     45993     15331  TIP3      H2              8.8449433595      -45.6408222861        4.0948803535  W2        15331           0.0000000000
     45994     15332  TIP3      OH2             7.8790033595      -47.0796522861       17.0867903535  W2        15332           0.0000000000
     45995     15332  TIP3      H1              7.2606133595      -46.4049922861       17.3672603535  W2        15332           0.0000000000
     45996     15332  TIP3      H2              8.2231233595      -46.7582622861       16.2534103535  W2        15332           0.0000000000
     45997     15333  TIP3      OH2             9.6611133595      -46.7291822861        2.9931503535  W2        15333           0.0000000000
     45998     15333  TIP3      H1              9.4806133595      -46.8840622861        2.0659803535  W2        15333           0.0000000000
     45999     15333  TIP3      H2             10.6111633595      -46.6213122861        3.0379403535  W2        15333           0.0000000000
     46000     15334  TIP3      OH2            12.8988233595      -44.6081222861       20.3642703535  W2        15334           0.0000000000
     46001     15334  TIP3      H1             13.8519433595      -44.5242122861       20.3368703535  W2        15334           0.0000000000
     46002     15334  TIP3      H2             12.7382833595      -45.3199422861       20.9837603535  W2        15334           0.0000000000
     46003     15335  TIP3      OH2            19.0509433595      -44.3747622861        2.4389603535  W2        15335           0.0000000000
     46004     15335  TIP3      H1             18.7774233595      -44.7992122861        1.6257903535  W2        15335           0.0000000000
     46005     15335  TIP3      H2             19.0903533595      -43.4433122861        2.2220003535  W2        15335           0.0000000000
     46006     15336  TIP3      OH2             8.2183733595      -49.7245722861       18.1691003535  W2        15336           0.0000000000
     46007     15336  TIP3      H1              8.3684633595      -50.4534422861       17.5670703535  W2        15336           0.0000000000
     46008     15336  TIP3      H2              8.2206133595      -48.9474022861       17.6103203535  W2        15336           0.0000000000
     46009     15337  TIP3      OH2             8.6309433595      -51.3549922861       15.6618403535  W2        15337           0.0000000000
     46010     15337  TIP3      H1              9.1666933595      -50.9033222861       15.0097703535  W2        15337           0.0000000000
     46011     15337  TIP3      H2              7.7789033595      -51.4630122861       15.2392503535  W2        15337           0.0000000000
     46012     15338  TIP3      OH2            10.2127833595      -45.9153722861       15.9013603535  W2        15338           0.0000000000
     46013     15338  TIP3      H1             10.9632633595      -46.0716222861       15.3281403535  W2        15338           0.0000000000
     46014     15338  TIP3      H2              9.8736133595      -45.0637122861       15.6259103535  W2        15338           0.0000000000
     46015     15339  TIP3      OH2            14.6284033595      -48.1001922861       20.9298903535  W2        15339           0.0000000000
     46016     15339  TIP3      H1             14.8205333595      -49.0312522861       20.8183403535  W2        15339           0.0000000000
     46017     15339  TIP3      H2             15.4860333595      -47.6752422861       20.9194303535  W2        15339           0.0000000000
     46018     15340  TIP3      OH2            15.9451233595      -45.3116722861       19.0071603535  W2        15340           0.0000000000
     46019     15340  TIP3      H1             15.6636233595      -44.6022122861       18.4295403535  W2        15340           0.0000000000
     46020     15340  TIP3      H2             16.8875533595      -45.3843722861       18.8562803535  W2        15340           0.0000000000
     46021     15341  TIP3      OH2             6.6970033595      -48.5262222861       20.0806603535  W2        15341           0.0000000000
     46022     15341  TIP3      H1              5.9299033595      -49.0587422861       19.8704203535  W2        15341           0.0000000000
     46023     15341  TIP3      H2              7.3759033595      -48.8361822861       19.4812903535  W2        15341           0.0000000000
     46024     15342  TIP3      OH2             9.4364933595      -53.8984222861       16.0932003535  W2        15342           0.0000000000
     46025     15342  TIP3      H1              9.3384533595      -52.9521022861       15.9878203535  W2        15342           0.0000000000
     46026     15342  TIP3      H2              8.6941133595      -54.2710422861       15.6175503535  W2        15342           0.0000000000
     46027     15343  TIP3      OH2            10.7005433595      -49.5768822861       19.6570403535  W2        15343           0.0000000000
     46028     15343  TIP3      H1             10.4650833595      -49.7962122861       20.5585303535  W2        15343           0.0000000000
     46029     15343  TIP3      H2              9.9172333595      -49.7837622861       19.1472903535  W2        15343           0.0000000000
     46030     15344  TIP3      OH2            13.4162033595      -50.4495322861       18.7323903535  W2        15344           0.0000000000
     46031     15344  TIP3      H1             12.4687433595      -50.4175622861       18.8647203535  W2        15344           0.0000000000
     46032     15344  TIP3      H2             13.7288733595      -51.0748222861       19.3862103535  W2        15344           0.0000000000
     46033     15345  TIP3      OH2            15.0503533595      -51.8154222861       20.7375803535  W2        15345           0.0000000000
     46034     15345  TIP3      H1             14.9535333595      -52.7676922861       20.7317703535  W2        15345           0.0000000000
     46035     15345  TIP3      H2             14.7286633595      -51.5467422861       21.5981303535  W2        15345           0.0000000000
     46036     15346  TIP3      OH2             4.8772833595      -50.6058422861       19.7851303535  W2        15346           0.0000000000
     46037     15346  TIP3      H1              5.0890233595      -51.3122322861       19.1748803535  W2        15346           0.0000000000
     46038     15346  TIP3      H2              4.7660333595      -51.0432422861       20.6292503535  W2        15346           0.0000000000
     46039     15347  TIP3      OH2             9.6583033595      -54.6046822861       18.7644803535  W2        15347           0.0000000000
     46040     15347  TIP3      H1             10.3701433595      -55.2444622861       18.7503903535  W2        15347           0.0000000000
     46041     15347  TIP3      H2              9.5573433595      -54.3378522861       17.8507903535  W2        15347           0.0000000000
     46042     15348  TIP3      OH2            10.0120533595      -52.9218422861       20.8181103535  W2        15348           0.0000000000
     46043     15348  TIP3      H1              9.8802733595      -53.3974622861       19.9979603535  W2        15348           0.0000000000
     46044     15348  TIP3      H2              9.4127933595      -52.1774822861       20.7628203535  W2        15348           0.0000000000
     46045     15349  TIP3      OH2             9.5582833595      -36.0388122861        3.9945103535  W2        15349           0.0000000000
     46046     15349  TIP3      H1             10.4913533595      -35.8809422861        4.1383503535  W2        15349           0.0000000000
     46047     15349  TIP3      H2              9.2941633595      -35.3635122861        3.3696603535  W2        15349           0.0000000000
     46048     15350  TIP3      OH2             3.1267733595      -41.4024322861        3.4773203535  W2        15350           0.0000000000
     46049     15350  TIP3      H1              4.0406933595      -41.3235422861        3.7507103535  W2        15350           0.0000000000
     46050     15350  TIP3      H2              3.1340833595      -42.0894722861        2.8108803535  W2        15350           0.0000000000
     46051     15351  TIP3      OH2             1.7758333595      -36.0095822861        8.5547103535  W2        15351           0.0000000000
     46052     15351  TIP3      H1              1.1285433595      -36.4714122861        8.0218303535  W2        15351           0.0000000000
     46053     15351  TIP3      H2              2.1302933595      -36.6812522861        9.1373303535  W2        15351           0.0000000000
     46054     15352  TIP3      OH2             2.6457533595      -37.9288822861       10.3593303535  W2        15352           0.0000000000
     46055     15352  TIP3      H1              2.3114333595      -38.8091522861       10.5313503535  W2        15352           0.0000000000
     46056     15352  TIP3      H2              2.8679933595      -37.5833822861       11.2238903535  W2        15352           0.0000000000
     46057     15353  TIP3      OH2            20.1942333595      -37.1192422861       13.3398103535  W2        15353           0.0000000000
     46058     15353  TIP3      H1             20.1729033595      -36.9344022861       14.2787503535  W2        15353           0.0000000000
     46059     15353  TIP3      H2             20.8848533595      -36.5508422861       12.9989503535  W2        15353           0.0000000000
     46060     15354  TIP3      OH2            19.7575233595      -37.5521322861       16.2617203535  W2        15354           0.0000000000
     46061     15354  TIP3      H1             19.2703933595      -38.2877222861       15.8904603535  W2        15354           0.0000000000
     46062     15354  TIP3      H2             20.3067933595      -37.9457422861       16.9396603535  W2        15354           0.0000000000
     46063     15355  TIP3      OH2            18.2082533595      -41.7623222861       20.8997503535  W2        15355           0.0000000000
     46064     15355  TIP3      H1             17.3423633595      -41.8673522861       21.2939803535  W2        15355           0.0000000000
     46065     15355  TIP3      H2             18.5848433595      -41.0039922861       21.3462203535  W2        15355           0.0000000000
     46066     15356  TIP3      OH2            19.5092233595      -43.5059522861        6.4140003535  W2        15356           0.0000000000
     46067     15356  TIP3      H1             20.3593633595      -43.0848622861        6.5411603535  W2        15356           0.0000000000
     46068     15356  TIP3      H2             19.5147333595      -44.2459422861        7.0211403535  W2        15356           0.0000000000
     46069     15357  TIP3      OH2            19.9037833595      -45.4522122861        8.2375703535  W2        15357           0.0000000000
     46070     15357  TIP3      H1             19.1772433595      -45.9319522861        8.6353303535  W2        15357           0.0000000000
     46071     15357  TIP3      H2             20.4851133595      -45.2467422861        8.9697303535  W2        15357           0.0000000000
     46072     15358  TIP3      OH2            19.6629033595      -42.6674622861       13.1853303535  W2        15358           0.0000000000
     46073     15358  TIP3      H1             20.4963233595      -43.0454622861       12.9046903535  W2        15358           0.0000000000
     46074     15358  TIP3      H2             19.7749333595      -41.7243422861       13.0662403535  W2        15358           0.0000000000
     46075     15359  TIP3      OH2            18.1491333595      -39.7897122861       15.4921703535  W2        15359           0.0000000000
     46076     15359  TIP3      H1             17.5016633595      -39.4645622861       16.1176903535  W2        15359           0.0000000000
     46077     15359  TIP3      H2             17.6315333595      -40.2299422861       14.8180003535  W2        15359           0.0000000000
     46078     15360  TIP3      OH2            20.1720933595      -45.5513622861        4.6287003535  W2        15360           0.0000000000
     46079     15360  TIP3      H1             19.6502033595      -45.1949522861        3.9097903535  W2        15360           0.0000000000
     46080     15360  TIP3      H2             20.1390133595      -44.8765822861        5.3067903535  W2        15360           0.0000000000
     46081     15361  TIP3      OH2            18.5209933595      -48.3118022861        3.1794103535  W2        15361           0.0000000000
     46082     15361  TIP3      H1             18.6174333595      -47.6451022861        2.4993803535  W2        15361           0.0000000000
     46083     15361  TIP3      H2             18.3809533595      -49.1271722861        2.6979603535  W2        15361           0.0000000000
     46084     15362  TIP3      OH2            17.6904633595      -46.9315622861        8.8004403535  W2        15362           0.0000000000
     46085     15362  TIP3      H1             17.5403433595      -47.8767022861        8.7802203535  W2        15362           0.0000000000
     46086     15362  TIP3      H2             17.3369133595      -46.6504222861        9.6443503535  W2        15362           0.0000000000
     46087     15363  TIP3      OH2             2.7257033595      -44.8533422861       12.8108203535  W2        15363           0.0000000000
     46088     15363  TIP3      H1              2.9099933595      -44.9351722861       11.8751103535  W2        15363           0.0000000000
     46089     15363  TIP3      H2              3.5749933595      -44.9776422861       13.2344603535  W2        15363           0.0000000000
     46090     15364  TIP3      OH2            18.5467533595      -44.9612322861       18.4392703535  W2        15364           0.0000000000
     46091     15364  TIP3      H1             19.1294833595      -45.6960022861       18.6309903535  W2        15364           0.0000000000
     46092     15364  TIP3      H2             19.1106833595      -44.1892022861       18.4858503535  W2        15364           0.0000000000
     46093     15365  TIP3      OH2            20.0434633595      -47.0586522861       19.1238103535  W2        15365           0.0000000000
     46094     15365  TIP3      H1             19.1801333595      -47.4374422861       18.9582803535  W2        15365           0.0000000000
     46095     15365  TIP3      H2             20.6478333595      -47.7971722861       19.0493903535  W2        15365           0.0000000000
     46096     15366  TIP3      OH2            17.7683733595      -50.9038222861        2.2969603535  W2        15366           0.0000000000
     46097     15366  TIP3      H1             18.3789533595      -51.2751422861        2.9337803535  W2        15366           0.0000000000
     46098     15366  TIP3      H2             16.9315233595      -51.3251322861        2.4929603535  W2        15366           0.0000000000
     46099     15367  TIP3      OH2            17.4009433595      -49.3489822861        7.2629503535  W2        15367           0.0000000000
     46100     15367  TIP3      H1             17.6806533595      -50.2559422861        7.3871203535  W2        15367           0.0000000000
     46101     15367  TIP3      H2             18.1601133595      -48.9148322861        6.8738703535  W2        15367           0.0000000000
     46102     15368  TIP3      OH2            18.0127733595      -48.7672422861       12.6988403535  W2        15368           0.0000000000
     46103     15368  TIP3      H1             18.9455733595      -48.5552522861       12.6644403535  W2        15368           0.0000000000
     46104     15368  TIP3      H2             17.7775233595      -48.6660322861       13.6211403535  W2        15368           0.0000000000
     46105     15369  TIP3      OH2            18.0419633595      -48.0307122861       15.4747803535  W2        15369           0.0000000000
     46106     15369  TIP3      H1             17.1990933595      -47.7626722861       15.8407603535  W2        15369           0.0000000000
     46107     15369  TIP3      H2             18.4843933595      -47.2085222861       15.2638903535  W2        15369           0.0000000000
     46108     15370  TIP3      OH2             2.3231833595      -49.5828422861       18.9517003535  W2        15370           0.0000000000
     46109     15370  TIP3      H1              3.2426733595      -49.7050122861       19.1880103535  W2        15370           0.0000000000
     46110     15370  TIP3      H2              1.8736333595      -50.3328722861       19.3410503535  W2        15370           0.0000000000
     46111     15371  TIP3      OH2            20.3251233595      -54.0506922861       20.8282803535  W2        15371           0.0000000000
     46112     15371  TIP3      H1             20.6748233595      -54.7043422861       20.2227503535  W2        15371           0.0000000000
     46113     15371  TIP3      H2             20.4720733595      -53.2132822861       20.3885403535  W2        15371           0.0000000000
     46114     15372  TIP3      OH2            18.0144233595      -52.0860522861        7.3111503535  W2        15372           0.0000000000
     46115     15372  TIP3      H1             18.1969233595      -52.5349022861        8.1366503535  W2        15372           0.0000000000
     46116     15372  TIP3      H2             17.4147133595      -52.6706122861        6.8476103535  W2        15372           0.0000000000
     46117     15373  TIP3      OH2             3.5444333595      -51.2706822861       11.8429903535  W2        15373           0.0000000000
     46118     15373  TIP3      H1              3.9895933595      -52.0624322861       12.1449603535  W2        15373           0.0000000000
     46119     15373  TIP3      H2              4.0107333595      -50.5541622861       12.2735503535  W2        15373           0.0000000000
     46120     15374  TIP3      OH2             1.8484633595      -48.2713822861       12.9120103535  W2        15374           0.0000000000
     46121     15374  TIP3      H1              2.3404433595      -48.4923322861       12.1212103535  W2        15374           0.0000000000
     46122     15374  TIP3      H2              2.2105533595      -47.4310422861       13.1929603535  W2        15374           0.0000000000
     46123     15375  TIP3      OH2            19.8448433595      -51.9412322861       19.1774103535  W2        15375           0.0000000000
     46124     15375  TIP3      H1             18.9274133595      -51.6705222861       19.1417603535  W2        15375           0.0000000000
     46125     15375  TIP3      H2             19.9677833595      -52.4763922861       18.3933803535  W2        15375           0.0000000000
     46126     15376  TIP3      OH2            19.8810433595      -52.0182422861        3.8391803535  W2        15376           0.0000000000
     46127     15376  TIP3      H1             20.2933033595      -52.7396722861        3.3639803535  W2        15376           0.0000000000
     46128     15376  TIP3      H2             20.5626933595      -51.3487822861        3.8976103535  W2        15376           0.0000000000
     46129     15377  TIP3      OH2             2.1621133595      -52.0134722861        6.9662503535  W2        15377           0.0000000000
     46130     15377  TIP3      H1              1.2369533595      -51.8048122861        6.8368003535  W2        15377           0.0000000000
     46131     15377  TIP3      H2              2.6161033595      -51.5293922861        6.2764803535  W2        15377           0.0000000000
     46132     15378  TIP3      OH2            16.9328333595      -37.0293022861        8.9119903535  W2        15378           0.0000000000
     46133     15378  TIP3      H1             17.5851233595      -37.3770922861        8.3039003535  W2        15378           0.0000000000
     46134     15378  TIP3      H2             17.4432133595      -36.5409822861        9.5579603535  W2        15378           0.0000000000
     46135     15379  TIP3      OH2             2.1256533595      -53.2755722861       15.3105003535  W2        15379           0.0000000000
     46136     15379  TIP3      H1              1.4607033595      -53.5215422861       15.9535903535  W2        15379           0.0000000000
     46137     15379  TIP3      H2              1.6827833595      -52.6535322861       14.7333003535  W2        15379           0.0000000000
     46138     15380  TIP3      OH2             4.3175833595      -40.1001622861       19.4550803535  W2        15380           0.0000000000
     46139     15380  TIP3      H1              3.4968333595      -39.9255122861       18.9945503535  W2        15380           0.0000000000
     46140     15380  TIP3      H2              4.0653633595      -40.1736922861       20.3755203535  W2        15380           0.0000000000
     46141     15381  TIP3      OH2             7.2718733595      -39.1260422861       15.7134803535  W2        15381           0.0000000000
     46142     15381  TIP3      H1              6.8469833595      -38.3161922861       15.4309403535  W2        15381           0.0000000000
     46143     15381  TIP3      H2              8.1761533595      -39.0406322861       15.4114603535  W2        15381           0.0000000000
     46144     15382  TIP3      OH2            11.5830133595      -37.7270422861       18.6728503535  W2        15382           0.0000000000
     46145     15382  TIP3      H1             11.7677633595      -38.0604322861       19.5508803535  W2        15382           0.0000000000
     46146     15382  TIP3      H2             12.4294633595      -37.4171822861       18.3507703535  W2        15382           0.0000000000
     46147     15383  TIP3      OH2            13.9280533595      -36.4411522861       17.9169903535  W2        15383           0.0000000000
     46148     15383  TIP3      H1             14.6049433595      -37.0739222861       17.6769103535  W2        15383           0.0000000000
     46149     15383  TIP3      H2             14.2499333595      -36.0401022861       18.7243203535  W2        15383           0.0000000000
     46150     15384  TIP3      OH2            18.8454333595      -53.8516022861       16.9964903535  W2        15384           0.0000000000
     46151     15384  TIP3      H1             18.0327833595      -53.5265722861       16.6089603535  W2        15384           0.0000000000
     46152     15384  TIP3      H2             19.0782833595      -54.6117522861       16.4634003535  W2        15384           0.0000000000
     46153     15385  TIP3      OH2             4.6735433595      -35.8696522861       15.7610103535  W2        15385           0.0000000000
     46154     15385  TIP3      H1              3.9531833595      -35.4295522861       15.3097803535  W2        15385           0.0000000000
     46155     15385  TIP3      H2              4.3079433595      -36.1201822861       16.6094103535  W2        15385           0.0000000000
     46156     15386  TIP3      OH2             7.1408033595      -36.2692622861       14.7907303535  W2        15386           0.0000000000
     46157     15386  TIP3      H1              6.2760233595      -36.1974122861       15.1947403535  W2        15386           0.0000000000
     46158     15386  TIP3      H2              7.0857033595      -35.7225322861       14.0069803535  W2        15386           0.0000000000
     46159     15387  TIP3      OH2            11.8513633595      -36.3813722861       13.9663303535  W2        15387           0.0000000000
     46160     15387  TIP3      H1             11.3947633595      -35.8524022861       13.3121703535  W2        15387           0.0000000000
     46161     15387  TIP3      H2             12.0141633595      -35.7782322861       14.6915603535  W2        15387           0.0000000000
     46162     15388  TIP3      OH2            14.1789933595      -37.5034122861       14.9113603535  W2        15388           0.0000000000
     46163     15388  TIP3      H1             13.2743633595      -37.3383922861       14.6455703535  W2        15388           0.0000000000
     46164     15388  TIP3      H2             14.6078533595      -36.6501922861       14.8457003535  W2        15388           0.0000000000
     46165     15389  TIP3      OH2            16.7831833595      -35.9335022861       15.2061403535  W2        15389           0.0000000000
     46166     15389  TIP3      H1             16.6013833595      -35.0176122861       14.9956303535  W2        15389           0.0000000000
     46167     15389  TIP3      H2             16.9599633595      -36.3437922861       14.3596003535  W2        15389           0.0000000000
     46168     15390  TIP3      OH2             4.0883533595      -37.2464022861       12.6711903535  W2        15390           0.0000000000
     46169     15390  TIP3      H1              4.0699533595      -37.6718922861       13.5284203535  W2        15390           0.0000000000
     46170     15390  TIP3      H2              4.8931433595      -37.5649022861       12.2624103535  W2        15390           0.0000000000
     46171     15391  TIP3      OH2             6.2296633595      -38.5365322861       11.3261803535  W2        15391           0.0000000000
     46172     15391  TIP3      H1              6.0107333595      -39.4527922861       11.4957803535  W2        15391           0.0000000000
     46173     15391  TIP3      H2              7.0538833595      -38.3964922861       11.7923203535  W2        15391           0.0000000000
     46174     15392  TIP3      OH2             8.7669133595      -38.0666022861       12.1749803535  W2        15392           0.0000000000
     46175     15392  TIP3      H1              8.9794833595      -38.9547022861       11.8880703535  W2        15392           0.0000000000
     46176     15392  TIP3      H2              8.8314233595      -38.1008322861       13.1293803535  W2        15392           0.0000000000
     46177     15393  TIP3      OH2            12.2752833595      -52.4025422861       11.3193103535  W2        15393           0.0000000000
     46178     15393  TIP3      H1             11.6009633595      -53.0319822861       11.5748903535  W2        15393           0.0000000000
     46179     15393  TIP3      H2             12.8392033595      -52.8866522861       10.7161003535  W2        15393           0.0000000000
     46180     15394  TIP3      OH2            17.4180033595      -54.2951422861       11.4320203535  W2        15394           0.0000000000
     46181     15394  TIP3      H1             18.0217633595      -53.7476022861       10.9301203535  W2        15394           0.0000000000
     46182     15394  TIP3      H2             16.5482033595      -53.9761022861       11.1914303535  W2        15394           0.0000000000
     46183     15395  TIP3      OH2            19.1450433595      -53.1562722861        9.7651103535  W2        15395           0.0000000000
     46184     15395  TIP3      H1             19.7567933595      -53.6707022861        9.2384703535  W2        15395           0.0000000000
     46185     15395  TIP3      H2             19.5273833595      -52.2790622861        9.7885503535  W2        15395           0.0000000000
     46186     15396  TIP3      OH2             4.6020333595      -53.7685122861        9.1413003535  W2        15396           0.0000000000
     46187     15396  TIP3      H1              3.8250133595      -54.0030222861        8.6338903535  W2        15396           0.0000000000
     46188     15396  TIP3      H2              5.1323933595      -54.5653022861        9.1501003535  W2        15396           0.0000000000
     46189     15397  TIP3      OH2             3.4383733595      -53.9707022861        4.9449103535  W2        15397           0.0000000000
     46190     15397  TIP3      H1              3.8774433595      -53.3596522861        4.3532603535  W2        15397           0.0000000000
     46191     15397  TIP3      H2              2.8046133595      -53.4322922861        5.4189103535  W2        15397           0.0000000000
     46192     15398  TIP3      OH2             9.1812933595      -53.8418022861        8.9546103535  W2        15398           0.0000000000
     46193     15398  TIP3      H1             10.0556333595      -53.4533722861        8.9250403535  W2        15398           0.0000000000
     46194     15398  TIP3      H2              9.0453733595      -54.0570222861        9.8773303535  W2        15398           0.0000000000
     46195     15399  TIP3      OH2            14.7381333595      -53.8118222861       10.6037803535  W2        15399           0.0000000000
     46196     15399  TIP3      H1             14.8142933595      -53.7166622861        9.6543803535  W2        15399           0.0000000000
     46197     15399  TIP3      H2             14.4630533595      -54.7195322861       10.7326903535  W2        15399           0.0000000000
     46198     15400  TIP3      OH2            16.0913933595      -53.7860422861        6.2962803535  W2        15400           0.0000000000
     46199     15400  TIP3      H1             15.3885033595      -53.1711222861        6.0864203535  W2        15400           0.0000000000
     46200     15400  TIP3      H2             15.6465333595      -54.6233722861        6.4273703535  W2        15400           0.0000000000
     46201     15401  TIP3      OH2             3.3393233595      -38.0224822861        5.8424203535  W2        15401           0.0000000000
     46202     15401  TIP3      H1              2.6543133595      -38.0605922861        5.1749303535  W2        15401           0.0000000000
     46203     15401  TIP3      H2              3.3430433595      -37.1097222861        6.1306303535  W2        15401           0.0000000000
     46204     15402  TIP3      OH2             5.2992833595      -52.0545522861        3.3873203535  W2        15402           0.0000000000
     46205     15402  TIP3      H1              5.7906233595      -52.6843122861        2.8598703535  W2        15402           0.0000000000
     46206     15402  TIP3      H2              5.9229133595      -51.7586122861        4.0504403535  W2        15402           0.0000000000
     46207     15403  TIP3      OH2            10.3252933595      -51.7614022861        5.8443703535  W2        15403           0.0000000000
     46208     15403  TIP3      H1             10.5034233595      -52.4080822861        6.5272303535  W2        15403           0.0000000000
     46209     15403  TIP3      H2             10.2719133595      -50.9276322861        6.3114803535  W2        15403           0.0000000000
     46210     15404  TIP3      OH2            12.2036733595      -36.8129922861        4.2400403535  W2        15404           0.0000000000
     46211     15404  TIP3      H1             13.0696933595      -36.4462522861        4.0618603535  W2        15404           0.0000000000
     46212     15404  TIP3      H2             11.9569533595      -37.2521922861        3.4261203535  W2        15404           0.0000000000
     46213     15405  TIP3      OH2            18.9126333595      -37.2499622861        6.9191503535  W2        15405           0.0000000000
     46214     15405  TIP3      H1             18.7183433595      -37.9977522861        6.3541103535  W2        15405           0.0000000000
     46215     15405  TIP3      H2             18.8736433595      -36.4919522861        6.3359403535  W2        15405           0.0000000000
     46216     15406  TIP3      OH2             4.5598333595      -53.2543222861       18.6589203535  W2        15406           0.0000000000
     46217     15406  TIP3      H1              4.1936533595      -54.0200622861       19.1013903535  W2        15406           0.0000000000
     46218     15406  TIP3      H2              5.4726833595      -53.2253022861       18.9454303535  W2        15406           0.0000000000
     46219     15407  TIP3      OH2             6.5329133595      -53.9038822861       20.1946303535  W2        15407           0.0000000000
     46220     15407  TIP3      H1              7.4312733595      -54.1778622861       20.0099703535  W2        15407           0.0000000000
     46221     15407  TIP3      H2              6.1462233595      -54.6462822861       20.6588903535  W2        15407           0.0000000000
     46222     15408  TIP3      OH2             5.1574433595      -37.1024022861        2.8676303535  W2        15408           0.0000000000
     46223     15408  TIP3      H1              4.8899033595      -36.8161122861        3.7409403535  W2        15408           0.0000000000
     46224     15408  TIP3      H2              5.9287033595      -37.6484822861        3.0198803535  W2        15408           0.0000000000
     46225     15409  TIP3      OH2            14.9541433595      -54.5713522861       20.3769103535  W2        15409           0.0000000000
     46226     15409  TIP3      H1             15.0308633595      -54.9972822861       21.2306803535  W2        15409           0.0000000000
     46227     15409  TIP3      H2             15.8478033595      -54.5578822861       20.0342603535  W2        15409           0.0000000000
     46228     15410  TIP3      OH2            18.1302533595      -38.4987222861       19.0693303535  W2        15410           0.0000000000
     46229     15410  TIP3      H1             17.3484433595      -38.6849222861       18.5493903535  W2        15410           0.0000000000
     46230     15410  TIP3      H2             18.0582433595      -37.5692922861       19.2865803535  W2        15410           0.0000000000
     46231     15411  TIP3      OH2            32.5362933595      -44.6122822861        9.1000503535  W2        15411           0.0000000000
     46232     15411  TIP3      H1             32.6254033595      -43.6684622861        8.9677603535  W2        15411           0.0000000000
     46233     15411  TIP3      H2             31.8980533595      -44.8876422861        8.4419903535  W2        15411           0.0000000000
     46234     15412  TIP3      OH2            31.4694233595      -45.3572122861       12.5188703535  W2        15412           0.0000000000
     46235     15412  TIP3      H1             31.4311733595      -46.0035822861       13.2238303535  W2        15412           0.0000000000
     46236     15412  TIP3      H2             31.1470733595      -45.8237722861       11.7477403535  W2        15412           0.0000000000
     46237     15413  TIP3      OH2            23.8379233595      -45.7430022861       14.1118603535  W2        15413           0.0000000000
     46238     15413  TIP3      H1             23.8791333595      -46.3686722861       14.8351003535  W2        15413           0.0000000000
     46239     15413  TIP3      H2             24.5406933595      -45.1191422861       14.2939003535  W2        15413           0.0000000000
     46240     15414  TIP3      OH2            35.1754433595      -42.4181722861       10.8203803535  W2        15414           0.0000000000
     46241     15414  TIP3      H1             34.7347133595      -43.1385722861       11.2709403535  W2        15414           0.0000000000
     46242     15414  TIP3      H2             35.1624133595      -41.6974522861       11.4501503535  W2        15414           0.0000000000
     46243     15415  TIP3      OH2            24.7612333595      -41.2931122861       12.6467703535  W2        15415           0.0000000000
     46244     15415  TIP3      H1             24.3917533595      -42.0950622861       12.2772003535  W2        15415           0.0000000000
     46245     15415  TIP3      H2             25.7023433595      -41.4616222861       12.6931103535  W2        15415           0.0000000000
     46246     15416  TIP3      OH2            21.3712833595      -47.6328522861        8.0396503535  W2        15416           0.0000000000
     46247     15416  TIP3      H1             20.9236233595      -46.7869822861        8.0213003535  W2        15416           0.0000000000
     46248     15416  TIP3      H2             20.8104033595      -48.2124322861        7.5241603535  W2        15416           0.0000000000
     46249     15417  TIP3      OH2            22.0818933595      -45.4708922861       10.1654503535  W2        15417           0.0000000000
     46250     15417  TIP3      H1             22.2952433595      -46.2407322861       10.6927503535  W2        15417           0.0000000000
     46251     15417  TIP3      H2             22.8196533595      -45.3812222861        9.5622103535  W2        15417           0.0000000000
     46252     15418  TIP3      OH2            32.2869933595      -37.3140022861       11.0324203535  W2        15418           0.0000000000
     46253     15418  TIP3      H1             32.9066333595      -37.9905322861       10.7593403535  W2        15418           0.0000000000
     46254     15418  TIP3      H2             32.0787333595      -37.5319222861       11.9409103535  W2        15418           0.0000000000
     46255     15419  TIP3      OH2            29.8588633595      -42.9250722861       12.9249703535  W2        15419           0.0000000000
     46256     15419  TIP3      H1             30.1626533595      -43.6109322861       12.3303803535  W2        15419           0.0000000000
     46257     15419  TIP3      H2             30.5802633595      -42.8062022861       13.5427703535  W2        15419           0.0000000000
     46258     15420  TIP3      OH2            38.5218433595      -51.3235422861       13.7855903535  W2        15420           0.0000000000
     46259     15420  TIP3      H1             38.5710633595      -50.7134222861       14.5215003535  W2        15420           0.0000000000
     46260     15420  TIP3      H2             38.9473533595      -50.8624522861       13.0627003535  W2        15420           0.0000000000
     46261     15421  TIP3      OH2            32.9995633595      -48.5308322861       13.2524503535  W2        15421           0.0000000000
     46262     15421  TIP3      H1             33.1421533595      -49.4771322861       13.2726103535  W2        15421           0.0000000000
     46263     15421  TIP3      H2             32.8934633595      -48.3238522861       12.3239403535  W2        15421           0.0000000000
     46264     15422  TIP3      OH2            26.1543933595      -50.4291922861       10.5249303535  W2        15422           0.0000000000
     46265     15422  TIP3      H1             26.1975033595      -49.5693422861       10.1065603535  W2        15422           0.0000000000
     46266     15422  TIP3      H2             25.6968033595      -50.9817222861        9.8912503535  W2        15422           0.0000000000
     46267     15423  TIP3      OH2            33.8766633595      -50.2986322861        8.9257603535  W2        15423           0.0000000000
     46268     15423  TIP3      H1             34.5230933595      -50.6273122861        9.5505203535  W2        15423           0.0000000000
     46269     15423  TIP3      H2             34.3866033595      -49.7807322861        8.3029003535  W2        15423           0.0000000000
     46270     15424  TIP3      OH2            22.7745433595      -48.0326122861       11.2870703535  W2        15424           0.0000000000
     46271     15424  TIP3      H1             23.4282033595      -48.5824422861       11.7190803535  W2        15424           0.0000000000
     46272     15424  TIP3      H2             22.7984733595      -48.3067122861       10.3702703535  W2        15424           0.0000000000
     46273     15425  TIP3      OH2            27.9309933595      -46.4824822861       10.5022203535  W2        15425           0.0000000000
     46274     15425  TIP3      H1             28.5470933595      -47.0089422861       11.0116203535  W2        15425           0.0000000000
     46275     15425  TIP3      H2             27.3448733595      -47.1226122861       10.0985803535  W2        15425           0.0000000000
     46276     15426  TIP3      OH2            38.9133033595      -49.8456222861       16.0215703535  W2        15426           0.0000000000
     46277     15426  TIP3      H1             38.2247633595      -49.1875522861       15.9262303535  W2        15426           0.0000000000
     46278     15426  TIP3      H2             38.9287633595      -50.0428322861       16.9581103535  W2        15426           0.0000000000
     46279     15427  TIP3      OH2            24.9645833595      -51.5113522861       14.5990103535  W2        15427           0.0000000000
     46280     15427  TIP3      H1             24.7457533595      -50.9812922861       13.8326103535  W2        15427           0.0000000000
     46281     15427  TIP3      H2             24.2966733595      -51.2848022861       15.2461503535  W2        15427           0.0000000000
     46282     15428  TIP3      OH2            32.3335633595      -42.0112422861        8.1429203535  W2        15428           0.0000000000
     46283     15428  TIP3      H1             32.0380733595      -42.3340122861        7.2916103535  W2        15428           0.0000000000
     46284     15428  TIP3      H2             32.0093433595      -41.1115722861        8.1841803535  W2        15428           0.0000000000
     46285     15429  TIP3      OH2            27.5337233595      -43.8357822861       14.8863803535  W2        15429           0.0000000000
     46286     15429  TIP3      H1             26.7936333595      -43.2376322861       14.9899003535  W2        15429           0.0000000000
     46287     15429  TIP3      H2             28.2476733595      -43.2818222861       14.5707403535  W2        15429           0.0000000000
     46288     15430  TIP3      OH2            35.6405033595      -51.0077022861       10.9063503535  W2        15430           0.0000000000
     46289     15430  TIP3      H1             35.4253033595      -51.7733622861       11.4389503535  W2        15430           0.0000000000
     46290     15430  TIP3      H2             36.2962433595      -50.5352422861       11.4192003535  W2        15430           0.0000000000
     46291     15431  TIP3      OH2            24.5583133595      -49.6191722861       12.5512303535  W2        15431           0.0000000000
     46292     15431  TIP3      H1             25.1719433595      -48.9864122861       12.9244703535  W2        15431           0.0000000000
     46293     15431  TIP3      H2             25.0703833595      -50.0916722861       11.8949203535  W2        15431           0.0000000000
     46294     15432  TIP3      OH2            25.9411533595      -41.8714822861       15.6735303535  W2        15432           0.0000000000
     46295     15432  TIP3      H1             25.9359133595      -40.9921322861       15.2954603535  W2        15432           0.0000000000
     46296     15432  TIP3      H2             25.0875633595      -41.9550722861       16.0985203535  W2        15432           0.0000000000
     46297     15433  TIP3      OH2            22.0622433595      -42.2006922861        6.4554603535  W2        15433           0.0000000000
     46298     15433  TIP3      H1             21.7903333595      -41.9715922861        5.5667503535  W2        15433           0.0000000000
     46299     15433  TIP3      H2             22.1078133595      -41.3628122861        6.9159903535  W2        15433           0.0000000000
     46300     15434  TIP3      OH2            35.6872133595      -40.5791022861       13.1683103535  W2        15434           0.0000000000
     46301     15434  TIP3      H1             34.7455833595      -40.5207122861       13.3300003535  W2        15434           0.0000000000
     46302     15434  TIP3      H2             35.9638233595      -39.6730522861       13.0312803535  W2        15434           0.0000000000
     46303     15435  TIP3      OH2            35.9879133595      -52.2925722861       14.5857003535  W2        15435           0.0000000000
     46304     15435  TIP3      H1             35.2518333595      -51.6818622861       14.5478303535  W2        15435           0.0000000000
     46305     15435  TIP3      H2             36.6713133595      -51.8776722861       14.0593403535  W2        15435           0.0000000000
     46306     15436  TIP3      OH2            28.9910533595      -54.2058422861       12.0515003535  W2        15436           0.0000000000
     46307     15436  TIP3      H1             28.8734733595      -55.1542422861       11.9973303535  W2        15436           0.0000000000
     46308     15436  TIP3      H2             28.1360633595      -53.8732322861       12.3246103535  W2        15436           0.0000000000
     46309     15437  TIP3      OH2            33.9393333595      -38.7977522861        9.7934703535  W2        15437           0.0000000000
     46310     15437  TIP3      H1             34.3645633595      -39.5049622861        9.3084303535  W2        15437           0.0000000000
     46311     15437  TIP3      H2             34.2563333595      -37.9964822861        9.3766903535  W2        15437           0.0000000000
     46312     15438  TIP3      OH2            35.0989833595      -40.8969022861        8.3021303535  W2        15438           0.0000000000
     46313     15438  TIP3      H1             34.8414633595      -41.5868922861        7.6907203535  W2        15438           0.0000000000
     46314     15438  TIP3      H2             35.1700633595      -41.3397822861        9.1477203535  W2        15438           0.0000000000
     46315     15439  TIP3      OH2            36.7850033595      -42.3302322861       16.7794803535  W2        15439           0.0000000000
     46316     15439  TIP3      H1             36.9246333595      -42.9219822861       16.0401803535  W2        15439           0.0000000000
     46317     15439  TIP3      H2             36.9522833595      -41.4576422861       16.4233603535  W2        15439           0.0000000000
     46318     15440  TIP3      OH2            31.2575433595      -45.3682822861        6.5520803535  W2        15440           0.0000000000
     46319     15440  TIP3      H1             30.5460933595      -44.8333122861        6.2001303535  W2        15440           0.0000000000
     46320     15440  TIP3      H2             31.9485033595      -45.3130722861        5.8919703535  W2        15440           0.0000000000
     46321     15441  TIP3      OH2            31.3114633595      -46.9108522861        3.5905803535  W2        15441           0.0000000000
     46322     15441  TIP3      H1             32.0124533595      -46.8881622861        4.2419803535  W2        15441           0.0000000000
     46323     15441  TIP3      H2             31.6137533595      -47.5388822861        2.9345103535  W2        15441           0.0000000000
     46324     15442  TIP3      OH2            38.6269333595      -45.9904322861       14.8455203535  W2        15442           0.0000000000
     46325     15442  TIP3      H1             37.9743433595      -45.2958722861       14.9346103535  W2        15442           0.0000000000
     46326     15442  TIP3      H2             39.0919633595      -45.7803422861       14.0356803535  W2        15442           0.0000000000
     46327     15443  TIP3      OH2            34.6633133595      -45.1589522861        7.5036703535  W2        15443           0.0000000000
     46328     15443  TIP3      H1             33.9314133595      -44.9305822861        8.0767303535  W2        15443           0.0000000000
     46329     15443  TIP3      H2             35.1105333595      -45.8726822861        7.9584203535  W2        15443           0.0000000000
     46330     15444  TIP3      OH2            34.5606633595      -46.9846922861       16.5713703535  W2        15444           0.0000000000
     46331     15444  TIP3      H1             34.6405733595      -46.2212522861       17.1432203535  W2        15444           0.0000000000
     46332     15444  TIP3      H2             33.9594333595      -46.7054522861       15.8808803535  W2        15444           0.0000000000
     46333     15445  TIP3      OH2            26.3086833595      -44.5283322861        9.3861703535  W2        15445           0.0000000000
     46334     15445  TIP3      H1             25.9782033595      -44.8989922861        8.5678703535  W2        15445           0.0000000000
     46335     15445  TIP3      H2             26.8970933595      -45.1989322861        9.7330003535  W2        15445           0.0000000000
     46336     15446  TIP3      OH2            27.6754333595      -41.1002722861       12.0673903535  W2        15446           0.0000000000
     46337     15446  TIP3      H1             27.5805633595      -41.6789622861       11.3108503535  W2        15446           0.0000000000
     46338     15446  TIP3      H2             28.4047933595      -41.4717022861       12.5636703535  W2        15446           0.0000000000
     46339     15447  TIP3      OH2            26.6752333595      -45.7597722861       13.0196703535  W2        15447           0.0000000000
     46340     15447  TIP3      H1             27.2404833595      -45.6383522861       12.2567903535  W2        15447           0.0000000000
     46341     15447  TIP3      H2             26.9941233595      -45.1222722861       13.6585203535  W2        15447           0.0000000000
     46342     15448  TIP3      OH2            32.9844533595      -40.2565822861       13.7537203535  W2        15448           0.0000000000
     46343     15448  TIP3      H1             32.7441133595      -39.5942722861       14.4016403535  W2        15448           0.0000000000
     46344     15448  TIP3      H2             32.7862733595      -41.0910622861       14.1786803535  W2        15448           0.0000000000
     46345     15449  TIP3      OH2            27.5553033595      -41.3605022861       17.7368603535  W2        15449           0.0000000000
     46346     15449  TIP3      H1             27.2440533595      -40.5781822861       18.1921803535  W2        15449           0.0000000000
     46347     15449  TIP3      H2             26.9053233595      -41.5135922861       17.0510603535  W2        15449           0.0000000000
     46348     15450  TIP3      OH2            33.5342633595      -45.9966622861        5.1887903535  W2        15450           0.0000000000
     46349     15450  TIP3      H1             34.1138133595      -45.8466322861        5.9356803535  W2        15450           0.0000000000
     46350     15450  TIP3      H2             33.9482633595      -45.5259222861        4.4654303535  W2        15450           0.0000000000
     46351     15451  TIP3      OH2            24.4752933595      -45.1623922861       16.9654303535  W2        15451           0.0000000000
     46352     15451  TIP3      H1             24.5456133595      -44.5117122861       17.6639303535  W2        15451           0.0000000000
     46353     15451  TIP3      H2             23.5845133595      -45.0596422861       16.6305203535  W2        15451           0.0000000000
     46354     15452  TIP3      OH2            31.2607533595      -39.2598122861        8.6241003535  W2        15452           0.0000000000
     46355     15452  TIP3      H1             31.7345133595      -38.9641822861        9.4015203535  W2        15452           0.0000000000
     46356     15452  TIP3      H2             30.6976833595      -38.5216522861        8.3910603535  W2        15452           0.0000000000
     46357     15453  TIP3      OH2            25.7948933595      -39.2890022861       18.5002403535  W2        15453           0.0000000000
     46358     15453  TIP3      H1             25.8024233595      -39.4250322861       17.5527903535  W2        15453           0.0000000000
     46359     15453  TIP3      H2             24.8789333595      -39.4061922861       18.7522403535  W2        15453           0.0000000000
     46360     15454  TIP3      OH2            37.2331033595      -54.2466222861        5.0017603535  W2        15454           0.0000000000
     46361     15454  TIP3      H1             36.3331733595      -54.1077222861        5.2968203535  W2        15454           0.0000000000
     46362     15454  TIP3      H2             37.4849433595      -53.4151622861        4.5999303535  W2        15454           0.0000000000
     46363     15455  TIP3      OH2            25.2989533595      -45.4589022861        6.9754503535  W2        15455           0.0000000000
     46364     15455  TIP3      H1             25.0070833595      -44.6907322861        6.4845803535  W2        15455           0.0000000000
     46365     15455  TIP3      H2             24.6244733595      -46.1182822861        6.8125903535  W2        15455           0.0000000000
     46366     15456  TIP3      OH2            38.4222433595      -39.8803822861        3.3781503535  W2        15456           0.0000000000
     46367     15456  TIP3      H1             38.4955933595      -38.9413622861        3.5486803535  W2        15456           0.0000000000
     46368     15456  TIP3      H2             39.3277533595      -40.1855222861        3.3218803535  W2        15456           0.0000000000
     46369     15457  TIP3      OH2            21.3919633595      -43.0959822861       15.7904303535  W2        15457           0.0000000000
     46370     15457  TIP3      H1             20.8908033595      -43.1240422861       14.9754003535  W2        15457           0.0000000000
     46371     15457  TIP3      H2             21.3973333595      -44.0016622861       16.1001603535  W2        15457           0.0000000000
     46372     15458  TIP3      OH2            21.1422333595      -40.3156022861       12.6744503535  W2        15458           0.0000000000
     46373     15458  TIP3      H1             22.0882933595      -40.4599022861       12.6554003535  W2        15458           0.0000000000
     46374     15458  TIP3      H2             21.0298633595      -39.5313222861       13.2115703535  W2        15458           0.0000000000
     46375     15459  TIP3      OH2            39.3400833595      -39.6496322861       18.3568203535  W2        15459           0.0000000000
     46376     15459  TIP3      H1             39.2907633595      -40.6048222861       18.3195803535  W2        15459           0.0000000000
     46377     15459  TIP3      H2             38.5133133595      -39.3821022861       18.7582003535  W2        15459           0.0000000000
     46378     15460  TIP3      OH2            30.3184833595      -40.0757122861       17.2329603535  W2        15460           0.0000000000
     46379     15460  TIP3      H1             30.4059433595      -39.2492522861       17.7078703535  W2        15460           0.0000000000
     46380     15460  TIP3      H2             29.4549933595      -40.4053322861       17.4818903535  W2        15460           0.0000000000
     46381     15461  TIP3      OH2            30.7330633595      -36.3033422861        7.0390203535  W2        15461           0.0000000000
     46382     15461  TIP3      H1             30.6576633595      -36.4246222861        6.0925403535  W2        15461           0.0000000000
     46383     15461  TIP3      H2             30.7659333595      -35.3540722861        7.1574803535  W2        15461           0.0000000000
     46384     15462  TIP3      OH2            24.3864433595      -37.5146422861        8.8199203535  W2        15462           0.0000000000
     46385     15462  TIP3      H1             24.5384833595      -37.8626022861        9.6985703535  W2        15462           0.0000000000
     46386     15462  TIP3      H2             23.5354833595      -37.8709122861        8.5646403535  W2        15462           0.0000000000
     46387     15463  TIP3      OH2            33.8346633595      -37.1493222861        4.0412603535  W2        15463           0.0000000000
     46388     15463  TIP3      H1             34.2095033595      -37.8937122861        3.5705203535  W2        15463           0.0000000000
     46389     15463  TIP3      H2             33.8390333595      -37.4192622861        4.9595903535  W2        15463           0.0000000000
     46390     15464  TIP3      OH2            33.5034733595      -37.2236122861        6.7904803535  W2        15464           0.0000000000
     46391     15464  TIP3      H1             32.5684533595      -37.1234222861        6.9691803535  W2        15464           0.0000000000
     46392     15464  TIP3      H2             33.7836633595      -37.9330122861        7.3688003535  W2        15464           0.0000000000
     46393     15465  TIP3      OH2            36.4920633595      -48.1563822861       18.8370403535  W2        15465           0.0000000000
     46394     15465  TIP3      H1             36.0847433595      -47.6758222861       18.1163703535  W2        15465           0.0000000000
     46395     15465  TIP3      H2             36.5326333595      -49.0617822861       18.5291203535  W2        15465           0.0000000000
     46396     15466  TIP3      OH2            23.6410133595      -41.7724422861       16.8337103535  W2        15466           0.0000000000
     46397     15466  TIP3      H1             23.8571433595      -42.1338822861       17.6932903535  W2        15466           0.0000000000
     46398     15466  TIP3      H2             22.7854833595      -42.1470622861       16.6240603535  W2        15466           0.0000000000
     46399     15467  TIP3      OH2            26.2598133595      -53.3023922861       12.8291303535  W2        15467           0.0000000000
     46400     15467  TIP3      H1             25.3981833595      -53.3895722861       12.4214203535  W2        15467           0.0000000000
     46401     15467  TIP3      H2             26.2373833595      -52.4463822861       13.2568903535  W2        15467           0.0000000000
     46402     15468  TIP3      OH2            30.9225933595      -53.5803522861       16.2038303535  W2        15468           0.0000000000
     46403     15468  TIP3      H1             31.3429033595      -53.9956422861       16.9568903535  W2        15468           0.0000000000
     46404     15468  TIP3      H2             29.9895533595      -53.7590222861       16.3210303535  W2        15468           0.0000000000
     46405     15469  TIP3      OH2            34.2490833595      -49.8248322861       17.0572803535  W2        15469           0.0000000000
     46406     15469  TIP3      H1             33.7350333595      -49.9506122861       17.8548803535  W2        15469           0.0000000000
     46407     15469  TIP3      H2             34.0935533595      -48.9125222861       16.8129003535  W2        15469           0.0000000000
     46408     15470  TIP3      OH2            35.0115733595      -44.9638322861        2.8185803535  W2        15470           0.0000000000
     46409     15470  TIP3      H1             35.0536533595      -45.1864422861        1.8885803535  W2        15470           0.0000000000
     46410     15470  TIP3      H2             35.8607833595      -44.5651222861        3.0085703535  W2        15470           0.0000000000
     46411     15471  TIP3      OH2            30.5843233595      -51.0880122861        3.4889103535  W2        15471           0.0000000000
     46412     15471  TIP3      H1             30.3308033595      -51.0688522861        4.4117203535  W2        15471           0.0000000000
     46413     15471  TIP3      H2             30.3275333595      -51.9594722861        3.1875303535  W2        15471           0.0000000000
     46414     15472  TIP3      OH2            26.3508233595      -48.3369422861       13.9241503535  W2        15472           0.0000000000
     46415     15472  TIP3      H1             25.7090333595      -48.3772122861       14.6331603535  W2        15472           0.0000000000
     46416     15472  TIP3      H2             26.3880233595      -47.4104722861       13.6864503535  W2        15472           0.0000000000
     46417     15473  TIP3      OH2            26.3477333595      -48.1159322861        8.8361503535  W2        15473           0.0000000000
     46418     15473  TIP3      H1             25.4550233595      -48.4563222861        8.7775303535  W2        15473           0.0000000000
     46419     15473  TIP3      H2             26.7983933595      -48.4928422861        8.0804703535  W2        15473           0.0000000000
     46420     15474  TIP3      OH2            31.8832833595      -47.6999022861        7.6532303535  W2        15474           0.0000000000
     46421     15474  TIP3      H1             31.4743133595      -46.8850422861        7.3617103535  W2        15474           0.0000000000
     46422     15474  TIP3      H2             32.6039033595      -47.8398922861        7.0389403535  W2        15474           0.0000000000
     46423     15475  TIP3      OH2            30.9854433595      -47.5242622861       19.1413003535  W2        15475           0.0000000000
     46424     15475  TIP3      H1             30.4228233595      -48.2291022861       19.4620803535  W2        15475           0.0000000000
     46425     15475  TIP3      H2             31.8117833595      -47.6450722861       19.6090603535  W2        15475           0.0000000000
     46426     15476  TIP3      OH2            32.8880533595      -48.2538622861       10.4672003535  W2        15476           0.0000000000
     46427     15476  TIP3      H1             32.6925033595      -47.6481822861        9.7522603535  W2        15476           0.0000000000
     46428     15476  TIP3      H2             33.0693133595      -49.0873422861       10.0328303535  W2        15476           0.0000000000
     46429     15477  TIP3      OH2            24.1008733595      -48.0165922861       15.7913503535  W2        15477           0.0000000000
     46430     15477  TIP3      H1             24.0628133595      -47.6164322861       16.6600603535  W2        15477           0.0000000000
     46431     15477  TIP3      H2             23.6099833595      -48.8333522861       15.8816403535  W2        15477           0.0000000000
     46432     15478  TIP3      OH2            27.4666133595      -50.6423622861        2.5899503535  W2        15478           0.0000000000
     46433     15478  TIP3      H1             27.0356833595      -51.0873522861        3.3196903535  W2        15478           0.0000000000
     46434     15478  TIP3      H2             26.7484833595      -50.2707322861        2.0777003535  W2        15478           0.0000000000
     46435     15479  TIP3      OH2            20.7089533595      -50.9004122861        9.6418203535  W2        15479           0.0000000000
     46436     15479  TIP3      H1             21.3397233595      -50.9292022861       10.3612103535  W2        15479           0.0000000000
     46437     15479  TIP3      H2             21.1583833595      -51.3255422861        8.9114103535  W2        15479           0.0000000000
     46438     15480  TIP3      OH2            21.9831633595      -50.1542122861        5.0658603535  W2        15480           0.0000000000
     46439     15480  TIP3      H1             22.4573333595      -49.5632222861        4.4809503535  W2        15480           0.0000000000
     46440     15480  TIP3      H2             21.2658033595      -49.6239222861        5.4128703535  W2        15480           0.0000000000
     46441     15481  TIP3      OH2            32.1519733595      -46.6157322861       15.1384403535  W2        15481           0.0000000000
     46442     15481  TIP3      H1             32.4754533595      -47.2467622861       14.4954903535  W2        15481           0.0000000000
     46443     15481  TIP3      H2             31.7119033595      -47.1505122861       15.7991803535  W2        15481           0.0000000000
     46444     15482  TIP3      OH2            28.9292633595      -50.6881822861        9.9225603535  W2        15482           0.0000000000
     46445     15482  TIP3      H1             28.0183733595      -50.6315022861       10.2111603535  W2        15482           0.0000000000
     46446     15482  TIP3      H2             29.4345533595      -50.7486322861       10.7332803535  W2        15482           0.0000000000
     46447     15483  TIP3      OH2            23.7576033595      -49.0595522861        8.7493203535  W2        15483           0.0000000000
     46448     15483  TIP3      H1             22.8684033595      -48.9600022861        8.4092803535  W2        15483           0.0000000000
     46449     15483  TIP3      H2             24.0540933595      -49.9012522861        8.4031103535  W2        15483           0.0000000000
     46450     15484  TIP3      OH2            27.4107833595      -49.0592922861        6.4057803535  W2        15484           0.0000000000
     46451     15484  TIP3      H1             28.3423333595      -48.9302922861        6.5840903535  W2        15484           0.0000000000
     46452     15484  TIP3      H2             27.1958133595      -48.3898622861        5.7562503535  W2        15484           0.0000000000
     46453     15485  TIP3      OH2            33.3344533595      -51.4535522861       13.1867403535  W2        15485           0.0000000000
     46454     15485  TIP3      H1             32.6576133595      -51.3222422861       13.8507103535  W2        15485           0.0000000000
     46455     15485  TIP3      H2             32.8489433595      -51.6086022861       12.3765103535  W2        15485           0.0000000000
     46456     15486  TIP3      OH2            26.0848033595      -47.8650722861        3.9723903535  W2        15486           0.0000000000
     46457     15486  TIP3      H1             25.5423133595      -48.2446922861        3.2811503535  W2        15486           0.0000000000
     46458     15486  TIP3      H2             26.9182933595      -47.6706022861        3.5438003535  W2        15486           0.0000000000
     46459     15487  TIP3      OH2            36.6219633595      -35.7820122861       19.4635003535  W2        15487           0.0000000000
     46460     15487  TIP3      H1             36.8218333595      -35.3578222861       18.6290303535  W2        15487           0.0000000000
     46461     15487  TIP3      H2             37.2773333595      -35.4381922861       20.0705403535  W2        15487           0.0000000000
     46462     15488  TIP3      OH2            24.2199433595      -43.3078822861       19.0715503535  W2        15488           0.0000000000
     46463     15488  TIP3      H1             24.9521833595      -43.0532922861       19.6330003535  W2        15488           0.0000000000
     46464     15488  TIP3      H2             23.4398133595      -43.1033422861       19.5870903535  W2        15488           0.0000000000
     46465     15489  TIP3      OH2            30.2492333595      -47.9008822861       11.8095203535  W2        15489           0.0000000000
     46466     15489  TIP3      H1             30.8135733595      -48.4472222861       11.2624803535  W2        15489           0.0000000000
     46467     15489  TIP3      H2             30.1015733595      -48.4226922861       12.5982803535  W2        15489           0.0000000000
     46468     15490  TIP3      OH2            25.2512033595      -51.7642722861        8.2280003535  W2        15490           0.0000000000
     46469     15490  TIP3      H1             24.9341533595      -52.6667422861        8.1925403535  W2        15490           0.0000000000
     46470     15490  TIP3      H2             26.0326133595      -51.7625322861        7.6751603535  W2        15490           0.0000000000
     46471     15491  TIP3      OH2            28.8758233595      -49.5122722861       14.2235603535  W2        15491           0.0000000000
     46472     15491  TIP3      H1             28.0403533595      -49.0583222861       14.3338003535  W2        15491           0.0000000000
     46473     15491  TIP3      H2             29.3998833595      -49.2364222861       14.9755503535  W2        15491           0.0000000000
     46474     15492  TIP3      OH2            29.4200833595      -43.2995022861        5.9082003535  W2        15492           0.0000000000
     46475     15492  TIP3      H1             28.6751833595      -43.8069722861        5.5859903535  W2        15492           0.0000000000
     46476     15492  TIP3      H2             29.2858033595      -43.2507022861        6.8546803535  W2        15492           0.0000000000
     46477     15493  TIP3      OH2            36.5699733595      -44.1666822861       14.6949603535  W2        15493           0.0000000000
     46478     15493  TIP3      H1             37.2118533595      -43.7100522861       14.1511803535  W2        15493           0.0000000000
     46479     15493  TIP3      H2             35.7396633595      -44.0534422861       14.2323703535  W2        15493           0.0000000000
     46480     15494  TIP3      OH2            33.3177633595      -50.4855122861        4.1074603535  W2        15494           0.0000000000
     46481     15494  TIP3      H1             32.3791833595      -50.3739522861        3.9563403535  W2        15494           0.0000000000
     46482     15494  TIP3      H2             33.6149733595      -49.6288222861        4.4140303535  W2        15494           0.0000000000
     46483     15495  TIP3      OH2            30.9392933595      -43.1151722861       17.1451103535  W2        15495           0.0000000000
     46484     15495  TIP3      H1             30.5939033595      -43.4969322861       17.9520703535  W2        15495           0.0000000000
     46485     15495  TIP3      H2             30.7393033595      -42.1818122861       17.2164003535  W2        15495           0.0000000000
     46486     15496  TIP3      OH2            34.0361133595      -48.6182422861        5.7682003535  W2        15496           0.0000000000
     46487     15496  TIP3      H1             34.9280133595      -48.7557422861        6.0873203535  W2        15496           0.0000000000
     46488     15496  TIP3      H2             34.0924733595      -47.8276322861        5.2315503535  W2        15496           0.0000000000
     46489     15497  TIP3      OH2            24.5449133595      -44.0045022861       11.6779903535  W2        15497           0.0000000000
     46490     15497  TIP3      H1             25.2896333595      -44.0069322861       11.0766403535  W2        15497           0.0000000000
     46491     15497  TIP3      H2             24.6225733595      -44.8281222861       12.1595003535  W2        15497           0.0000000000
     46492     15498  TIP3      OH2            31.5454933595      -41.8410722861        4.9336603535  W2        15498           0.0000000000
     46493     15498  TIP3      H1             31.2503333595      -41.0142822861        5.3151403535  W2        15498           0.0000000000
     46494     15498  TIP3      H2             30.8424933595      -42.4603822861        5.1298003535  W2        15498           0.0000000000
     46495     15499  TIP3      OH2            21.5528833595      -45.5438122861       16.9928403535  W2        15499           0.0000000000
     46496     15499  TIP3      H1             21.7757433595      -45.9618522861       17.8245903535  W2        15499           0.0000000000
     46497     15499  TIP3      H2             20.9508933595      -46.1563122861       16.5701203535  W2        15499           0.0000000000
     46498     15500  TIP3      OH2            28.5693733595      -46.0268222861       19.2058103535  W2        15500           0.0000000000
     46499     15500  TIP3      H1             28.2734533595      -46.1925222861       18.3107203535  W2        15500           0.0000000000
     46500     15500  TIP3      H2             29.5008933595      -46.2467922861       19.1952003535  W2        15500           0.0000000000
     46501     15501  TIP3      OH2            33.1896533595      -40.6536222861       17.0956103535  W2        15501           0.0000000000
     46502     15501  TIP3      H1             32.2890833595      -40.4703622861       16.8280003535  W2        15501           0.0000000000
     46503     15501  TIP3      H2             33.2237633595      -40.3946922861       18.0164903535  W2        15501           0.0000000000
     46504     15502  TIP3      OH2            38.9209833595      -48.4088322861        5.4628703535  W2        15502           0.0000000000
     46505     15502  TIP3      H1             38.3666133595      -48.8050322861        4.7906203535  W2        15502           0.0000000000
     46506     15502  TIP3      H2             39.0213433595      -47.4983122861        5.1852003535  W2        15502           0.0000000000
     46507     15503  TIP3      OH2            38.8841833595      -42.6086622861       18.3000203535  W2        15503           0.0000000000
     46508     15503  TIP3      H1             38.0330333595      -42.3702822861       17.9326603535  W2        15503           0.0000000000
     46509     15503  TIP3      H2             39.4745233595      -42.6253422861       17.5467303535  W2        15503           0.0000000000
     46510     15504  TIP3      OH2            37.2161533595      -39.6227922861        5.9280803535  W2        15504           0.0000000000
     46511     15504  TIP3      H1             36.8432633595      -40.4484122861        6.2371403535  W2        15504           0.0000000000
     46512     15504  TIP3      H2             37.4935033595      -39.8058522861        5.0304203535  W2        15504           0.0000000000
     46513     15505  TIP3      OH2            34.3765433595      -44.8148422861       12.9492703535  W2        15505           0.0000000000
     46514     15505  TIP3      H1             33.4482333595      -45.0466522861       12.9222003535  W2        15505           0.0000000000
     46515     15505  TIP3      H2             34.8276533595      -45.5918622861       12.6191503535  W2        15505           0.0000000000
     46516     15506  TIP3      OH2            26.9198533595      -40.4866822861        9.0821403535  W2        15506           0.0000000000
     46517     15506  TIP3      H1             27.4470733595      -39.7132422861        8.8820203535  W2        15506           0.0000000000
     46518     15506  TIP3      H2             26.0397033595      -40.2617622861        8.7805403535  W2        15506           0.0000000000
     46519     15507  TIP3      OH2            22.6746233595      -45.6242722861        3.6693803535  W2        15507           0.0000000000
     46520     15507  TIP3      H1             23.2906133595      -44.9975522861        4.0488603535  W2        15507           0.0000000000
     46521     15507  TIP3      H2             21.8128833595      -45.3082922861        3.9410303535  W2        15507           0.0000000000
     46522     15508  TIP3      OH2            28.3470833595      -42.8236922861        8.6585703535  W2        15508           0.0000000000
     46523     15508  TIP3      H1             28.1060833595      -41.8982522861        8.7001003535  W2        15508           0.0000000000
     46524     15508  TIP3      H2             27.6064433595      -43.2825622861        9.0549603535  W2        15508           0.0000000000
     46525     15509  TIP3      OH2            28.8617433595      -38.6743322861       14.9736803535  W2        15509           0.0000000000
     46526     15509  TIP3      H1             29.2242133595      -37.8197722861       14.7401203535  W2        15509           0.0000000000
     46527     15509  TIP3      H2             29.3932633595      -38.9661722861       15.7143103535  W2        15509           0.0000000000
     46528     15510  TIP3      OH2            27.0301633595      -37.8019322861        8.2037903535  W2        15510           0.0000000000
     46529     15510  TIP3      H1             26.0802133595      -37.6961922861        8.2551203535  W2        15510           0.0000000000
     46530     15510  TIP3      H2             27.3819733595      -36.9811922861        8.5485403535  W2        15510           0.0000000000
     46531     15511  TIP3      OH2            32.4058233595      -42.5752622861       14.6742403535  W2        15511           0.0000000000
     46532     15511  TIP3      H1             31.9799533595      -42.8030922861       15.5006403535  W2        15511           0.0000000000
     46533     15511  TIP3      H2             32.9864033595      -43.3140822861       14.4917703535  W2        15511           0.0000000000
     46534     15512  TIP3      OH2            34.6087133595      -41.6462122861        3.7481403535  W2        15512           0.0000000000
     46535     15512  TIP3      H1             34.9620233595      -42.0262322861        4.5524903535  W2        15512           0.0000000000
     46536     15512  TIP3      H2             33.6600633595      -41.7397322861        3.8350703535  W2        15512           0.0000000000
     46537     15513  TIP3      OH2            35.0642433595      -38.0233122861       17.1437203535  W2        15513           0.0000000000
     46538     15513  TIP3      H1             34.4625633595      -38.5790222861       16.6483503535  W2        15513           0.0000000000
     46539     15513  TIP3      H2             35.3456133595      -37.3563322861       16.5174603535  W2        15513           0.0000000000
     46540     15514  TIP3      OH2            39.1121533595      -37.1669622861        3.9491603535  W2        15514           0.0000000000
     46541     15514  TIP3      H1             39.8559433595      -36.5809122861        3.8093203535  W2        15514           0.0000000000
     46542     15514  TIP3      H2             38.4179633595      -36.5983822861        4.2824003535  W2        15514           0.0000000000
     46543     15515  TIP3      OH2            23.1868333595      -50.7905422861       16.5509803535  W2        15515           0.0000000000
     46544     15515  TIP3      H1             22.2940633595      -50.4520022861       16.4833803535  W2        15515           0.0000000000
     46545     15515  TIP3      H2             23.0881133595      -51.6459322861       16.9690603535  W2        15515           0.0000000000
     46546     15516  TIP3      OH2            35.4746433595      -42.9740122861        5.9749303535  W2        15516           0.0000000000
     46547     15516  TIP3      H1             35.1974033595      -43.7020822861        6.5310403535  W2        15516           0.0000000000
     46548     15516  TIP3      H2             36.4019433595      -42.8548122861        6.1801903535  W2        15516           0.0000000000
     46549     15517  TIP3      OH2            22.8380333595      -38.9861022861       14.9859203535  W2        15517           0.0000000000
     46550     15517  TIP3      H1             23.0550633595      -39.9178622861       14.9548903535  W2        15517           0.0000000000
     46551     15517  TIP3      H2             23.0843833595      -38.7116022861       15.8692003535  W2        15517           0.0000000000
     46552     15518  TIP3      OH2            28.6994933595      -40.5346022861        2.1951403535  W2        15518           0.0000000000
     46553     15518  TIP3      H1             28.9384733595      -41.2827922861        1.6480303535  W2        15518           0.0000000000
     46554     15518  TIP3      H2             28.4306233595      -40.9224322861        3.0279203535  W2        15518           0.0000000000
     46555     15519  TIP3      OH2            27.6365533595      -40.9642222861        4.6514003535  W2        15519           0.0000000000
     46556     15519  TIP3      H1             27.7833533595      -41.4842422861        5.4414903535  W2        15519           0.0000000000
     46557     15519  TIP3      H2             27.6337233595      -40.0574622861        4.9579903535  W2        15519           0.0000000000
     46558     15520  TIP3      OH2            24.0896633595      -43.7118922861        5.1619403535  W2        15520           0.0000000000
     46559     15520  TIP3      H1             23.4035933595      -43.3596422861        5.7289103535  W2        15520           0.0000000000
     46560     15520  TIP3      H2             24.6124533595      -42.9489322861        4.9153703535  W2        15520           0.0000000000
     46561     15521  TIP3      OH2            31.9211733595      -51.0495122861       15.4408403535  W2        15521           0.0000000000
     46562     15521  TIP3      H1             32.6199633595      -50.9756422861       16.0908103535  W2        15521           0.0000000000
     46563     15521  TIP3      H2             31.5403133595      -51.9140122861       15.5951303535  W2        15521           0.0000000000
     46564     15522  TIP3      OH2            32.7056633595      -51.3973422861        6.5380703535  W2        15522           0.0000000000
     46565     15522  TIP3      H1             32.9254933595      -50.9258022861        5.7346103535  W2        15522           0.0000000000
     46566     15522  TIP3      H2             33.2640633595      -51.0030822861        7.2081303535  W2        15522           0.0000000000
     46567     15523  TIP3      OH2            30.3742733595      -39.2668622861        5.4008203535  W2        15523           0.0000000000
     46568     15523  TIP3      H1             29.5578833595      -38.7698922861        5.4532503535  W2        15523           0.0000000000
     46569     15523  TIP3      H2             30.9039033595      -38.7915122861        4.7607003535  W2        15523           0.0000000000
     46570     15524  TIP3      OH2            29.9056533595      -49.6694622861        7.3729103535  W2        15524           0.0000000000
     46571     15524  TIP3      H1             30.7179133595      -49.1651422861        7.4190803535  W2        15524           0.0000000000
     46572     15524  TIP3      H2             29.6609533595      -49.8144922861        8.2868703535  W2        15524           0.0000000000
     46573     15525  TIP3      OH2            30.4412933595      -48.6831922861       16.5575703535  W2        15525           0.0000000000
     46574     15525  TIP3      H1             30.5603233595      -48.1096522861       17.3146103535  W2        15525           0.0000000000
     46575     15525  TIP3      H2             31.0967533595      -49.3712522861       16.6723503535  W2        15525           0.0000000000
     46576     15526  TIP3      OH2            30.7893233595      -52.5881622861        8.3110203535  W2        15526           0.0000000000
     46577     15526  TIP3      H1             30.4426733595      -51.9711022861        8.9554503535  W2        15526           0.0000000000
     46578     15526  TIP3      H2             31.4480133595      -52.0875922861        7.8295703535  W2        15526           0.0000000000
     46579     15527  TIP3      OH2            27.7125833595      -38.2231422861        5.3825103535  W2        15527           0.0000000000
     46580     15527  TIP3      H1             27.8734533595      -37.4233922861        4.8817703535  W2        15527           0.0000000000
     46581     15527  TIP3      H2             27.5153633595      -37.9165422861        6.2675703535  W2        15527           0.0000000000
     46582     15528  TIP3      OH2            26.4470233595      -51.5252222861        4.9982703535  W2        15528           0.0000000000
     46583     15528  TIP3      H1             26.3635033595      -50.6369122861        5.3449103535  W2        15528           0.0000000000
     46584     15528  TIP3      H2             27.3370533595      -51.7905522861        5.2299503535  W2        15528           0.0000000000
     46585     15529  TIP3      OH2            36.6458733595      -50.7761622861       17.3925403535  W2        15529           0.0000000000
     46586     15529  TIP3      H1             35.7294533595      -50.5139922861       17.3049103535  W2        15529           0.0000000000
     46587     15529  TIP3      H2             36.9813733595      -50.7792622861       16.4960703535  W2        15529           0.0000000000
     46588     15530  TIP3      OH2            35.2479733595      -47.0260622861       11.4882703535  W2        15530           0.0000000000
     46589     15530  TIP3      H1             34.4504133595      -47.4410422861       11.1597703535  W2        15530           0.0000000000
     46590     15530  TIP3      H2             35.6930833595      -47.7166922861       11.9793203535  W2        15530           0.0000000000
     46591     15531  TIP3      OH2            24.7055533595      -41.0980022861        4.0587203535  W2        15531           0.0000000000
     46592     15531  TIP3      H1             25.2977033595      -40.3985222861        4.3349603535  W2        15531           0.0000000000
     46593     15531  TIP3      H2             25.1648533595      -41.5310522861        3.3391803535  W2        15531           0.0000000000
     46594     15532  TIP3      OH2            23.0214733595      -48.4337022861        3.1746603535  W2        15532           0.0000000000
     46595     15532  TIP3      H1             22.9767333595      -47.4943922861        3.3533603535  W2        15532           0.0000000000
     46596     15532  TIP3      H2             22.1337933595      -48.6692122861        2.9048703535  W2        15532           0.0000000000
     46597     15533  TIP3      OH2            36.3344333595      -37.7698122861       13.1106203535  W2        15533           0.0000000000
     46598     15533  TIP3      H1             36.1788633595      -37.0913722861       12.4535503535  W2        15533           0.0000000000
     46599     15533  TIP3      H2             37.2670733595      -37.6978822861       13.3136803535  W2        15533           0.0000000000
     46600     15534  TIP3      OH2            23.8296733595      -53.6520422861       11.8477603535  W2        15534           0.0000000000
     46601     15534  TIP3      H1             23.6006533595      -53.5927922861       10.9202603535  W2        15534           0.0000000000
     46602     15534  TIP3      H2             23.3870133595      -54.4434922861       12.1541703535  W2        15534           0.0000000000
     46603     15535  TIP3      OH2            22.7600033595      -39.7113322861        8.0083403535  W2        15535           0.0000000000
     46604     15535  TIP3      H1             21.9278633595      -39.2390622861        8.0354803535  W2        15535           0.0000000000
     46605     15535  TIP3      H2             23.3058333595      -39.2015722861        7.4096503535  W2        15535           0.0000000000
     46606     15536  TIP3      OH2            22.0483733595      -37.0989622861       19.3381403535  W2        15536           0.0000000000
     46607     15536  TIP3      H1             22.5885933595      -37.3155622861       20.0980603535  W2        15536           0.0000000000
     46608     15536  TIP3      H2             21.5671733595      -37.9043622861       19.1483903535  W2        15536           0.0000000000
     46609     15537  TIP3      OH2            26.6457133595      -38.1795222861       20.9585603535  W2        15537           0.0000000000
     46610     15537  TIP3      H1             27.4134333595      -38.6384422861       21.2994803535  W2        15537           0.0000000000
     46611     15537  TIP3      H2             26.6243333595      -38.4055422861       20.0286803535  W2        15537           0.0000000000
     46612     15538  TIP3      OH2            30.7376733595      -38.6714622861        2.3337403535  W2        15538           0.0000000000
     46613     15538  TIP3      H1             30.0937733595      -39.3026022861        2.6551103535  W2        15538           0.0000000000
     46614     15538  TIP3      H2             31.4995033595      -39.2026622861        2.1020903535  W2        15538           0.0000000000
     46615     15539  TIP3      OH2            33.2225833595      -39.7994122861       19.6877103535  W2        15539           0.0000000000
     46616     15539  TIP3      H1             32.8715333595      -40.6561122861       19.9307503535  W2        15539           0.0000000000
     46617     15539  TIP3      H2             33.9489033595      -39.6567422861       20.2946103535  W2        15539           0.0000000000
     46618     15540  TIP3      OH2            35.3419633595      -38.8544722861        2.5675403535  W2        15540           0.0000000000
     46619     15540  TIP3      H1             35.6250033595      -39.6489522861        3.0202303535  W2        15540           0.0000000000
     46620     15540  TIP3      H2             36.0817533595      -38.6213722861        2.0066503535  W2        15540           0.0000000000
     46621     15541  TIP3      OH2            21.9553233595      -43.2885522861       20.2925703535  W2        15541           0.0000000000
     46622     15541  TIP3      H1             22.0993733595      -44.1904822861       20.0062403535  W2        15541           0.0000000000
     46623     15541  TIP3      H2             21.1830633595      -43.0023422861       19.8048003535  W2        15541           0.0000000000
     46624     15542  TIP3      OH2            26.2966933595      -42.9449822861        2.4250303535  W2        15542           0.0000000000
     46625     15542  TIP3      H1             26.3611033595      -43.7390222861        2.9556703535  W2        15542           0.0000000000
     46626     15542  TIP3      H2             26.9496133595      -43.0637022861        1.7352303535  W2        15542           0.0000000000
     46627     15543  TIP3      OH2            28.6109333595      -43.3187422861       19.7252103535  W2        15543           0.0000000000
     46628     15543  TIP3      H1             28.2823133595      -43.0479322861       18.8679503535  W2        15543           0.0000000000
     46629     15543  TIP3      H2             28.7627533595      -44.2597622861       19.6377103535  W2        15543           0.0000000000
     46630     15544  TIP3      OH2            31.6490333595      -41.8978122861        2.1608303535  W2        15544           0.0000000000
     46631     15544  TIP3      H1             31.3804433595      -41.7176022861        3.0617203535  W2        15544           0.0000000000
     46632     15544  TIP3      H2             31.4425933595      -42.8231922861        2.0294103535  W2        15544           0.0000000000
     46633     15545  TIP3      OH2            34.3454533595      -43.4030122861       17.1084403535  W2        15545           0.0000000000
     46634     15545  TIP3      H1             35.0909333595      -42.8146422861       16.9888403535  W2        15545           0.0000000000
     46635     15545  TIP3      H2             33.5881333595      -42.8210422861       17.1717503535  W2        15545           0.0000000000
     46636     15546  TIP3      OH2            22.7879733595      -46.0882222861       19.7125003535  W2        15546           0.0000000000
     46637     15546  TIP3      H1             23.1960933595      -46.9455622861       19.5915603535  W2        15546           0.0000000000
     46638     15546  TIP3      H2             22.5277333595      -46.0740922861       20.6335303535  W2        15546           0.0000000000
     46639     15547  TIP3      OH2            27.4460733595      -44.9723622861        4.7308303535  W2        15547           0.0000000000
     46640     15547  TIP3      H1             26.9862733595      -45.4565322861        5.4166803535  W2        15547           0.0000000000
     46641     15547  TIP3      H2             27.7009433595      -45.6408222861        4.0948803535  W2        15547           0.0000000000
     46642     15548  TIP3      OH2            26.7350033595      -47.0796522861       17.0867903535  W2        15548           0.0000000000
     46643     15548  TIP3      H1             26.1166133595      -46.4049922861       17.3672603535  W2        15548           0.0000000000
     46644     15548  TIP3      H2             27.0791233595      -46.7582622861       16.2534103535  W2        15548           0.0000000000
     46645     15549  TIP3      OH2            28.5171133595      -46.7291822861        2.9931503535  W2        15549           0.0000000000
     46646     15549  TIP3      H1             28.3366133595      -46.8840622861        2.0659803535  W2        15549           0.0000000000
     46647     15549  TIP3      H2             29.4671633595      -46.6213122861        3.0379403535  W2        15549           0.0000000000
     46648     15550  TIP3      OH2            31.7548233595      -44.6081222861       20.3642703535  W2        15550           0.0000000000
     46649     15550  TIP3      H1             32.7079433595      -44.5242122861       20.3368703535  W2        15550           0.0000000000
     46650     15550  TIP3      H2             31.5942833595      -45.3199422861       20.9837603535  W2        15550           0.0000000000
     46651     15551  TIP3      OH2            37.9069433595      -44.3747622861        2.4389603535  W2        15551           0.0000000000
     46652     15551  TIP3      H1             37.6334233595      -44.7992122861        1.6257903535  W2        15551           0.0000000000
     46653     15551  TIP3      H2             37.9463533595      -43.4433122861        2.2220003535  W2        15551           0.0000000000
     46654     15552  TIP3      OH2            27.0743733595      -49.7245722861       18.1691003535  W2        15552           0.0000000000
     46655     15552  TIP3      H1             27.2244633595      -50.4534422861       17.5670703535  W2        15552           0.0000000000
     46656     15552  TIP3      H2             27.0766133595      -48.9474022861       17.6103203535  W2        15552           0.0000000000
     46657     15553  TIP3      OH2            27.4869433595      -51.3549922861       15.6618403535  W2        15553           0.0000000000
     46658     15553  TIP3      H1             28.0226933595      -50.9033222861       15.0097703535  W2        15553           0.0000000000
     46659     15553  TIP3      H2             26.6349033595      -51.4630122861       15.2392503535  W2        15553           0.0000000000
     46660     15554  TIP3      OH2            29.0687833595      -45.9153722861       15.9013603535  W2        15554           0.0000000000
     46661     15554  TIP3      H1             29.8192633595      -46.0716222861       15.3281403535  W2        15554           0.0000000000
     46662     15554  TIP3      H2             28.7296133595      -45.0637122861       15.6259103535  W2        15554           0.0000000000
     46663     15555  TIP3      OH2            33.4844033595      -48.1001922861       20.9298903535  W2        15555           0.0000000000
     46664     15555  TIP3      H1             33.6765333595      -49.0312522861       20.8183403535  W2        15555           0.0000000000
     46665     15555  TIP3      H2             34.3420333595      -47.6752422861       20.9194303535  W2        15555           0.0000000000
     46666     15556  TIP3      OH2            34.8011233595      -45.3116722861       19.0071603535  W2        15556           0.0000000000
     46667     15556  TIP3      H1             34.5196233595      -44.6022122861       18.4295403535  W2        15556           0.0000000000
     46668     15556  TIP3      H2             35.7435533595      -45.3843722861       18.8562803535  W2        15556           0.0000000000
     46669     15557  TIP3      OH2            25.5530033595      -48.5262222861       20.0806603535  W2        15557           0.0000000000
     46670     15557  TIP3      H1             24.7859033595      -49.0587422861       19.8704203535  W2        15557           0.0000000000
     46671     15557  TIP3      H2             26.2319033595      -48.8361822861       19.4812903535  W2        15557           0.0000000000
     46672     15558  TIP3      OH2            28.2924933595      -53.8984222861       16.0932003535  W2        15558           0.0000000000
     46673     15558  TIP3      H1             28.1944533595      -52.9521022861       15.9878203535  W2        15558           0.0000000000
     46674     15558  TIP3      H2             27.5501133595      -54.2710422861       15.6175503535  W2        15558           0.0000000000
     46675     15559  TIP3      OH2            29.5565433595      -49.5768822861       19.6570403535  W2        15559           0.0000000000
     46676     15559  TIP3      H1             29.3210833595      -49.7962122861       20.5585303535  W2        15559           0.0000000000
     46677     15559  TIP3      H2             28.7732333595      -49.7837622861       19.1472903535  W2        15559           0.0000000000
     46678     15560  TIP3      OH2            32.2722033595      -50.4495322861       18.7323903535  W2        15560           0.0000000000
     46679     15560  TIP3      H1             31.3247433595      -50.4175622861       18.8647203535  W2        15560           0.0000000000
     46680     15560  TIP3      H2             32.5848733595      -51.0748222861       19.3862103535  W2        15560           0.0000000000
     46681     15561  TIP3      OH2            33.9063533595      -51.8154222861       20.7375803535  W2        15561           0.0000000000
     46682     15561  TIP3      H1             33.8095333595      -52.7676922861       20.7317703535  W2        15561           0.0000000000
     46683     15561  TIP3      H2             33.5846633595      -51.5467422861       21.5981303535  W2        15561           0.0000000000
     46684     15562  TIP3      OH2            23.7332833595      -50.6058422861       19.7851303535  W2        15562           0.0000000000
     46685     15562  TIP3      H1             23.9450233595      -51.3122322861       19.1748803535  W2        15562           0.0000000000
     46686     15562  TIP3      H2             23.6220333595      -51.0432422861       20.6292503535  W2        15562           0.0000000000
     46687     15563  TIP3      OH2            28.5143033595      -54.6046822861       18.7644803535  W2        15563           0.0000000000
     46688     15563  TIP3      H1             29.2261433595      -55.2444622861       18.7503903535  W2        15563           0.0000000000
     46689     15563  TIP3      H2             28.4133433595      -54.3378522861       17.8507903535  W2        15563           0.0000000000
     46690     15564  TIP3      OH2            28.8680533595      -52.9218422861       20.8181103535  W2        15564           0.0000000000
     46691     15564  TIP3      H1             28.7362733595      -53.3974622861       19.9979603535  W2        15564           0.0000000000
     46692     15564  TIP3      H2             28.2687933595      -52.1774822861       20.7628203535  W2        15564           0.0000000000
     46693     15565  TIP3      OH2            28.4142833595      -36.0388122861        3.9945103535  W2        15565           0.0000000000
     46694     15565  TIP3      H1             29.3473533595      -35.8809422861        4.1383503535  W2        15565           0.0000000000
     46695     15565  TIP3      H2             28.1501633595      -35.3635122861        3.3696603535  W2        15565           0.0000000000
     46696     15566  TIP3      OH2            21.9827733595      -41.4024322861        3.4773203535  W2        15566           0.0000000000
     46697     15566  TIP3      H1             22.8966933595      -41.3235422861        3.7507103535  W2        15566           0.0000000000
     46698     15566  TIP3      H2             21.9900833595      -42.0894722861        2.8108803535  W2        15566           0.0000000000
     46699     15567  TIP3      OH2            20.6318333595      -36.0095822861        8.5547103535  W2        15567           0.0000000000
     46700     15567  TIP3      H1             19.9845433595      -36.4714122861        8.0218303535  W2        15567           0.0000000000
     46701     15567  TIP3      H2             20.9862933595      -36.6812522861        9.1373303535  W2        15567           0.0000000000
     46702     15568  TIP3      OH2            21.5017533595      -37.9288822861       10.3593303535  W2        15568           0.0000000000
     46703     15568  TIP3      H1             21.1674333595      -38.8091522861       10.5313503535  W2        15568           0.0000000000
     46704     15568  TIP3      H2             21.7239933595      -37.5833822861       11.2238903535  W2        15568           0.0000000000
     46705     15569  TIP3      OH2            39.0502333595      -37.1192422861       13.3398103535  W2        15569           0.0000000000
     46706     15569  TIP3      H1             39.0289033595      -36.9344022861       14.2787503535  W2        15569           0.0000000000
     46707     15569  TIP3      H2             39.7408533595      -36.5508422861       12.9989503535  W2        15569           0.0000000000
     46708     15570  TIP3      OH2            38.6135233595      -37.5521322861       16.2617203535  W2        15570           0.0000000000
     46709     15570  TIP3      H1             38.1263933595      -38.2877222861       15.8904603535  W2        15570           0.0000000000
     46710     15570  TIP3      H2             39.1627933595      -37.9457422861       16.9396603535  W2        15570           0.0000000000
     46711     15571  TIP3      OH2            37.0642533595      -41.7623222861       20.8997503535  W2        15571           0.0000000000
     46712     15571  TIP3      H1             36.1983633595      -41.8673522861       21.2939803535  W2        15571           0.0000000000
     46713     15571  TIP3      H2             37.4408433595      -41.0039922861       21.3462203535  W2        15571           0.0000000000
     46714     15572  TIP3      OH2            38.3652233595      -43.5059522861        6.4140003535  W2        15572           0.0000000000
     46715     15572  TIP3      H1             39.2153633595      -43.0848622861        6.5411603535  W2        15572           0.0000000000
     46716     15572  TIP3      H2             38.3707333595      -44.2459422861        7.0211403535  W2        15572           0.0000000000
     46717     15573  TIP3      OH2            38.7597833595      -45.4522122861        8.2375703535  W2        15573           0.0000000000
     46718     15573  TIP3      H1             38.0332433595      -45.9319522861        8.6353303535  W2        15573           0.0000000000
     46719     15573  TIP3      H2             39.3411133595      -45.2467422861        8.9697303535  W2        15573           0.0000000000
     46720     15574  TIP3      OH2            38.5189033595      -42.6674622861       13.1853303535  W2        15574           0.0000000000
     46721     15574  TIP3      H1             39.3523233595      -43.0454622861       12.9046903535  W2        15574           0.0000000000
     46722     15574  TIP3      H2             38.6309333595      -41.7243422861       13.0662403535  W2        15574           0.0000000000
     46723     15575  TIP3      OH2            37.0051333595      -39.7897122861       15.4921703535  W2        15575           0.0000000000
     46724     15575  TIP3      H1             36.3576633595      -39.4645622861       16.1176903535  W2        15575           0.0000000000
     46725     15575  TIP3      H2             36.4875333595      -40.2299422861       14.8180003535  W2        15575           0.0000000000
     46726     15576  TIP3      OH2            39.0280933595      -45.5513622861        4.6287003535  W2        15576           0.0000000000
     46727     15576  TIP3      H1             38.5062033595      -45.1949522861        3.9097903535  W2        15576           0.0000000000
     46728     15576  TIP3      H2             38.9950133595      -44.8765822861        5.3067903535  W2        15576           0.0000000000
     46729     15577  TIP3      OH2            37.3769933595      -48.3118022861        3.1794103535  W2        15577           0.0000000000
     46730     15577  TIP3      H1             37.4734333595      -47.6451022861        2.4993803535  W2        15577           0.0000000000
     46731     15577  TIP3      H2             37.2369533595      -49.1271722861        2.6979603535  W2        15577           0.0000000000
     46732     15578  TIP3      OH2            36.5464633595      -46.9315622861        8.8004403535  W2        15578           0.0000000000
     46733     15578  TIP3      H1             36.3963433595      -47.8767022861        8.7802203535  W2        15578           0.0000000000
     46734     15578  TIP3      H2             36.1929133595      -46.6504222861        9.6443503535  W2        15578           0.0000000000
     46735     15579  TIP3      OH2            21.5817033595      -44.8533422861       12.8108203535  W2        15579           0.0000000000
     46736     15579  TIP3      H1             21.7659933595      -44.9351722861       11.8751103535  W2        15579           0.0000000000
     46737     15579  TIP3      H2             22.4309933595      -44.9776422861       13.2344603535  W2        15579           0.0000000000
     46738     15580  TIP3      OH2            37.4027533595      -44.9612322861       18.4392703535  W2        15580           0.0000000000
     46739     15580  TIP3      H1             37.9854833595      -45.6960022861       18.6309903535  W2        15580           0.0000000000
     46740     15580  TIP3      H2             37.9666833595      -44.1892022861       18.4858503535  W2        15580           0.0000000000
     46741     15581  TIP3      OH2            38.8994633595      -47.0586522861       19.1238103535  W2        15581           0.0000000000
     46742     15581  TIP3      H1             38.0361333595      -47.4374422861       18.9582803535  W2        15581           0.0000000000
     46743     15581  TIP3      H2             39.5038333595      -47.7971722861       19.0493903535  W2        15581           0.0000000000
     46744     15582  TIP3      OH2            36.6243733595      -50.9038222861        2.2969603535  W2        15582           0.0000000000
     46745     15582  TIP3      H1             37.2349533595      -51.2751422861        2.9337803535  W2        15582           0.0000000000
     46746     15582  TIP3      H2             35.7875233595      -51.3251322861        2.4929603535  W2        15582           0.0000000000
     46747     15583  TIP3      OH2            36.2569433595      -49.3489822861        7.2629503535  W2        15583           0.0000000000
     46748     15583  TIP3      H1             36.5366533595      -50.2559422861        7.3871203535  W2        15583           0.0000000000
     46749     15583  TIP3      H2             37.0161133595      -48.9148322861        6.8738703535  W2        15583           0.0000000000
     46750     15584  TIP3      OH2            36.8687733595      -48.7672422861       12.6988403535  W2        15584           0.0000000000
     46751     15584  TIP3      H1             37.8015733595      -48.5552522861       12.6644403535  W2        15584           0.0000000000
     46752     15584  TIP3      H2             36.6335233595      -48.6660322861       13.6211403535  W2        15584           0.0000000000
     46753     15585  TIP3      OH2            36.8979633595      -48.0307122861       15.4747803535  W2        15585           0.0000000000
     46754     15585  TIP3      H1             36.0550933595      -47.7626722861       15.8407603535  W2        15585           0.0000000000
     46755     15585  TIP3      H2             37.3403933595      -47.2085222861       15.2638903535  W2        15585           0.0000000000
     46756     15586  TIP3      OH2            21.1791833595      -49.5828422861       18.9517003535  W2        15586           0.0000000000
     46757     15586  TIP3      H1             22.0986733595      -49.7050122861       19.1880103535  W2        15586           0.0000000000
     46758     15586  TIP3      H2             20.7296333595      -50.3328722861       19.3410503535  W2        15586           0.0000000000
     46759     15587  TIP3      OH2            39.1811233595      -54.0506922861       20.8282803535  W2        15587           0.0000000000
     46760     15587  TIP3      H1             39.5308233595      -54.7043422861       20.2227503535  W2        15587           0.0000000000
     46761     15587  TIP3      H2             39.3280733595      -53.2132822861       20.3885403535  W2        15587           0.0000000000
     46762     15588  TIP3      OH2            36.8704233595      -52.0860522861        7.3111503535  W2        15588           0.0000000000
     46763     15588  TIP3      H1             37.0529233595      -52.5349022861        8.1366503535  W2        15588           0.0000000000
     46764     15588  TIP3      H2             36.2707133595      -52.6706122861        6.8476103535  W2        15588           0.0000000000
     46765     15589  TIP3      OH2            22.4004333595      -51.2706822861       11.8429903535  W2        15589           0.0000000000
     46766     15589  TIP3      H1             22.8455933595      -52.0624322861       12.1449603535  W2        15589           0.0000000000
     46767     15589  TIP3      H2             22.8667333595      -50.5541622861       12.2735503535  W2        15589           0.0000000000
     46768     15590  TIP3      OH2            20.7044633595      -48.2713822861       12.9120103535  W2        15590           0.0000000000
     46769     15590  TIP3      H1             21.1964433595      -48.4923322861       12.1212103535  W2        15590           0.0000000000
     46770     15590  TIP3      H2             21.0665533595      -47.4310422861       13.1929603535  W2        15590           0.0000000000
     46771     15591  TIP3      OH2            38.7008433595      -51.9412322861       19.1774103535  W2        15591           0.0000000000
     46772     15591  TIP3      H1             37.7834133595      -51.6705222861       19.1417603535  W2        15591           0.0000000000
     46773     15591  TIP3      H2             38.8237833595      -52.4763922861       18.3933803535  W2        15591           0.0000000000
     46774     15592  TIP3      OH2            38.7370433595      -52.0182422861        3.8391803535  W2        15592           0.0000000000
     46775     15592  TIP3      H1             39.1493033595      -52.7396722861        3.3639803535  W2        15592           0.0000000000
     46776     15592  TIP3      H2             39.4186933595      -51.3487822861        3.8976103535  W2        15592           0.0000000000
     46777     15593  TIP3      OH2            21.0181133595      -52.0134722861        6.9662503535  W2        15593           0.0000000000
     46778     15593  TIP3      H1             20.0929533595      -51.8048122861        6.8368003535  W2        15593           0.0000000000
     46779     15593  TIP3      H2             21.4721033595      -51.5293922861        6.2764803535  W2        15593           0.0000000000
     46780     15594  TIP3      OH2            35.7888333595      -37.0293022861        8.9119903535  W2        15594           0.0000000000
     46781     15594  TIP3      H1             36.4411233595      -37.3770922861        8.3039003535  W2        15594           0.0000000000
     46782     15594  TIP3      H2             36.2992133595      -36.5409822861        9.5579603535  W2        15594           0.0000000000
     46783     15595  TIP3      OH2            20.9816533595      -53.2755722861       15.3105003535  W2        15595           0.0000000000
     46784     15595  TIP3      H1             20.3167033595      -53.5215422861       15.9535903535  W2        15595           0.0000000000
     46785     15595  TIP3      H2             20.5387833595      -52.6535322861       14.7333003535  W2        15595           0.0000000000
     46786     15596  TIP3      OH2            23.1735833595      -40.1001622861       19.4550803535  W2        15596           0.0000000000
     46787     15596  TIP3      H1             22.3528333595      -39.9255122861       18.9945503535  W2        15596           0.0000000000
     46788     15596  TIP3      H2             22.9213633595      -40.1736922861       20.3755203535  W2        15596           0.0000000000
     46789     15597  TIP3      OH2            26.1278733595      -39.1260422861       15.7134803535  W2        15597           0.0000000000
     46790     15597  TIP3      H1             25.7029833595      -38.3161922861       15.4309403535  W2        15597           0.0000000000
     46791     15597  TIP3      H2             27.0321533595      -39.0406322861       15.4114603535  W2        15597           0.0000000000
     46792     15598  TIP3      OH2            30.4390133595      -37.7270422861       18.6728503535  W2        15598           0.0000000000
     46793     15598  TIP3      H1             30.6237633595      -38.0604322861       19.5508803535  W2        15598           0.0000000000
     46794     15598  TIP3      H2             31.2854633595      -37.4171822861       18.3507703535  W2        15598           0.0000000000
     46795     15599  TIP3      OH2            32.7840533595      -36.4411522861       17.9169903535  W2        15599           0.0000000000
     46796     15599  TIP3      H1             33.4609433595      -37.0739222861       17.6769103535  W2        15599           0.0000000000
     46797     15599  TIP3      H2             33.1059333595      -36.0401022861       18.7243203535  W2        15599           0.0000000000
     46798     15600  TIP3      OH2            37.7014333595      -53.8516022861       16.9964903535  W2        15600           0.0000000000
     46799     15600  TIP3      H1             36.8887833595      -53.5265722861       16.6089603535  W2        15600           0.0000000000
     46800     15600  TIP3      H2             37.9342833595      -54.6117522861       16.4634003535  W2        15600           0.0000000000
     46801     15601  TIP3      OH2            23.5295433595      -35.8696522861       15.7610103535  W2        15601           0.0000000000
     46802     15601  TIP3      H1             22.8091833595      -35.4295522861       15.3097803535  W2        15601           0.0000000000
     46803     15601  TIP3      H2             23.1639433595      -36.1201822861       16.6094103535  W2        15601           0.0000000000
     46804     15602  TIP3      OH2            25.9968033595      -36.2692622861       14.7907303535  W2        15602           0.0000000000
     46805     15602  TIP3      H1             25.1320233595      -36.1974122861       15.1947403535  W2        15602           0.0000000000
     46806     15602  TIP3      H2             25.9417033595      -35.7225322861       14.0069803535  W2        15602           0.0000000000
     46807     15603  TIP3      OH2            30.7073633595      -36.3813722861       13.9663303535  W2        15603           0.0000000000
     46808     15603  TIP3      H1             30.2507633595      -35.8524022861       13.3121703535  W2        15603           0.0000000000
     46809     15603  TIP3      H2             30.8701633595      -35.7782322861       14.6915603535  W2        15603           0.0000000000
     46810     15604  TIP3      OH2            33.0349933595      -37.5034122861       14.9113603535  W2        15604           0.0000000000
     46811     15604  TIP3      H1             32.1303633595      -37.3383922861       14.6455703535  W2        15604           0.0000000000
     46812     15604  TIP3      H2             33.4638533595      -36.6501922861       14.8457003535  W2        15604           0.0000000000
     46813     15605  TIP3      OH2            35.6391833595      -35.9335022861       15.2061403535  W2        15605           0.0000000000
     46814     15605  TIP3      H1             35.4573833595      -35.0176122861       14.9956303535  W2        15605           0.0000000000
     46815     15605  TIP3      H2             35.8159633595      -36.3437922861       14.3596003535  W2        15605           0.0000000000
     46816     15606  TIP3      OH2            22.9443533595      -37.2464022861       12.6711903535  W2        15606           0.0000000000
     46817     15606  TIP3      H1             22.9259533595      -37.6718922861       13.5284203535  W2        15606           0.0000000000
     46818     15606  TIP3      H2             23.7491433595      -37.5649022861       12.2624103535  W2        15606           0.0000000000
     46819     15607  TIP3      OH2            25.0856633595      -38.5365322861       11.3261803535  W2        15607           0.0000000000
     46820     15607  TIP3      H1             24.8667333595      -39.4527922861       11.4957803535  W2        15607           0.0000000000
     46821     15607  TIP3      H2             25.9098833595      -38.3964922861       11.7923203535  W2        15607           0.0000000000
     46822     15608  TIP3      OH2            27.6229133595      -38.0666022861       12.1749803535  W2        15608           0.0000000000
     46823     15608  TIP3      H1             27.8354833595      -38.9547022861       11.8880703535  W2        15608           0.0000000000
     46824     15608  TIP3      H2             27.6874233595      -38.1008322861       13.1293803535  W2        15608           0.0000000000
     46825     15609  TIP3      OH2            31.1312833595      -52.4025422861       11.3193103535  W2        15609           0.0000000000
     46826     15609  TIP3      H1             30.4569633595      -53.0319822861       11.5748903535  W2        15609           0.0000000000
     46827     15609  TIP3      H2             31.6952033595      -52.8866522861       10.7161003535  W2        15609           0.0000000000
     46828     15610  TIP3      OH2            36.2740033595      -54.2951422861       11.4320203535  W2        15610           0.0000000000
     46829     15610  TIP3      H1             36.8777633595      -53.7476022861       10.9301203535  W2        15610           0.0000000000
     46830     15610  TIP3      H2             35.4042033595      -53.9761022861       11.1914303535  W2        15610           0.0000000000
     46831     15611  TIP3      OH2            38.0010433595      -53.1562722861        9.7651103535  W2        15611           0.0000000000
     46832     15611  TIP3      H1             38.6127933595      -53.6707022861        9.2384703535  W2        15611           0.0000000000
     46833     15611  TIP3      H2             38.3833833595      -52.2790622861        9.7885503535  W2        15611           0.0000000000
     46834     15612  TIP3      OH2            23.4580333595      -53.7685122861        9.1413003535  W2        15612           0.0000000000
     46835     15612  TIP3      H1             22.6810133595      -54.0030222861        8.6338903535  W2        15612           0.0000000000
     46836     15612  TIP3      H2             23.9883933595      -54.5653022861        9.1501003535  W2        15612           0.0000000000
     46837     15613  TIP3      OH2            22.2943733595      -53.9707022861        4.9449103535  W2        15613           0.0000000000
     46838     15613  TIP3      H1             22.7334433595      -53.3596522861        4.3532603535  W2        15613           0.0000000000
     46839     15613  TIP3      H2             21.6606133595      -53.4322922861        5.4189103535  W2        15613           0.0000000000
     46840     15614  TIP3      OH2            28.0372933595      -53.8418022861        8.9546103535  W2        15614           0.0000000000
     46841     15614  TIP3      H1             28.9116333595      -53.4533722861        8.9250403535  W2        15614           0.0000000000
     46842     15614  TIP3      H2             27.9013733595      -54.0570222861        9.8773303535  W2        15614           0.0000000000
     46843     15615  TIP3      OH2            33.5941333595      -53.8118222861       10.6037803535  W2        15615           0.0000000000
     46844     15615  TIP3      H1             33.6702933595      -53.7166622861        9.6543803535  W2        15615           0.0000000000
     46845     15615  TIP3      H2             33.3190533595      -54.7195322861       10.7326903535  W2        15615           0.0000000000
     46846     15616  TIP3      OH2            34.9473933595      -53.7860422861        6.2962803535  W2        15616           0.0000000000
     46847     15616  TIP3      H1             34.2445033595      -53.1711222861        6.0864203535  W2        15616           0.0000000000
     46848     15616  TIP3      H2             34.5025333595      -54.6233722861        6.4273703535  W2        15616           0.0000000000
     46849     15617  TIP3      OH2            22.1953233595      -38.0224822861        5.8424203535  W2        15617           0.0000000000
     46850     15617  TIP3      H1             21.5103133595      -38.0605922861        5.1749303535  W2        15617           0.0000000000
     46851     15617  TIP3      H2             22.1990433595      -37.1097222861        6.1306303535  W2        15617           0.0000000000
     46852     15618  TIP3      OH2            24.1552833595      -52.0545522861        3.3873203535  W2        15618           0.0000000000
     46853     15618  TIP3      H1             24.6466233595      -52.6843122861        2.8598703535  W2        15618           0.0000000000
     46854     15618  TIP3      H2             24.7789133595      -51.7586122861        4.0504403535  W2        15618           0.0000000000
     46855     15619  TIP3      OH2            29.1812933595      -51.7614022861        5.8443703535  W2        15619           0.0000000000
     46856     15619  TIP3      H1             29.3594233595      -52.4080822861        6.5272303535  W2        15619           0.0000000000
     46857     15619  TIP3      H2             29.1279133595      -50.9276322861        6.3114803535  W2        15619           0.0000000000
     46858     15620  TIP3      OH2            31.0596733595      -36.8129922861        4.2400403535  W2        15620           0.0000000000
     46859     15620  TIP3      H1             31.9256933595      -36.4462522861        4.0618603535  W2        15620           0.0000000000
     46860     15620  TIP3      H2             30.8129533595      -37.2521922861        3.4261203535  W2        15620           0.0000000000
     46861     15621  TIP3      OH2            37.7686333595      -37.2499622861        6.9191503535  W2        15621           0.0000000000
     46862     15621  TIP3      H1             37.5743433595      -37.9977522861        6.3541103535  W2        15621           0.0000000000
     46863     15621  TIP3      H2             37.7296433595      -36.4919522861        6.3359403535  W2        15621           0.0000000000
     46864     15622  TIP3      OH2            23.4158333595      -53.2543222861       18.6589203535  W2        15622           0.0000000000
     46865     15622  TIP3      H1             23.0496533595      -54.0200622861       19.1013903535  W2        15622           0.0000000000
     46866     15622  TIP3      H2             24.3286833595      -53.2253022861       18.9454303535  W2        15622           0.0000000000
     46867     15623  TIP3      OH2            25.3889133595      -53.9038822861       20.1946303535  W2        15623           0.0000000000
     46868     15623  TIP3      H1             26.2872733595      -54.1778622861       20.0099703535  W2        15623           0.0000000000
     46869     15623  TIP3      H2             25.0022233595      -54.6462822861       20.6588903535  W2        15623           0.0000000000
     46870     15624  TIP3      OH2            24.0134433595      -37.1024022861        2.8676303535  W2        15624           0.0000000000
     46871     15624  TIP3      H1             23.7459033595      -36.8161122861        3.7409403535  W2        15624           0.0000000000
     46872     15624  TIP3      H2             24.7847033595      -37.6484822861        3.0198803535  W2        15624           0.0000000000
     46873     15625  TIP3      OH2            33.8101433595      -54.5713522861       20.3769103535  W2        15625           0.0000000000
     46874     15625  TIP3      H1             33.8868633595      -54.9972822861       21.2306803535  W2        15625           0.0000000000
     46875     15625  TIP3      H2             34.7038033595      -54.5578822861       20.0342603535  W2        15625           0.0000000000
     46876     15626  TIP3      OH2            36.9862533595      -38.4987222861       19.0693303535  W2        15626           0.0000000000
     46877     15626  TIP3      H1             36.2044433595      -38.6849222861       18.5493903535  W2        15626           0.0000000000
     46878     15626  TIP3      H2             36.9142433595      -37.5692922861       19.2865803535  W2        15626           0.0000000000
     46879     15627  TIP3      OH2            51.3922933595      -44.6122822861        9.1000503535  W2        15627           0.0000000000
     46880     15627  TIP3      H1             51.4814033595      -43.6684622861        8.9677603535  W2        15627           0.0000000000
     46881     15627  TIP3      H2             50.7540533595      -44.8876422861        8.4419903535  W2        15627           0.0000000000
     46882     15628  TIP3      OH2            50.3254233595      -45.3572122861       12.5188703535  W2        15628           0.0000000000
     46883     15628  TIP3      H1             50.2871733595      -46.0035822861       13.2238303535  W2        15628           0.0000000000
     46884     15628  TIP3      H2             50.0030733595      -45.8237722861       11.7477403535  W2        15628           0.0000000000
     46885     15629  TIP3      OH2            42.6939233595      -45.7430022861       14.1118603535  W2        15629           0.0000000000
     46886     15629  TIP3      H1             42.7351333595      -46.3686722861       14.8351003535  W2        15629           0.0000000000
     46887     15629  TIP3      H2             43.3966933595      -45.1191422861       14.2939003535  W2        15629           0.0000000000
     46888     15630  TIP3      OH2            54.0314433595      -42.4181722861       10.8203803535  W2        15630           0.0000000000
     46889     15630  TIP3      H1             53.5907133595      -43.1385722861       11.2709403535  W2        15630           0.0000000000
     46890     15630  TIP3      H2             54.0184133595      -41.6974522861       11.4501503535  W2        15630           0.0000000000
     46891     15631  TIP3      OH2            43.6172333595      -41.2931122861       12.6467703535  W2        15631           0.0000000000
     46892     15631  TIP3      H1             43.2477533595      -42.0950622861       12.2772003535  W2        15631           0.0000000000
     46893     15631  TIP3      H2             44.5583433595      -41.4616222861       12.6931103535  W2        15631           0.0000000000
     46894     15632  TIP3      OH2            40.2272833595      -47.6328522861        8.0396503535  W2        15632           0.0000000000
     46895     15632  TIP3      H1             39.7796233595      -46.7869822861        8.0213003535  W2        15632           0.0000000000
     46896     15632  TIP3      H2             39.6664033595      -48.2124322861        7.5241603535  W2        15632           0.0000000000
     46897     15633  TIP3      OH2            40.9378933595      -45.4708922861       10.1654503535  W2        15633           0.0000000000
     46898     15633  TIP3      H1             41.1512433595      -46.2407322861       10.6927503535  W2        15633           0.0000000000
     46899     15633  TIP3      H2             41.6756533595      -45.3812222861        9.5622103535  W2        15633           0.0000000000
     46900     15634  TIP3      OH2            51.1429933595      -37.3140022861       11.0324203535  W2        15634           0.0000000000
     46901     15634  TIP3      H1             51.7626333595      -37.9905322861       10.7593403535  W2        15634           0.0000000000
     46902     15634  TIP3      H2             50.9347333595      -37.5319222861       11.9409103535  W2        15634           0.0000000000
     46903     15635  TIP3      OH2            48.7148633595      -42.9250722861       12.9249703535  W2        15635           0.0000000000
     46904     15635  TIP3      H1             49.0186533595      -43.6109322861       12.3303803535  W2        15635           0.0000000000
     46905     15635  TIP3      H2             49.4362633595      -42.8062022861       13.5427703535  W2        15635           0.0000000000
     46906     15636  TIP3      OH2            51.8555633595      -48.5308322861       13.2524503535  W2        15636           0.0000000000
     46907     15636  TIP3      H1             51.9981533595      -49.4771322861       13.2726103535  W2        15636           0.0000000000
     46908     15636  TIP3      H2             51.7494633595      -48.3238522861       12.3239403535  W2        15636           0.0000000000
     46909     15637  TIP3      OH2            45.0103933595      -50.4291922861       10.5249303535  W2        15637           0.0000000000
     46910     15637  TIP3      H1             45.0535033595      -49.5693422861       10.1065603535  W2        15637           0.0000000000
     46911     15637  TIP3      H2             44.5528033595      -50.9817222861        9.8912503535  W2        15637           0.0000000000
     46912     15638  TIP3      OH2            52.7326633595      -50.2986322861        8.9257603535  W2        15638           0.0000000000
     46913     15638  TIP3      H1             53.3790933595      -50.6273122861        9.5505203535  W2        15638           0.0000000000
     46914     15638  TIP3      H2             53.2426033595      -49.7807322861        8.3029003535  W2        15638           0.0000000000
     46915     15639  TIP3      OH2            41.6305433595      -48.0326122861       11.2870703535  W2        15639           0.0000000000
     46916     15639  TIP3      H1             42.2842033595      -48.5824422861       11.7190803535  W2        15639           0.0000000000
     46917     15639  TIP3      H2             41.6544733595      -48.3067122861       10.3702703535  W2        15639           0.0000000000
     46918     15640  TIP3      OH2            46.7869933595      -46.4824822861       10.5022203535  W2        15640           0.0000000000
     46919     15640  TIP3      H1             47.4030933595      -47.0089422861       11.0116203535  W2        15640           0.0000000000
     46920     15640  TIP3      H2             46.2008733595      -47.1226122861       10.0985803535  W2        15640           0.0000000000
     46921     15641  TIP3      OH2            43.8205833595      -51.5113522861       14.5990103535  W2        15641           0.0000000000
     46922     15641  TIP3      H1             43.6017533595      -50.9812922861       13.8326103535  W2        15641           0.0000000000
     46923     15641  TIP3      H2             43.1526733595      -51.2848022861       15.2461503535  W2        15641           0.0000000000
     46924     15642  TIP3      OH2            51.1895633595      -42.0112422861        8.1429203535  W2        15642           0.0000000000
     46925     15642  TIP3      H1             50.8940733595      -42.3340122861        7.2916103535  W2        15642           0.0000000000
     46926     15642  TIP3      H2             50.8653433595      -41.1115722861        8.1841803535  W2        15642           0.0000000000
     46927     15643  TIP3      OH2            46.3897233595      -43.8357822861       14.8863803535  W2        15643           0.0000000000
     46928     15643  TIP3      H1             45.6496333595      -43.2376322861       14.9899003535  W2        15643           0.0000000000
     46929     15643  TIP3      H2             47.1036733595      -43.2818222861       14.5707403535  W2        15643           0.0000000000
     46930     15644  TIP3      OH2            54.4965033595      -51.0077022861       10.9063503535  W2        15644           0.0000000000
     46931     15644  TIP3      H1             54.2813033595      -51.7733622861       11.4389503535  W2        15644           0.0000000000
     46932     15644  TIP3      H2             55.1522433595      -50.5352422861       11.4192003535  W2        15644           0.0000000000
     46933     15645  TIP3      OH2            43.4143133595      -49.6191722861       12.5512303535  W2        15645           0.0000000000
     46934     15645  TIP3      H1             44.0279433595      -48.9864122861       12.9244703535  W2        15645           0.0000000000
     46935     15645  TIP3      H2             43.9263833595      -50.0916722861       11.8949203535  W2        15645           0.0000000000
     46936     15646  TIP3      OH2            44.7971533595      -41.8714822861       15.6735303535  W2        15646           0.0000000000
     46937     15646  TIP3      H1             44.7919133595      -40.9921322861       15.2954603535  W2        15646           0.0000000000
     46938     15646  TIP3      H2             43.9435633595      -41.9550722861       16.0985203535  W2        15646           0.0000000000
     46939     15647  TIP3      OH2            40.9182433595      -42.2006922861        6.4554603535  W2        15647           0.0000000000
     46940     15647  TIP3      H1             40.6463333595      -41.9715922861        5.5667503535  W2        15647           0.0000000000
     46941     15647  TIP3      H2             40.9638133595      -41.3628122861        6.9159903535  W2        15647           0.0000000000
     46942     15648  TIP3      OH2            54.5432133595      -40.5791022861       13.1683103535  W2        15648           0.0000000000
     46943     15648  TIP3      H1             53.6015833595      -40.5207122861       13.3300003535  W2        15648           0.0000000000
     46944     15648  TIP3      H2             54.8198233595      -39.6730522861       13.0312803535  W2        15648           0.0000000000
     46945     15649  TIP3      OH2            47.8470533595      -54.2058422861       12.0515003535  W2        15649           0.0000000000
     46946     15649  TIP3      H1             47.7294733595      -55.1542422861       11.9973303535  W2        15649           0.0000000000
     46947     15649  TIP3      H2             46.9920633595      -53.8732322861       12.3246103535  W2        15649           0.0000000000
     46948     15650  TIP3      OH2            52.7953333595      -38.7977522861        9.7934703535  W2        15650           0.0000000000
     46949     15650  TIP3      H1             53.2205633595      -39.5049622861        9.3084303535  W2        15650           0.0000000000
     46950     15650  TIP3      H2             53.1123333595      -37.9964822861        9.3766903535  W2        15650           0.0000000000
     46951     15651  TIP3      OH2            53.9549833595      -40.8969022861        8.3021303535  W2        15651           0.0000000000
     46952     15651  TIP3      H1             53.6974633595      -41.5868922861        7.6907203535  W2        15651           0.0000000000
     46953     15651  TIP3      H2             54.0260633595      -41.3397822861        9.1477203535  W2        15651           0.0000000000
     46954     15652  TIP3      OH2            50.1135433595      -45.3682822861        6.5520803535  W2        15652           0.0000000000
     46955     15652  TIP3      H1             49.4020933595      -44.8333122861        6.2001303535  W2        15652           0.0000000000
     46956     15652  TIP3      H2             50.8045033595      -45.3130722861        5.8919703535  W2        15652           0.0000000000
     46957     15653  TIP3      OH2            50.1674633595      -46.9108522861        3.5905803535  W2        15653           0.0000000000
     46958     15653  TIP3      H1             50.8684533595      -46.8881622861        4.2419803535  W2        15653           0.0000000000
     46959     15653  TIP3      H2             50.4697533595      -47.5388822861        2.9345103535  W2        15653           0.0000000000
     46960     15654  TIP3      OH2            53.5193133595      -45.1589522861        7.5036703535  W2        15654           0.0000000000
     46961     15654  TIP3      H1             52.7874133595      -44.9305822861        8.0767303535  W2        15654           0.0000000000
     46962     15654  TIP3      H2             53.9665333595      -45.8726822861        7.9584203535  W2        15654           0.0000000000
     46963     15655  TIP3      OH2            53.4166633595      -46.9846922861       16.5713703535  W2        15655           0.0000000000
     46964     15655  TIP3      H1             53.4965733595      -46.2212522861       17.1432203535  W2        15655           0.0000000000
     46965     15655  TIP3      H2             52.8154333595      -46.7054522861       15.8808803535  W2        15655           0.0000000000
     46966     15656  TIP3      OH2            45.1646833595      -44.5283322861        9.3861703535  W2        15656           0.0000000000
     46967     15656  TIP3      H1             44.8342033595      -44.8989922861        8.5678703535  W2        15656           0.0000000000
     46968     15656  TIP3      H2             45.7530933595      -45.1989322861        9.7330003535  W2        15656           0.0000000000
     46969     15657  TIP3      OH2            46.5314333595      -41.1002722861       12.0673903535  W2        15657           0.0000000000
     46970     15657  TIP3      H1             46.4365633595      -41.6789622861       11.3108503535  W2        15657           0.0000000000
     46971     15657  TIP3      H2             47.2607933595      -41.4717022861       12.5636703535  W2        15657           0.0000000000
     46972     15658  TIP3      OH2            45.5312333595      -45.7597722861       13.0196703535  W2        15658           0.0000000000
     46973     15658  TIP3      H1             46.0964833595      -45.6383522861       12.2567903535  W2        15658           0.0000000000
     46974     15658  TIP3      H2             45.8501233595      -45.1222722861       13.6585203535  W2        15658           0.0000000000
     46975     15659  TIP3      OH2            51.8404533595      -40.2565822861       13.7537203535  W2        15659           0.0000000000
     46976     15659  TIP3      H1             51.6001133595      -39.5942722861       14.4016403535  W2        15659           0.0000000000
     46977     15659  TIP3      H2             51.6422733595      -41.0910622861       14.1786803535  W2        15659           0.0000000000
     46978     15660  TIP3      OH2            46.4113033595      -41.3605022861       17.7368603535  W2        15660           0.0000000000
     46979     15660  TIP3      H1             46.1000533595      -40.5781822861       18.1921803535  W2        15660           0.0000000000
     46980     15660  TIP3      H2             45.7613233595      -41.5135922861       17.0510603535  W2        15660           0.0000000000
     46981     15661  TIP3      OH2            52.3902633595      -45.9966622861        5.1887903535  W2        15661           0.0000000000
     46982     15661  TIP3      H1             52.9698133595      -45.8466322861        5.9356803535  W2        15661           0.0000000000
     46983     15661  TIP3      H2             52.8042633595      -45.5259222861        4.4654303535  W2        15661           0.0000000000
     46984     15662  TIP3      OH2            43.3312933595      -45.1623922861       16.9654303535  W2        15662           0.0000000000
     46985     15662  TIP3      H1             43.4016133595      -44.5117122861       17.6639303535  W2        15662           0.0000000000
     46986     15662  TIP3      H2             42.4405133595      -45.0596422861       16.6305203535  W2        15662           0.0000000000
     46987     15663  TIP3      OH2            50.1167533595      -39.2598122861        8.6241003535  W2        15663           0.0000000000
     46988     15663  TIP3      H1             50.5905133595      -38.9641822861        9.4015203535  W2        15663           0.0000000000
     46989     15663  TIP3      H2             49.5536833595      -38.5216522861        8.3910603535  W2        15663           0.0000000000
     46990     15664  TIP3      OH2            44.6508933595      -39.2890022861       18.5002403535  W2        15664           0.0000000000
     46991     15664  TIP3      H1             44.6584233595      -39.4250322861       17.5527903535  W2        15664           0.0000000000
     46992     15664  TIP3      H2             43.7349333595      -39.4061922861       18.7522403535  W2        15664           0.0000000000
     46993     15665  TIP3      OH2            44.1549533595      -45.4589022861        6.9754503535  W2        15665           0.0000000000
     46994     15665  TIP3      H1             43.8630833595      -44.6907322861        6.4845803535  W2        15665           0.0000000000
     46995     15665  TIP3      H2             43.4804733595      -46.1182822861        6.8125903535  W2        15665           0.0000000000
     46996     15666  TIP3      OH2            40.2479633595      -43.0959822861       15.7904303535  W2        15666           0.0000000000
     46997     15666  TIP3      H1             39.7468033595      -43.1240422861       14.9754003535  W2        15666           0.0000000000
     46998     15666  TIP3      H2             40.2533333595      -44.0016622861       16.1001603535  W2        15666           0.0000000000
     46999     15667  TIP3      OH2            39.9982333595      -40.3156022861       12.6744503535  W2        15667           0.0000000000
     47000     15667  TIP3      H1             40.9442933595      -40.4599022861       12.6554003535  W2        15667           0.0000000000
     47001     15667  TIP3      H2             39.8858633595      -39.5313222861       13.2115703535  W2        15667           0.0000000000
     47002     15668  TIP3      OH2            49.1744833595      -40.0757122861       17.2329603535  W2        15668           0.0000000000
     47003     15668  TIP3      H1             49.2619433595      -39.2492522861       17.7078703535  W2        15668           0.0000000000
     47004     15668  TIP3      H2             48.3109933595      -40.4053322861       17.4818903535  W2        15668           0.0000000000
     47005     15669  TIP3      OH2            49.5890633595      -36.3033422861        7.0390203535  W2        15669           0.0000000000
     47006     15669  TIP3      H1             49.5136633595      -36.4246222861        6.0925403535  W2        15669           0.0000000000
     47007     15669  TIP3      H2             49.6219333595      -35.3540722861        7.1574803535  W2        15669           0.0000000000
     47008     15670  TIP3      OH2            43.2424433595      -37.5146422861        8.8199203535  W2        15670           0.0000000000
     47009     15670  TIP3      H1             43.3944833595      -37.8626022861        9.6985703535  W2        15670           0.0000000000
     47010     15670  TIP3      H2             42.3914833595      -37.8709122861        8.5646403535  W2        15670           0.0000000000
     47011     15671  TIP3      OH2            52.6906633595      -37.1493222861        4.0412603535  W2        15671           0.0000000000
     47012     15671  TIP3      H1             53.0655033595      -37.8937122861        3.5705203535  W2        15671           0.0000000000
     47013     15671  TIP3      H2             52.6950333595      -37.4192622861        4.9595903535  W2        15671           0.0000000000
     47014     15672  TIP3      OH2            52.3594733595      -37.2236122861        6.7904803535  W2        15672           0.0000000000
     47015     15672  TIP3      H1             51.4244533595      -37.1234222861        6.9691803535  W2        15672           0.0000000000
     47016     15672  TIP3      H2             52.6396633595      -37.9330122861        7.3688003535  W2        15672           0.0000000000
     47017     15673  TIP3      OH2            42.4970133595      -41.7724422861       16.8337103535  W2        15673           0.0000000000
     47018     15673  TIP3      H1             42.7131433595      -42.1338822861       17.6932903535  W2        15673           0.0000000000
     47019     15673  TIP3      H2             41.6414833595      -42.1470622861       16.6240603535  W2        15673           0.0000000000
     47020     15674  TIP3      OH2            45.1158133595      -53.3023922861       12.8291303535  W2        15674           0.0000000000
     47021     15674  TIP3      H1             44.2541833595      -53.3895722861       12.4214203535  W2        15674           0.0000000000
     47022     15674  TIP3      H2             45.0933833595      -52.4463822861       13.2568903535  W2        15674           0.0000000000
     47023     15675  TIP3      OH2            49.7785933595      -53.5803522861       16.2038303535  W2        15675           0.0000000000
     47024     15675  TIP3      H1             50.1989033595      -53.9956422861       16.9568903535  W2        15675           0.0000000000
     47025     15675  TIP3      H2             48.8455533595      -53.7590222861       16.3210303535  W2        15675           0.0000000000
     47026     15676  TIP3      OH2            53.1050833595      -49.8248322861       17.0572803535  W2        15676           0.0000000000
     47027     15676  TIP3      H1             52.5910333595      -49.9506122861       17.8548803535  W2        15676           0.0000000000
     47028     15676  TIP3      H2             52.9495533595      -48.9125222861       16.8129003535  W2        15676           0.0000000000
     47029     15677  TIP3      OH2            53.8675733595      -44.9638322861        2.8185803535  W2        15677           0.0000000000
     47030     15677  TIP3      H1             53.9096533595      -45.1864422861        1.8885803535  W2        15677           0.0000000000
     47031     15677  TIP3      H2             54.7167833595      -44.5651222861        3.0085703535  W2        15677           0.0000000000
     47032     15678  TIP3      OH2            49.4403233595      -51.0880122861        3.4889103535  W2        15678           0.0000000000
     47033     15678  TIP3      H1             49.1868033595      -51.0688522861        4.4117203535  W2        15678           0.0000000000
     47034     15678  TIP3      H2             49.1835333595      -51.9594722861        3.1875303535  W2        15678           0.0000000000
     47035     15679  TIP3      OH2            45.2068233595      -48.3369422861       13.9241503535  W2        15679           0.0000000000
     47036     15679  TIP3      H1             44.5650333595      -48.3772122861       14.6331603535  W2        15679           0.0000000000
     47037     15679  TIP3      H2             45.2440233595      -47.4104722861       13.6864503535  W2        15679           0.0000000000
     47038     15680  TIP3      OH2            45.2037333595      -48.1159322861        8.8361503535  W2        15680           0.0000000000
     47039     15680  TIP3      H1             44.3110233595      -48.4563222861        8.7775303535  W2        15680           0.0000000000
     47040     15680  TIP3      H2             45.6543933595      -48.4928422861        8.0804703535  W2        15680           0.0000000000
     47041     15681  TIP3      OH2            50.7392833595      -47.6999022861        7.6532303535  W2        15681           0.0000000000
     47042     15681  TIP3      H1             50.3303133595      -46.8850422861        7.3617103535  W2        15681           0.0000000000
     47043     15681  TIP3      H2             51.4599033595      -47.8398922861        7.0389403535  W2        15681           0.0000000000
     47044     15682  TIP3      OH2            49.8414433595      -47.5242622861       19.1413003535  W2        15682           0.0000000000
     47045     15682  TIP3      H1             49.2788233595      -48.2291022861       19.4620803535  W2        15682           0.0000000000
     47046     15682  TIP3      H2             50.6677833595      -47.6450722861       19.6090603535  W2        15682           0.0000000000
     47047     15683  TIP3      OH2            51.7440533595      -48.2538622861       10.4672003535  W2        15683           0.0000000000
     47048     15683  TIP3      H1             51.5485033595      -47.6481822861        9.7522603535  W2        15683           0.0000000000
     47049     15683  TIP3      H2             51.9253133595      -49.0873422861       10.0328303535  W2        15683           0.0000000000
     47050     15684  TIP3      OH2            42.9568733595      -48.0165922861       15.7913503535  W2        15684           0.0000000000
     47051     15684  TIP3      H1             42.9188133595      -47.6164322861       16.6600603535  W2        15684           0.0000000000
     47052     15684  TIP3      H2             42.4659833595      -48.8333522861       15.8816403535  W2        15684           0.0000000000
     47053     15685  TIP3      OH2            46.3226133595      -50.6423622861        2.5899503535  W2        15685           0.0000000000
     47054     15685  TIP3      H1             45.8916833595      -51.0873522861        3.3196903535  W2        15685           0.0000000000
     47055     15685  TIP3      H2             45.6044833595      -50.2707322861        2.0777003535  W2        15685           0.0000000000
     47056     15686  TIP3      OH2            39.5649533595      -50.9004122861        9.6418203535  W2        15686           0.0000000000
     47057     15686  TIP3      H1             40.1957233595      -50.9292022861       10.3612103535  W2        15686           0.0000000000
     47058     15686  TIP3      H2             40.0143833595      -51.3255422861        8.9114103535  W2        15686           0.0000000000
     47059     15687  TIP3      OH2            40.8391633595      -50.1542122861        5.0658603535  W2        15687           0.0000000000
     47060     15687  TIP3      H1             41.3133333595      -49.5632222861        4.4809503535  W2        15687           0.0000000000
     47061     15687  TIP3      H2             40.1218033595      -49.6239222861        5.4128703535  W2        15687           0.0000000000
     47062     15688  TIP3      OH2            51.0079733595      -46.6157322861       15.1384403535  W2        15688           0.0000000000
     47063     15688  TIP3      H1             51.3314533595      -47.2467622861       14.4954903535  W2        15688           0.0000000000
     47064     15688  TIP3      H2             50.5679033595      -47.1505122861       15.7991803535  W2        15688           0.0000000000
     47065     15689  TIP3      OH2            47.7852633595      -50.6881822861        9.9225603535  W2        15689           0.0000000000
     47066     15689  TIP3      H1             46.8743733595      -50.6315022861       10.2111603535  W2        15689           0.0000000000
     47067     15689  TIP3      H2             48.2905533595      -50.7486322861       10.7332803535  W2        15689           0.0000000000
     47068     15690  TIP3      OH2            42.6136033595      -49.0595522861        8.7493203535  W2        15690           0.0000000000
     47069     15690  TIP3      H1             41.7244033595      -48.9600022861        8.4092803535  W2        15690           0.0000000000
     47070     15690  TIP3      H2             42.9100933595      -49.9012522861        8.4031103535  W2        15690           0.0000000000
     47071     15691  TIP3      OH2            46.2667833595      -49.0592922861        6.4057803535  W2        15691           0.0000000000
     47072     15691  TIP3      H1             47.1983333595      -48.9302922861        6.5840903535  W2        15691           0.0000000000
     47073     15691  TIP3      H2             46.0518133595      -48.3898622861        5.7562503535  W2        15691           0.0000000000
     47074     15692  TIP3      OH2            52.1904533595      -51.4535522861       13.1867403535  W2        15692           0.0000000000
     47075     15692  TIP3      H1             51.5136133595      -51.3222422861       13.8507103535  W2        15692           0.0000000000
     47076     15692  TIP3      H2             51.7049433595      -51.6086022861       12.3765103535  W2        15692           0.0000000000
     47077     15693  TIP3      OH2            44.9408033595      -47.8650722861        3.9723903535  W2        15693           0.0000000000
     47078     15693  TIP3      H1             44.3983133595      -48.2446922861        3.2811503535  W2        15693           0.0000000000
     47079     15693  TIP3      H2             45.7742933595      -47.6706022861        3.5438003535  W2        15693           0.0000000000
     47080     15694  TIP3      OH2            43.0759433595      -43.3078822861       19.0715503535  W2        15694           0.0000000000
     47081     15694  TIP3      H1             43.8081833595      -43.0532922861       19.6330003535  W2        15694           0.0000000000
     47082     15694  TIP3      H2             42.2958133595      -43.1033422861       19.5870903535  W2        15694           0.0000000000
     47083     15695  TIP3      OH2            49.1052333595      -47.9008822861       11.8095203535  W2        15695           0.0000000000
     47084     15695  TIP3      H1             49.6695733595      -48.4472222861       11.2624803535  W2        15695           0.0000000000
     47085     15695  TIP3      H2             48.9575733595      -48.4226922861       12.5982803535  W2        15695           0.0000000000
     47086     15696  TIP3      OH2            44.1072033595      -51.7642722861        8.2280003535  W2        15696           0.0000000000
     47087     15696  TIP3      H1             43.7901533595      -52.6667422861        8.1925403535  W2        15696           0.0000000000
     47088     15696  TIP3      H2             44.8886133595      -51.7625322861        7.6751603535  W2        15696           0.0000000000
     47089     15697  TIP3      OH2            47.7318233595      -49.5122722861       14.2235603535  W2        15697           0.0000000000
     47090     15697  TIP3      H1             46.8963533595      -49.0583222861       14.3338003535  W2        15697           0.0000000000
     47091     15697  TIP3      H2             48.2558833595      -49.2364222861       14.9755503535  W2        15697           0.0000000000
     47092     15698  TIP3      OH2            48.2760833595      -43.2995022861        5.9082003535  W2        15698           0.0000000000
     47093     15698  TIP3      H1             47.5311833595      -43.8069722861        5.5859903535  W2        15698           0.0000000000
     47094     15698  TIP3      H2             48.1418033595      -43.2507022861        6.8546803535  W2        15698           0.0000000000
     47095     15699  TIP3      OH2            52.1737633595      -50.4855122861        4.1074603535  W2        15699           0.0000000000
     47096     15699  TIP3      H1             51.2351833595      -50.3739522861        3.9563403535  W2        15699           0.0000000000
     47097     15699  TIP3      H2             52.4709733595      -49.6288222861        4.4140303535  W2        15699           0.0000000000
     47098     15700  TIP3      OH2            49.7952933595      -43.1151722861       17.1451103535  W2        15700           0.0000000000
     47099     15700  TIP3      H1             49.4499033595      -43.4969322861       17.9520703535  W2        15700           0.0000000000
     47100     15700  TIP3      H2             49.5953033595      -42.1818122861       17.2164003535  W2        15700           0.0000000000
     47101     15701  TIP3      OH2            52.8921133595      -48.6182422861        5.7682003535  W2        15701           0.0000000000
     47102     15701  TIP3      H1             53.7840133595      -48.7557422861        6.0873203535  W2        15701           0.0000000000
     47103     15701  TIP3      H2             52.9484733595      -47.8276322861        5.2315503535  W2        15701           0.0000000000
     47104     15702  TIP3      OH2            43.4009133595      -44.0045022861       11.6779903535  W2        15702           0.0000000000
     47105     15702  TIP3      H1             44.1456333595      -44.0069322861       11.0766403535  W2        15702           0.0000000000
     47106     15702  TIP3      H2             43.4785733595      -44.8281222861       12.1595003535  W2        15702           0.0000000000
     47107     15703  TIP3      OH2            50.4014933595      -41.8410722861        4.9336603535  W2        15703           0.0000000000
     47108     15703  TIP3      H1             50.1063333595      -41.0142822861        5.3151403535  W2        15703           0.0000000000
     47109     15703  TIP3      H2             49.6984933595      -42.4603822861        5.1298003535  W2        15703           0.0000000000
     47110     15704  TIP3      OH2            40.4088833595      -45.5438122861       16.9928403535  W2        15704           0.0000000000
     47111     15704  TIP3      H1             40.6317433595      -45.9618522861       17.8245903535  W2        15704           0.0000000000
     47112     15704  TIP3      H2             39.8068933595      -46.1563122861       16.5701203535  W2        15704           0.0000000000
     47113     15705  TIP3      OH2            47.4253733595      -46.0268222861       19.2058103535  W2        15705           0.0000000000
     47114     15705  TIP3      H1             47.1294533595      -46.1925222861       18.3107203535  W2        15705           0.0000000000
     47115     15705  TIP3      H2             48.3568933595      -46.2467922861       19.1952003535  W2        15705           0.0000000000
     47116     15706  TIP3      OH2            52.0456533595      -40.6536222861       17.0956103535  W2        15706           0.0000000000
     47117     15706  TIP3      H1             51.1450833595      -40.4703622861       16.8280003535  W2        15706           0.0000000000
     47118     15706  TIP3      H2             52.0797633595      -40.3946922861       18.0164903535  W2        15706           0.0000000000
     47119     15707  TIP3      OH2            53.2325433595      -44.8148422861       12.9492703535  W2        15707           0.0000000000
     47120     15707  TIP3      H1             52.3042333595      -45.0466522861       12.9222003535  W2        15707           0.0000000000
     47121     15707  TIP3      H2             53.6836533595      -45.5918622861       12.6191503535  W2        15707           0.0000000000
     47122     15708  TIP3      OH2            45.7758533595      -40.4866822861        9.0821403535  W2        15708           0.0000000000
     47123     15708  TIP3      H1             46.3030733595      -39.7132422861        8.8820203535  W2        15708           0.0000000000
     47124     15708  TIP3      H2             44.8957033595      -40.2617622861        8.7805403535  W2        15708           0.0000000000
     47125     15709  TIP3      OH2            41.5306233595      -45.6242722861        3.6693803535  W2        15709           0.0000000000
     47126     15709  TIP3      H1             42.1466133595      -44.9975522861        4.0488603535  W2        15709           0.0000000000
     47127     15709  TIP3      H2             40.6688833595      -45.3082922861        3.9410303535  W2        15709           0.0000000000
     47128     15710  TIP3      OH2            47.2030833595      -42.8236922861        8.6585703535  W2        15710           0.0000000000
     47129     15710  TIP3      H1             46.9620833595      -41.8982522861        8.7001003535  W2        15710           0.0000000000
     47130     15710  TIP3      H2             46.4624433595      -43.2825622861        9.0549603535  W2        15710           0.0000000000
     47131     15711  TIP3      OH2            47.7177433595      -38.6743322861       14.9736803535  W2        15711           0.0000000000
     47132     15711  TIP3      H1             48.0802133595      -37.8197722861       14.7401203535  W2        15711           0.0000000000
     47133     15711  TIP3      H2             48.2492633595      -38.9661722861       15.7143103535  W2        15711           0.0000000000
     47134     15712  TIP3      OH2            45.8861633595      -37.8019322861        8.2037903535  W2        15712           0.0000000000
     47135     15712  TIP3      H1             44.9362133595      -37.6961922861        8.2551203535  W2        15712           0.0000000000
     47136     15712  TIP3      H2             46.2379733595      -36.9811922861        8.5485403535  W2        15712           0.0000000000
     47137     15713  TIP3      OH2            51.2618233595      -42.5752622861       14.6742403535  W2        15713           0.0000000000
     47138     15713  TIP3      H1             50.8359533595      -42.8030922861       15.5006403535  W2        15713           0.0000000000
     47139     15713  TIP3      H2             51.8424033595      -43.3140822861       14.4917703535  W2        15713           0.0000000000
     47140     15714  TIP3      OH2            53.4647133595      -41.6462122861        3.7481403535  W2        15714           0.0000000000
     47141     15714  TIP3      H1             53.8180233595      -42.0262322861        4.5524903535  W2        15714           0.0000000000
     47142     15714  TIP3      H2             52.5160633595      -41.7397322861        3.8350703535  W2        15714           0.0000000000
     47143     15715  TIP3      OH2            53.9202433595      -38.0233122861       17.1437203535  W2        15715           0.0000000000
     47144     15715  TIP3      H1             53.3185633595      -38.5790222861       16.6483503535  W2        15715           0.0000000000
     47145     15715  TIP3      H2             54.2016133595      -37.3563322861       16.5174603535  W2        15715           0.0000000000
     47146     15716  TIP3      OH2            42.0428333595      -50.7905422861       16.5509803535  W2        15716           0.0000000000
     47147     15716  TIP3      H1             41.1500633595      -50.4520022861       16.4833803535  W2        15716           0.0000000000
     47148     15716  TIP3      H2             41.9441133595      -51.6459322861       16.9690603535  W2        15716           0.0000000000
     47149     15717  TIP3      OH2            54.3306433595      -42.9740122861        5.9749303535  W2        15717           0.0000000000
     47150     15717  TIP3      H1             54.0534033595      -43.7020822861        6.5310403535  W2        15717           0.0000000000
     47151     15717  TIP3      H2             55.2579433595      -42.8548122861        6.1801903535  W2        15717           0.0000000000
     47152     15718  TIP3      OH2            41.6940333595      -38.9861022861       14.9859203535  W2        15718           0.0000000000
     47153     15718  TIP3      H1             41.9110633595      -39.9178622861       14.9548903535  W2        15718           0.0000000000
     47154     15718  TIP3      H2             41.9403833595      -38.7116022861       15.8692003535  W2        15718           0.0000000000
     47155     15719  TIP3      OH2            47.5554933595      -40.5346022861        2.1951403535  W2        15719           0.0000000000
     47156     15719  TIP3      H1             47.7944733595      -41.2827922861        1.6480303535  W2        15719           0.0000000000
     47157     15719  TIP3      H2             47.2866233595      -40.9224322861        3.0279203535  W2        15719           0.0000000000
     47158     15720  TIP3      OH2            46.4925533595      -40.9642222861        4.6514003535  W2        15720           0.0000000000
     47159     15720  TIP3      H1             46.6393533595      -41.4842422861        5.4414903535  W2        15720           0.0000000000
     47160     15720  TIP3      H2             46.4897233595      -40.0574622861        4.9579903535  W2        15720           0.0000000000
     47161     15721  TIP3      OH2            42.9456633595      -43.7118922861        5.1619403535  W2        15721           0.0000000000
     47162     15721  TIP3      H1             42.2595933595      -43.3596422861        5.7289103535  W2        15721           0.0000000000
     47163     15721  TIP3      H2             43.4684533595      -42.9489322861        4.9153703535  W2        15721           0.0000000000
     47164     15722  TIP3      OH2            50.7771733595      -51.0495122861       15.4408403535  W2        15722           0.0000000000
     47165     15722  TIP3      H1             51.4759633595      -50.9756422861       16.0908103535  W2        15722           0.0000000000
     47166     15722  TIP3      H2             50.3963133595      -51.9140122861       15.5951303535  W2        15722           0.0000000000
     47167     15723  TIP3      OH2            51.5616633595      -51.3973422861        6.5380703535  W2        15723           0.0000000000
     47168     15723  TIP3      H1             51.7814933595      -50.9258022861        5.7346103535  W2        15723           0.0000000000
     47169     15723  TIP3      H2             52.1200633595      -51.0030822861        7.2081303535  W2        15723           0.0000000000
     47170     15724  TIP3      OH2            49.2302733595      -39.2668622861        5.4008203535  W2        15724           0.0000000000
     47171     15724  TIP3      H1             48.4138833595      -38.7698922861        5.4532503535  W2        15724           0.0000000000
     47172     15724  TIP3      H2             49.7599033595      -38.7915122861        4.7607003535  W2        15724           0.0000000000
     47173     15725  TIP3      OH2            48.7616533595      -49.6694622861        7.3729103535  W2        15725           0.0000000000
     47174     15725  TIP3      H1             49.5739133595      -49.1651422861        7.4190803535  W2        15725           0.0000000000
     47175     15725  TIP3      H2             48.5169533595      -49.8144922861        8.2868703535  W2        15725           0.0000000000
     47176     15726  TIP3      OH2            49.2972933595      -48.6831922861       16.5575703535  W2        15726           0.0000000000
     47177     15726  TIP3      H1             49.4163233595      -48.1096522861       17.3146103535  W2        15726           0.0000000000
     47178     15726  TIP3      H2             49.9527533595      -49.3712522861       16.6723503535  W2        15726           0.0000000000
     47179     15727  TIP3      OH2            49.6453233595      -52.5881622861        8.3110203535  W2        15727           0.0000000000
     47180     15727  TIP3      H1             49.2986733595      -51.9711022861        8.9554503535  W2        15727           0.0000000000
     47181     15727  TIP3      H2             50.3040133595      -52.0875922861        7.8295703535  W2        15727           0.0000000000
     47182     15728  TIP3      OH2            46.5685833595      -38.2231422861        5.3825103535  W2        15728           0.0000000000
     47183     15728  TIP3      H1             46.7294533595      -37.4233922861        4.8817703535  W2        15728           0.0000000000
     47184     15728  TIP3      H2             46.3713633595      -37.9165422861        6.2675703535  W2        15728           0.0000000000
     47185     15729  TIP3      OH2            45.3030233595      -51.5252222861        4.9982703535  W2        15729           0.0000000000
     47186     15729  TIP3      H1             45.2195033595      -50.6369122861        5.3449103535  W2        15729           0.0000000000
     47187     15729  TIP3      H2             46.1930533595      -51.7905522861        5.2299503535  W2        15729           0.0000000000
     47188     15730  TIP3      OH2            54.1039733595      -47.0260622861       11.4882703535  W2        15730           0.0000000000
     47189     15730  TIP3      H1             53.3064133595      -47.4410422861       11.1597703535  W2        15730           0.0000000000
     47190     15730  TIP3      H2             54.5490833595      -47.7166922861       11.9793203535  W2        15730           0.0000000000
     47191     15731  TIP3      OH2            43.5615533595      -41.0980022861        4.0587203535  W2        15731           0.0000000000
     47192     15731  TIP3      H1             44.1537033595      -40.3985222861        4.3349603535  W2        15731           0.0000000000
     47193     15731  TIP3      H2             44.0208533595      -41.5310522861        3.3391803535  W2        15731           0.0000000000
     47194     15732  TIP3      OH2            41.8774733595      -48.4337022861        3.1746603535  W2        15732           0.0000000000
     47195     15732  TIP3      H1             41.8327333595      -47.4943922861        3.3533603535  W2        15732           0.0000000000
     47196     15732  TIP3      H2             40.9897933595      -48.6692122861        2.9048703535  W2        15732           0.0000000000
     47197     15733  TIP3      OH2            42.6856733595      -53.6520422861       11.8477603535  W2        15733           0.0000000000
     47198     15733  TIP3      H1             42.4566533595      -53.5927922861       10.9202603535  W2        15733           0.0000000000
     47199     15733  TIP3      H2             42.2430133595      -54.4434922861       12.1541703535  W2        15733           0.0000000000
     47200     15734  TIP3      OH2            41.6160033595      -39.7113322861        8.0083403535  W2        15734           0.0000000000
     47201     15734  TIP3      H1             40.7838633595      -39.2390622861        8.0354803535  W2        15734           0.0000000000
     47202     15734  TIP3      H2             42.1618333595      -39.2015722861        7.4096503535  W2        15734           0.0000000000
     47203     15735  TIP3      OH2            40.9043733595      -37.0989622861       19.3381403535  W2        15735           0.0000000000
     47204     15735  TIP3      H1             41.4445933595      -37.3155622861       20.0980603535  W2        15735           0.0000000000
     47205     15735  TIP3      H2             40.4231733595      -37.9043622861       19.1483903535  W2        15735           0.0000000000
     47206     15736  TIP3      OH2            45.5017133595      -38.1795222861       20.9585603535  W2        15736           0.0000000000
     47207     15736  TIP3      H1             46.2694333595      -38.6384422861       21.2994803535  W2        15736           0.0000000000
     47208     15736  TIP3      H2             45.4803333595      -38.4055422861       20.0286803535  W2        15736           0.0000000000
     47209     15737  TIP3      OH2            49.5936733595      -38.6714622861        2.3337403535  W2        15737           0.0000000000
     47210     15737  TIP3      H1             48.9497733595      -39.3026022861        2.6551103535  W2        15737           0.0000000000
     47211     15737  TIP3      H2             50.3555033595      -39.2026622861        2.1020903535  W2        15737           0.0000000000
     47212     15738  TIP3      OH2            52.0785833595      -39.7994122861       19.6877103535  W2        15738           0.0000000000
     47213     15738  TIP3      H1             51.7275333595      -40.6561122861       19.9307503535  W2        15738           0.0000000000
     47214     15738  TIP3      H2             52.8049033595      -39.6567422861       20.2946103535  W2        15738           0.0000000000
     47215     15739  TIP3      OH2            54.1979633595      -38.8544722861        2.5675403535  W2        15739           0.0000000000
     47216     15739  TIP3      H1             54.4810033595      -39.6489522861        3.0202303535  W2        15739           0.0000000000
     47217     15739  TIP3      H2             54.9377533595      -38.6213722861        2.0066503535  W2        15739           0.0000000000
     47218     15740  TIP3      OH2            40.8113233595      -43.2885522861       20.2925703535  W2        15740           0.0000000000
     47219     15740  TIP3      H1             40.9553733595      -44.1904822861       20.0062403535  W2        15740           0.0000000000
     47220     15740  TIP3      H2             40.0390633595      -43.0023422861       19.8048003535  W2        15740           0.0000000000
     47221     15741  TIP3      OH2            45.1526933595      -42.9449822861        2.4250303535  W2        15741           0.0000000000
     47222     15741  TIP3      H1             45.2171033595      -43.7390222861        2.9556703535  W2        15741           0.0000000000
     47223     15741  TIP3      H2             45.8056133595      -43.0637022861        1.7352303535  W2        15741           0.0000000000
     47224     15742  TIP3      OH2            47.4669333595      -43.3187422861       19.7252103535  W2        15742           0.0000000000
     47225     15742  TIP3      H1             47.1383133595      -43.0479322861       18.8679503535  W2        15742           0.0000000000
     47226     15742  TIP3      H2             47.6187533595      -44.2597622861       19.6377103535  W2        15742           0.0000000000
     47227     15743  TIP3      OH2            50.5050333595      -41.8978122861        2.1608303535  W2        15743           0.0000000000
     47228     15743  TIP3      H1             50.2364433595      -41.7176022861        3.0617203535  W2        15743           0.0000000000
     47229     15743  TIP3      H2             50.2985933595      -42.8231922861        2.0294103535  W2        15743           0.0000000000
     47230     15744  TIP3      OH2            53.2014533595      -43.4030122861       17.1084403535  W2        15744           0.0000000000
     47231     15744  TIP3      H1             53.9469333595      -42.8146422861       16.9888403535  W2        15744           0.0000000000
     47232     15744  TIP3      H2             52.4441333595      -42.8210422861       17.1717503535  W2        15744           0.0000000000
     47233     15745  TIP3      OH2            41.6439733595      -46.0882222861       19.7125003535  W2        15745           0.0000000000
     47234     15745  TIP3      H1             42.0520933595      -46.9455622861       19.5915603535  W2        15745           0.0000000000
     47235     15745  TIP3      H2             41.3837333595      -46.0740922861       20.6335303535  W2        15745           0.0000000000
     47236     15746  TIP3      OH2            46.3020733595      -44.9723622861        4.7308303535  W2        15746           0.0000000000
     47237     15746  TIP3      H1             45.8422733595      -45.4565322861        5.4166803535  W2        15746           0.0000000000
     47238     15746  TIP3      H2             46.5569433595      -45.6408222861        4.0948803535  W2        15746           0.0000000000
     47239     15747  TIP3      OH2            45.5910033595      -47.0796522861       17.0867903535  W2        15747           0.0000000000
     47240     15747  TIP3      H1             44.9726133595      -46.4049922861       17.3672603535  W2        15747           0.0000000000
     47241     15747  TIP3      H2             45.9351233595      -46.7582622861       16.2534103535  W2        15747           0.0000000000
     47242     15748  TIP3      OH2            47.3731133595      -46.7291822861        2.9931503535  W2        15748           0.0000000000
     47243     15748  TIP3      H1             47.1926133595      -46.8840622861        2.0659803535  W2        15748           0.0000000000
     47244     15748  TIP3      H2             48.3231633595      -46.6213122861        3.0379403535  W2        15748           0.0000000000
     47245     15749  TIP3      OH2            50.6108233595      -44.6081222861       20.3642703535  W2        15749           0.0000000000
     47246     15749  TIP3      H1             51.5639433595      -44.5242122861       20.3368703535  W2        15749           0.0000000000
     47247     15749  TIP3      H2             50.4502833595      -45.3199422861       20.9837603535  W2        15749           0.0000000000
     47248     15750  TIP3      OH2            45.9303733595      -49.7245722861       18.1691003535  W2        15750           0.0000000000
     47249     15750  TIP3      H1             46.0804633595      -50.4534422861       17.5670703535  W2        15750           0.0000000000
     47250     15750  TIP3      H2             45.9326133595      -48.9474022861       17.6103203535  W2        15750           0.0000000000
     47251     15751  TIP3      OH2            46.3429433595      -51.3549922861       15.6618403535  W2        15751           0.0000000000
     47252     15751  TIP3      H1             46.8786933595      -50.9033222861       15.0097703535  W2        15751           0.0000000000
     47253     15751  TIP3      H2             45.4909033595      -51.4630122861       15.2392503535  W2        15751           0.0000000000
     47254     15752  TIP3      OH2            47.9247833595      -45.9153722861       15.9013603535  W2        15752           0.0000000000
     47255     15752  TIP3      H1             48.6752633595      -46.0716222861       15.3281403535  W2        15752           0.0000000000
     47256     15752  TIP3      H2             47.5856133595      -45.0637122861       15.6259103535  W2        15752           0.0000000000
     47257     15753  TIP3      OH2            52.3404033595      -48.1001922861       20.9298903535  W2        15753           0.0000000000
     47258     15753  TIP3      H1             52.5325333595      -49.0312522861       20.8183403535  W2        15753           0.0000000000
     47259     15753  TIP3      H2             53.1980333595      -47.6752422861       20.9194303535  W2        15753           0.0000000000
     47260     15754  TIP3      OH2            53.6571233595      -45.3116722861       19.0071603535  W2        15754           0.0000000000
     47261     15754  TIP3      H1             53.3756233595      -44.6022122861       18.4295403535  W2        15754           0.0000000000
     47262     15754  TIP3      H2             54.5995533595      -45.3843722861       18.8562803535  W2        15754           0.0000000000
     47263     15755  TIP3      OH2            44.4090033595      -48.5262222861       20.0806603535  W2        15755           0.0000000000
     47264     15755  TIP3      H1             43.6419033595      -49.0587422861       19.8704203535  W2        15755           0.0000000000
     47265     15755  TIP3      H2             45.0879033595      -48.8361822861       19.4812903535  W2        15755           0.0000000000
     47266     15756  TIP3      OH2            47.1484933595      -53.8984222861       16.0932003535  W2        15756           0.0000000000
     47267     15756  TIP3      H1             47.0504533595      -52.9521022861       15.9878203535  W2        15756           0.0000000000
     47268     15756  TIP3      H2             46.4061133595      -54.2710422861       15.6175503535  W2        15756           0.0000000000
     47269     15757  TIP3      OH2            48.4125433595      -49.5768822861       19.6570403535  W2        15757           0.0000000000
     47270     15757  TIP3      H1             48.1770833595      -49.7962122861       20.5585303535  W2        15757           0.0000000000
     47271     15757  TIP3      H2             47.6292333595      -49.7837622861       19.1472903535  W2        15757           0.0000000000
     47272     15758  TIP3      OH2            51.1282033595      -50.4495322861       18.7323903535  W2        15758           0.0000000000
     47273     15758  TIP3      H1             50.1807433595      -50.4175622861       18.8647203535  W2        15758           0.0000000000
     47274     15758  TIP3      H2             51.4408733595      -51.0748222861       19.3862103535  W2        15758           0.0000000000
     47275     15759  TIP3      OH2            52.7623533595      -51.8154222861       20.7375803535  W2        15759           0.0000000000
     47276     15759  TIP3      H1             52.6655333595      -52.7676922861       20.7317703535  W2        15759           0.0000000000
     47277     15759  TIP3      H2             52.4406633595      -51.5467422861       21.5981303535  W2        15759           0.0000000000
     47278     15760  TIP3      OH2            42.5892833595      -50.6058422861       19.7851303535  W2        15760           0.0000000000
     47279     15760  TIP3      H1             42.8010233595      -51.3122322861       19.1748803535  W2        15760           0.0000000000
     47280     15760  TIP3      H2             42.4780333595      -51.0432422861       20.6292503535  W2        15760           0.0000000000
     47281     15761  TIP3      OH2            47.3703033595      -54.6046822861       18.7644803535  W2        15761           0.0000000000
     47282     15761  TIP3      H1             48.0821433595      -55.2444622861       18.7503903535  W2        15761           0.0000000000
     47283     15761  TIP3      H2             47.2693433595      -54.3378522861       17.8507903535  W2        15761           0.0000000000
     47284     15762  TIP3      OH2            47.7240533595      -52.9218422861       20.8181103535  W2        15762           0.0000000000
     47285     15762  TIP3      H1             47.5922733595      -53.3974622861       19.9979603535  W2        15762           0.0000000000
     47286     15762  TIP3      H2             47.1247933595      -52.1774822861       20.7628203535  W2        15762           0.0000000000
     47287     15763  TIP3      OH2            47.2702833595      -36.0388122861        3.9945103535  W2        15763           0.0000000000
     47288     15763  TIP3      H1             48.2033533595      -35.8809422861        4.1383503535  W2        15763           0.0000000000
     47289     15763  TIP3      H2             47.0061633595      -35.3635122861        3.3696603535  W2        15763           0.0000000000
     47290     15764  TIP3      OH2            40.8387733595      -41.4024322861        3.4773203535  W2        15764           0.0000000000
     47291     15764  TIP3      H1             41.7526933595      -41.3235422861        3.7507103535  W2        15764           0.0000000000
     47292     15764  TIP3      H2             40.8460833595      -42.0894722861        2.8108803535  W2        15764           0.0000000000
     47293     15765  TIP3      OH2            39.4878333595      -36.0095822861        8.5547103535  W2        15765           0.0000000000
     47294     15765  TIP3      H1             38.8405433595      -36.4714122861        8.0218303535  W2        15765           0.0000000000
     47295     15765  TIP3      H2             39.8422933595      -36.6812522861        9.1373303535  W2        15765           0.0000000000
     47296     15766  TIP3      OH2            40.3577533595      -37.9288822861       10.3593303535  W2        15766           0.0000000000
     47297     15766  TIP3      H1             40.0234333595      -38.8091522861       10.5313503535  W2        15766           0.0000000000
     47298     15766  TIP3      H2             40.5799933595      -37.5833822861       11.2238903535  W2        15766           0.0000000000
     47299     15767  TIP3      OH2            40.4377033595      -44.8533422861       12.8108203535  W2        15767           0.0000000000
     47300     15767  TIP3      H1             40.6219933595      -44.9351722861       11.8751103535  W2        15767           0.0000000000
     47301     15767  TIP3      H2             41.2869933595      -44.9776422861       13.2344603535  W2        15767           0.0000000000
     47302     15768  TIP3      OH2            40.0351833595      -49.5828422861       18.9517003535  W2        15768           0.0000000000
     47303     15768  TIP3      H1             40.9546733595      -49.7050122861       19.1880103535  W2        15768           0.0000000000
     47304     15768  TIP3      H2             39.5856333595      -50.3328722861       19.3410503535  W2        15768           0.0000000000
     47305     15769  TIP3      OH2            41.2564333595      -51.2706822861       11.8429903535  W2        15769           0.0000000000
     47306     15769  TIP3      H1             41.7015933595      -52.0624322861       12.1449603535  W2        15769           0.0000000000
     47307     15769  TIP3      H2             41.7227333595      -50.5541622861       12.2735503535  W2        15769           0.0000000000
     47308     15770  TIP3      OH2            39.5604633595      -48.2713822861       12.9120103535  W2        15770           0.0000000000
     47309     15770  TIP3      H1             40.0524433595      -48.4923322861       12.1212103535  W2        15770           0.0000000000
     47310     15770  TIP3      H2             39.9225533595      -47.4310422861       13.1929603535  W2        15770           0.0000000000
     47311     15771  TIP3      OH2            39.8741133595      -52.0134722861        6.9662503535  W2        15771           0.0000000000
     47312     15771  TIP3      H1             38.9489533595      -51.8048122861        6.8368003535  W2        15771           0.0000000000
     47313     15771  TIP3      H2             40.3281033595      -51.5293922861        6.2764803535  W2        15771           0.0000000000
     47314     15772  TIP3      OH2            54.6448333595      -37.0293022861        8.9119903535  W2        15772           0.0000000000
     47315     15772  TIP3      H1             55.2971233595      -37.3770922861        8.3039003535  W2        15772           0.0000000000
     47316     15772  TIP3      H2             55.1552133595      -36.5409822861        9.5579603535  W2        15772           0.0000000000
     47317     15773  TIP3      OH2            39.8376533595      -53.2755722861       15.3105003535  W2        15773           0.0000000000
     47318     15773  TIP3      H1             39.1727033595      -53.5215422861       15.9535903535  W2        15773           0.0000000000
     47319     15773  TIP3      H2             39.3947833595      -52.6535322861       14.7333003535  W2        15773           0.0000000000
     47320     15774  TIP3      OH2            42.0295833595      -40.1001622861       19.4550803535  W2        15774           0.0000000000
     47321     15774  TIP3      H1             41.2088333595      -39.9255122861       18.9945503535  W2        15774           0.0000000000
     47322     15774  TIP3      H2             41.7773633595      -40.1736922861       20.3755203535  W2        15774           0.0000000000
     47323     15775  TIP3      OH2            44.9838733595      -39.1260422861       15.7134803535  W2        15775           0.0000000000
     47324     15775  TIP3      H1             44.5589833595      -38.3161922861       15.4309403535  W2        15775           0.0000000000
     47325     15775  TIP3      H2             45.8881533595      -39.0406322861       15.4114603535  W2        15775           0.0000000000
     47326     15776  TIP3      OH2            49.2950133595      -37.7270422861       18.6728503535  W2        15776           0.0000000000
     47327     15776  TIP3      H1             49.4797633595      -38.0604322861       19.5508803535  W2        15776           0.0000000000
     47328     15776  TIP3      H2             50.1414633595      -37.4171822861       18.3507703535  W2        15776           0.0000000000
     47329     15777  TIP3      OH2            51.6400533595      -36.4411522861       17.9169903535  W2        15777           0.0000000000
     47330     15777  TIP3      H1             52.3169433595      -37.0739222861       17.6769103535  W2        15777           0.0000000000
     47331     15777  TIP3      H2             51.9619333595      -36.0401022861       18.7243203535  W2        15777           0.0000000000
     47332     15778  TIP3      OH2            42.3855433595      -35.8696522861       15.7610103535  W2        15778           0.0000000000
     47333     15778  TIP3      H1             41.6651833595      -35.4295522861       15.3097803535  W2        15778           0.0000000000
     47334     15778  TIP3      H2             42.0199433595      -36.1201822861       16.6094103535  W2        15778           0.0000000000
     47335     15779  TIP3      OH2            44.8528033595      -36.2692622861       14.7907303535  W2        15779           0.0000000000
     47336     15779  TIP3      H1             43.9880233595      -36.1974122861       15.1947403535  W2        15779           0.0000000000
     47337     15779  TIP3      H2             44.7977033595      -35.7225322861       14.0069803535  W2        15779           0.0000000000
     47338     15780  TIP3      OH2            49.5633633595      -36.3813722861       13.9663303535  W2        15780           0.0000000000
     47339     15780  TIP3      H1             49.1067633595      -35.8524022861       13.3121703535  W2        15780           0.0000000000
     47340     15780  TIP3      H2             49.7261633595      -35.7782322861       14.6915603535  W2        15780           0.0000000000
     47341     15781  TIP3      OH2            51.8909933595      -37.5034122861       14.9113603535  W2        15781           0.0000000000
     47342     15781  TIP3      H1             50.9863633595      -37.3383922861       14.6455703535  W2        15781           0.0000000000
     47343     15781  TIP3      H2             52.3198533595      -36.6501922861       14.8457003535  W2        15781           0.0000000000
     47344     15782  TIP3      OH2            54.4951833595      -35.9335022861       15.2061403535  W2        15782           0.0000000000
     47345     15782  TIP3      H1             54.3133833595      -35.0176122861       14.9956303535  W2        15782           0.0000000000
     47346     15782  TIP3      H2             54.6719633595      -36.3437922861       14.3596003535  W2        15782           0.0000000000
     47347     15783  TIP3      OH2            41.8003533595      -37.2464022861       12.6711903535  W2        15783           0.0000000000
     47348     15783  TIP3      H1             41.7819533595      -37.6718922861       13.5284203535  W2        15783           0.0000000000
     47349     15783  TIP3      H2             42.6051433595      -37.5649022861       12.2624103535  W2        15783           0.0000000000
     47350     15784  TIP3      OH2            43.9416633595      -38.5365322861       11.3261803535  W2        15784           0.0000000000
     47351     15784  TIP3      H1             43.7227333595      -39.4527922861       11.4957803535  W2        15784           0.0000000000
     47352     15784  TIP3      H2             44.7658833595      -38.3964922861       11.7923203535  W2        15784           0.0000000000
     47353     15785  TIP3      OH2            46.4789133595      -38.0666022861       12.1749803535  W2        15785           0.0000000000
     47354     15785  TIP3      H1             46.6914833595      -38.9547022861       11.8880703535  W2        15785           0.0000000000
     47355     15785  TIP3      H2             46.5434233595      -38.1008322861       13.1293803535  W2        15785           0.0000000000
     47356     15786  TIP3      OH2            49.9872833595      -52.4025422861       11.3193103535  W2        15786           0.0000000000
     47357     15786  TIP3      H1             49.3129633595      -53.0319822861       11.5748903535  W2        15786           0.0000000000
     47358     15786  TIP3      H2             50.5512033595      -52.8866522861       10.7161003535  W2        15786           0.0000000000
     47359     15787  TIP3      OH2            42.3140333595      -53.7685122861        9.1413003535  W2        15787           0.0000000000
     47360     15787  TIP3      H1             41.5370133595      -54.0030222861        8.6338903535  W2        15787           0.0000000000
     47361     15787  TIP3      H2             42.8443933595      -54.5653022861        9.1501003535  W2        15787           0.0000000000
     47362     15788  TIP3      OH2            41.1503733595      -53.9707022861        4.9449103535  W2        15788           0.0000000000
     47363     15788  TIP3      H1             41.5894433595      -53.3596522861        4.3532603535  W2        15788           0.0000000000
     47364     15788  TIP3      H2             40.5166133595      -53.4322922861        5.4189103535  W2        15788           0.0000000000
     47365     15789  TIP3      OH2            46.8932933595      -53.8418022861        8.9546103535  W2        15789           0.0000000000
     47366     15789  TIP3      H1             47.7676333595      -53.4533722861        8.9250403535  W2        15789           0.0000000000
     47367     15789  TIP3      H2             46.7573733595      -54.0570222861        9.8773303535  W2        15789           0.0000000000
     47368     15790  TIP3      OH2            52.4501333595      -53.8118222861       10.6037803535  W2        15790           0.0000000000
     47369     15790  TIP3      H1             52.5262933595      -53.7166622861        9.6543803535  W2        15790           0.0000000000
     47370     15790  TIP3      H2             52.1750533595      -54.7195322861       10.7326903535  W2        15790           0.0000000000
     47371     15791  TIP3      OH2            53.8033933595      -53.7860422861        6.2962803535  W2        15791           0.0000000000
     47372     15791  TIP3      H1             53.1005033595      -53.1711222861        6.0864203535  W2        15791           0.0000000000
     47373     15791  TIP3      H2             53.3585333595      -54.6233722861        6.4273703535  W2        15791           0.0000000000
     47374     15792  TIP3      OH2            41.0513233595      -38.0224822861        5.8424203535  W2        15792           0.0000000000
     47375     15792  TIP3      H1             40.3663133595      -38.0605922861        5.1749303535  W2        15792           0.0000000000
     47376     15792  TIP3      H2             41.0550433595      -37.1097222861        6.1306303535  W2        15792           0.0000000000
     47377     15793  TIP3      OH2            43.0112833595      -52.0545522861        3.3873203535  W2        15793           0.0000000000
     47378     15793  TIP3      H1             43.5026233595      -52.6843122861        2.8598703535  W2        15793           0.0000000000
     47379     15793  TIP3      H2             43.6349133595      -51.7586122861        4.0504403535  W2        15793           0.0000000000
     47380     15794  TIP3      OH2            48.0372933595      -51.7614022861        5.8443703535  W2        15794           0.0000000000
     47381     15794  TIP3      H1             48.2154233595      -52.4080822861        6.5272303535  W2        15794           0.0000000000
     47382     15794  TIP3      H2             47.9839133595      -50.9276322861        6.3114803535  W2        15794           0.0000000000
     47383     15795  TIP3      OH2            49.9156733595      -36.8129922861        4.2400403535  W2        15795           0.0000000000
     47384     15795  TIP3      H1             50.7816933595      -36.4462522861        4.0618603535  W2        15795           0.0000000000
     47385     15795  TIP3      H2             49.6689533595      -37.2521922861        3.4261203535  W2        15795           0.0000000000
     47386     15796  TIP3      OH2            42.2718333595      -53.2543222861       18.6589203535  W2        15796           0.0000000000
     47387     15796  TIP3      H1             41.9056533595      -54.0200622861       19.1013903535  W2        15796           0.0000000000
     47388     15796  TIP3      H2             43.1846833595      -53.2253022861       18.9454303535  W2        15796           0.0000000000
     47389     15797  TIP3      OH2            44.2449133595      -53.9038822861       20.1946303535  W2        15797           0.0000000000
     47390     15797  TIP3      H1             45.1432733595      -54.1778622861       20.0099703535  W2        15797           0.0000000000
     47391     15797  TIP3      H2             43.8582233595      -54.6462822861       20.6588903535  W2        15797           0.0000000000
     47392     15798  TIP3      OH2            42.8694433595      -37.1024022861        2.8676303535  W2        15798           0.0000000000
     47393     15798  TIP3      H1             42.6019033595      -36.8161122861        3.7409403535  W2        15798           0.0000000000
     47394     15798  TIP3      H2             43.6407033595      -37.6484822861        3.0198803535  W2        15798           0.0000000000
     47395     15799  TIP3      OH2            52.6661433595      -54.5713522861       20.3769103535  W2        15799           0.0000000000
     47396     15799  TIP3      H1             52.7428633595      -54.9972822861       21.2306803535  W2        15799           0.0000000000
     47397     15799  TIP3      H2             53.5598033595      -54.5578822861       20.0342603535  W2        15799           0.0000000000
     47398     15800  TIP3      OH2           -42.8877066405      -25.7562822861        9.1000503535  W2        15800           0.0000000000
     47399     15800  TIP3      H1            -42.7985966405      -24.8124622861        8.9677603535  W2        15800           0.0000000000
     47400     15800  TIP3      H2            -43.5259466405      -26.0316422861        8.4419903535  W2        15800           0.0000000000
     47401     15801  TIP3      OH2           -43.9545766405      -26.5012122861       12.5188703535  W2        15801           0.0000000000
     47402     15801  TIP3      H1            -43.9928266405      -27.1475822861       13.2238303535  W2        15801           0.0000000000
     47403     15801  TIP3      H2            -44.2769266405      -26.9677722861       11.7477403535  W2        15801           0.0000000000
     47404     15802  TIP3      OH2           -51.5860766405      -26.8870022861       14.1118603535  W2        15802           0.0000000000
     47405     15802  TIP3      H1            -51.5448666405      -27.5126722861       14.8351003535  W2        15802           0.0000000000
     47406     15802  TIP3      H2            -50.8833066405      -26.2631422861       14.2939003535  W2        15802           0.0000000000
     47407     15803  TIP3      OH2           -40.2485566405      -23.5621722861       10.8203803535  W2        15803           0.0000000000
     47408     15803  TIP3      H1            -40.6892866405      -24.2825722861       11.2709403535  W2        15803           0.0000000000
     47409     15803  TIP3      H2            -40.2615866405      -22.8414522861       11.4501503535  W2        15803           0.0000000000
     47410     15804  TIP3      OH2           -50.6627666405      -22.4371122861       12.6467703535  W2        15804           0.0000000000
     47411     15804  TIP3      H1            -51.0322466405      -23.2390622861       12.2772003535  W2        15804           0.0000000000
     47412     15804  TIP3      H2            -49.7216566405      -22.6056222861       12.6931103535  W2        15804           0.0000000000
     47413     15805  TIP3      OH2           -54.0527166405      -28.7768522861        8.0396503535  W2        15805           0.0000000000
     47414     15805  TIP3      H1            -54.5003766405      -27.9309822861        8.0213003535  W2        15805           0.0000000000
     47415     15805  TIP3      H2            -54.6135966405      -29.3564322861        7.5241603535  W2        15805           0.0000000000
     47416     15806  TIP3      OH2           -53.3421066405      -26.6148922861       10.1654503535  W2        15806           0.0000000000
     47417     15806  TIP3      H1            -53.1287566405      -27.3847322861       10.6927503535  W2        15806           0.0000000000
     47418     15806  TIP3      H2            -52.6043466405      -26.5252222861        9.5622103535  W2        15806           0.0000000000
     47419     15807  TIP3      OH2           -43.1370066405      -18.4580022861       11.0324203535  W2        15807           0.0000000000
     47420     15807  TIP3      H1            -42.5173666405      -19.1345322861       10.7593403535  W2        15807           0.0000000000
     47421     15807  TIP3      H2            -43.3452666405      -18.6759222861       11.9409103535  W2        15807           0.0000000000
     47422     15808  TIP3      OH2           -45.5651366405      -24.0690722861       12.9249703535  W2        15808           0.0000000000
     47423     15808  TIP3      H1            -45.2613466405      -24.7549322861       12.3303803535  W2        15808           0.0000000000
     47424     15808  TIP3      H2            -44.8437366405      -23.9502022861       13.5427703535  W2        15808           0.0000000000
     47425     15809  TIP3      OH2           -36.9021566405      -32.4675422861       13.7855903535  W2        15809           0.0000000000
     47426     15809  TIP3      H1            -36.8529366405      -31.8574222861       14.5215003535  W2        15809           0.0000000000
     47427     15809  TIP3      H2            -36.4766466405      -32.0064522861       13.0627003535  W2        15809           0.0000000000
     47428     15810  TIP3      OH2           -42.4244366405      -29.6748322861       13.2524503535  W2        15810           0.0000000000
     47429     15810  TIP3      H1            -42.2818466405      -30.6211322861       13.2726103535  W2        15810           0.0000000000
     47430     15810  TIP3      H2            -42.5305366405      -29.4678522861       12.3239403535  W2        15810           0.0000000000
     47431     15811  TIP3      OH2           -49.2696066405      -31.5731922861       10.5249303535  W2        15811           0.0000000000
     47432     15811  TIP3      H1            -49.2264966405      -30.7133422861       10.1065603535  W2        15811           0.0000000000
     47433     15811  TIP3      H2            -49.7271966405      -32.1257222861        9.8912503535  W2        15811           0.0000000000
     47434     15812  TIP3      OH2           -41.5473366405      -31.4426322861        8.9257603535  W2        15812           0.0000000000
     47435     15812  TIP3      H1            -40.9009066405      -31.7713122861        9.5505203535  W2        15812           0.0000000000
     47436     15812  TIP3      H2            -41.0373966405      -30.9247322861        8.3029003535  W2        15812           0.0000000000
     47437     15813  TIP3      OH2           -52.6494566405      -29.1766122861       11.2870703535  W2        15813           0.0000000000
     47438     15813  TIP3      H1            -51.9957966405      -29.7264422861       11.7190803535  W2        15813           0.0000000000
     47439     15813  TIP3      H2            -52.6255266405      -29.4507122861       10.3702703535  W2        15813           0.0000000000
     47440     15814  TIP3      OH2           -47.4930066405      -27.6264822861       10.5022203535  W2        15814           0.0000000000
     47441     15814  TIP3      H1            -46.8769066405      -28.1529422861       11.0116203535  W2        15814           0.0000000000
     47442     15814  TIP3      H2            -48.0791266405      -28.2666122861       10.0985803535  W2        15814           0.0000000000
     47443     15815  TIP3      OH2           -36.5106966405      -30.9896222861       16.0215703535  W2        15815           0.0000000000
     47444     15815  TIP3      H1            -37.1992366405      -30.3315522861       15.9262303535  W2        15815           0.0000000000
     47445     15815  TIP3      H2            -36.4952366405      -31.1868322861       16.9581103535  W2        15815           0.0000000000
     47446     15816  TIP3      OH2           -50.4594166405      -32.6553522861       14.5990103535  W2        15816           0.0000000000
     47447     15816  TIP3      H1            -50.6782466405      -32.1252922861       13.8326103535  W2        15816           0.0000000000
     47448     15816  TIP3      H2            -51.1273266405      -32.4288022861       15.2461503535  W2        15816           0.0000000000
     47449     15817  TIP3      OH2           -43.0904366405      -23.1552422861        8.1429203535  W2        15817           0.0000000000
     47450     15817  TIP3      H1            -43.3859266405      -23.4780122861        7.2916103535  W2        15817           0.0000000000
     47451     15817  TIP3      H2            -43.4146566405      -22.2555722861        8.1841803535  W2        15817           0.0000000000
     47452     15818  TIP3      OH2           -47.8902766405      -24.9797822861       14.8863803535  W2        15818           0.0000000000
     47453     15818  TIP3      H1            -48.6303666405      -24.3816322861       14.9899003535  W2        15818           0.0000000000
     47454     15818  TIP3      H2            -47.1763266405      -24.4258222861       14.5707403535  W2        15818           0.0000000000
     47455     15819  TIP3      OH2           -39.7834966405      -32.1517022861       10.9063503535  W2        15819           0.0000000000
     47456     15819  TIP3      H1            -39.9986966405      -32.9173622861       11.4389503535  W2        15819           0.0000000000
     47457     15819  TIP3      H2            -39.1277566405      -31.6792422861       11.4192003535  W2        15819           0.0000000000
     47458     15820  TIP3      OH2           -50.8656866405      -30.7631722861       12.5512303535  W2        15820           0.0000000000
     47459     15820  TIP3      H1            -50.2520566405      -30.1304122861       12.9244703535  W2        15820           0.0000000000
     47460     15820  TIP3      H2            -50.3536166405      -31.2356722861       11.8949203535  W2        15820           0.0000000000
     47461     15821  TIP3      OH2           -49.4828466405      -23.0154822861       15.6735303535  W2        15821           0.0000000000
     47462     15821  TIP3      H1            -49.4880866405      -22.1361322861       15.2954603535  W2        15821           0.0000000000
     47463     15821  TIP3      H2            -50.3364366405      -23.0990722861       16.0985203535  W2        15821           0.0000000000
     47464     15822  TIP3      OH2           -53.3617566405      -23.3446922861        6.4554603535  W2        15822           0.0000000000
     47465     15822  TIP3      H1            -53.6336666405      -23.1155922861        5.5667503535  W2        15822           0.0000000000
     47466     15822  TIP3      H2            -53.3161866405      -22.5068122861        6.9159903535  W2        15822           0.0000000000
     47467     15823  TIP3      OH2           -39.7367866405      -21.7231022861       13.1683103535  W2        15823           0.0000000000
     47468     15823  TIP3      H1            -40.6784166405      -21.6647122861       13.3300003535  W2        15823           0.0000000000
     47469     15823  TIP3      H2            -39.4601766405      -20.8170522861       13.0312803535  W2        15823           0.0000000000
     47470     15824  TIP3      OH2           -39.4360866405      -33.4365722861       14.5857003535  W2        15824           0.0000000000
     47471     15824  TIP3      H1            -40.1721666405      -32.8258622861       14.5478303535  W2        15824           0.0000000000
     47472     15824  TIP3      H2            -38.7526866405      -33.0216722861       14.0593403535  W2        15824           0.0000000000
     47473     15825  TIP3      OH2           -46.4329466405      -35.3498422861       12.0515003535  W2        15825           0.0000000000
     47474     15825  TIP3      H1            -46.5505266405      -36.2982422861       11.9973303535  W2        15825           0.0000000000
     47475     15825  TIP3      H2            -47.2879366405      -35.0172322861       12.3246103535  W2        15825           0.0000000000
     47476     15826  TIP3      OH2           -41.4846666405      -19.9417522861        9.7934703535  W2        15826           0.0000000000
     47477     15826  TIP3      H1            -41.0594366405      -20.6489622861        9.3084303535  W2        15826           0.0000000000
     47478     15826  TIP3      H2            -41.1676666405      -19.1404822861        9.3766903535  W2        15826           0.0000000000
     47479     15827  TIP3      OH2           -40.3250166405      -22.0409022861        8.3021303535  W2        15827           0.0000000000
     47480     15827  TIP3      H1            -40.5825366405      -22.7308922861        7.6907203535  W2        15827           0.0000000000
     47481     15827  TIP3      H2            -40.2539366405      -22.4837822861        9.1477203535  W2        15827           0.0000000000
     47482     15828  TIP3      OH2           -38.6389966405      -23.4742322861       16.7794803535  W2        15828           0.0000000000
     47483     15828  TIP3      H1            -38.4993666405      -24.0659822861       16.0401803535  W2        15828           0.0000000000
     47484     15828  TIP3      H2            -38.4717166405      -22.6016422861       16.4233603535  W2        15828           0.0000000000
     47485     15829  TIP3      OH2           -44.1664566405      -26.5122822861        6.5520803535  W2        15829           0.0000000000
     47486     15829  TIP3      H1            -44.8779066405      -25.9773122861        6.2001303535  W2        15829           0.0000000000
     47487     15829  TIP3      H2            -43.4754966405      -26.4570722861        5.8919703535  W2        15829           0.0000000000
     47488     15830  TIP3      OH2           -44.1125366405      -28.0548522861        3.5905803535  W2        15830           0.0000000000
     47489     15830  TIP3      H1            -43.4115466405      -28.0321622861        4.2419803535  W2        15830           0.0000000000
     47490     15830  TIP3      H2            -43.8102466405      -28.6828822861        2.9345103535  W2        15830           0.0000000000
     47491     15831  TIP3      OH2           -36.7970666405      -27.1344322861       14.8455203535  W2        15831           0.0000000000
     47492     15831  TIP3      H1            -37.4496566405      -26.4398722861       14.9346103535  W2        15831           0.0000000000
     47493     15831  TIP3      H2            -36.3320366405      -26.9243422861       14.0356803535  W2        15831           0.0000000000
     47494     15832  TIP3      OH2           -40.7606866405      -26.3029522861        7.5036703535  W2        15832           0.0000000000
     47495     15832  TIP3      H1            -41.4925866405      -26.0745822861        8.0767303535  W2        15832           0.0000000000
     47496     15832  TIP3      H2            -40.3134666405      -27.0166822861        7.9584203535  W2        15832           0.0000000000
     47497     15833  TIP3      OH2           -40.8633366405      -28.1286922861       16.5713703535  W2        15833           0.0000000000
     47498     15833  TIP3      H1            -40.7834266405      -27.3652522861       17.1432203535  W2        15833           0.0000000000
     47499     15833  TIP3      H2            -41.4645666405      -27.8494522861       15.8808803535  W2        15833           0.0000000000
     47500     15834  TIP3      OH2           -49.1153166405      -25.6723322861        9.3861703535  W2        15834           0.0000000000
     47501     15834  TIP3      H1            -49.4457966405      -26.0429922861        8.5678703535  W2        15834           0.0000000000
     47502     15834  TIP3      H2            -48.5269066405      -26.3429322861        9.7330003535  W2        15834           0.0000000000
     47503     15835  TIP3      OH2           -47.7485666405      -22.2442722861       12.0673903535  W2        15835           0.0000000000
     47504     15835  TIP3      H1            -47.8434366405      -22.8229622861       11.3108503535  W2        15835           0.0000000000
     47505     15835  TIP3      H2            -47.0192066405      -22.6157022861       12.5636703535  W2        15835           0.0000000000
     47506     15836  TIP3      OH2           -48.7487666405      -26.9037722861       13.0196703535  W2        15836           0.0000000000
     47507     15836  TIP3      H1            -48.1835166405      -26.7823522861       12.2567903535  W2        15836           0.0000000000
     47508     15836  TIP3      H2            -48.4298766405      -26.2662722861       13.6585203535  W2        15836           0.0000000000
     47509     15837  TIP3      OH2           -42.4395466405      -21.4005822861       13.7537203535  W2        15837           0.0000000000
     47510     15837  TIP3      H1            -42.6798866405      -20.7382722861       14.4016403535  W2        15837           0.0000000000
     47511     15837  TIP3      H2            -42.6377266405      -22.2350622861       14.1786803535  W2        15837           0.0000000000
     47512     15838  TIP3      OH2           -47.8686966405      -22.5045022861       17.7368603535  W2        15838           0.0000000000
     47513     15838  TIP3      H1            -48.1799466405      -21.7221822861       18.1921803535  W2        15838           0.0000000000
     47514     15838  TIP3      H2            -48.5186766405      -22.6575922861       17.0510603535  W2        15838           0.0000000000
     47515     15839  TIP3      OH2           -41.8897366405      -27.1406622861        5.1887903535  W2        15839           0.0000000000
     47516     15839  TIP3      H1            -41.3101866405      -26.9906322861        5.9356803535  W2        15839           0.0000000000
     47517     15839  TIP3      H2            -41.4757366405      -26.6699222861        4.4654303535  W2        15839           0.0000000000
     47518     15840  TIP3      OH2           -50.9487066405      -26.3063922861       16.9654303535  W2        15840           0.0000000000
     47519     15840  TIP3      H1            -50.8783866405      -25.6557122861       17.6639303535  W2        15840           0.0000000000
     47520     15840  TIP3      H2            -51.8394866405      -26.2036422861       16.6305203535  W2        15840           0.0000000000
     47521     15841  TIP3      OH2           -44.1632466405      -20.4038122861        8.6241003535  W2        15841           0.0000000000
     47522     15841  TIP3      H1            -43.6894866405      -20.1081822861        9.4015203535  W2        15841           0.0000000000
     47523     15841  TIP3      H2            -44.7263166405      -19.6656522861        8.3910603535  W2        15841           0.0000000000
     47524     15842  TIP3      OH2           -49.6291066405      -20.4330022861       18.5002403535  W2        15842           0.0000000000
     47525     15842  TIP3      H1            -49.6215766405      -20.5690322861       17.5527903535  W2        15842           0.0000000000
     47526     15842  TIP3      H2            -50.5450666405      -20.5501922861       18.7522403535  W2        15842           0.0000000000
     47527     15843  TIP3      OH2           -38.1908966405      -35.3906222861        5.0017603535  W2        15843           0.0000000000
     47528     15843  TIP3      H1            -39.0908266405      -35.2517222861        5.2968203535  W2        15843           0.0000000000
     47529     15843  TIP3      H2            -37.9390566405      -34.5591622861        4.5999303535  W2        15843           0.0000000000
     47530     15844  TIP3      OH2           -50.1250466405      -26.6029022861        6.9754503535  W2        15844           0.0000000000
     47531     15844  TIP3      H1            -50.4169166405      -25.8347322861        6.4845803535  W2        15844           0.0000000000
     47532     15844  TIP3      H2            -50.7995266405      -27.2622822861        6.8125903535  W2        15844           0.0000000000
     47533     15845  TIP3      OH2           -37.0017566405      -21.0243822861        3.3781503535  W2        15845           0.0000000000
     47534     15845  TIP3      H1            -36.9284066405      -20.0853622861        3.5486803535  W2        15845           0.0000000000
     47535     15845  TIP3      H2            -36.0962466405      -21.3295222861        3.3218803535  W2        15845           0.0000000000
     47536     15846  TIP3      OH2           -54.0320366405      -24.2399822861       15.7904303535  W2        15846           0.0000000000
     47537     15846  TIP3      H1            -54.5331966405      -24.2680422861       14.9754003535  W2        15846           0.0000000000
     47538     15846  TIP3      H2            -54.0266666405      -25.1456622861       16.1001603535  W2        15846           0.0000000000
     47539     15847  TIP3      OH2           -54.2817666405      -21.4596022861       12.6744503535  W2        15847           0.0000000000
     47540     15847  TIP3      H1            -53.3357066405      -21.6039022861       12.6554003535  W2        15847           0.0000000000
     47541     15847  TIP3      H2            -54.3941366405      -20.6753222861       13.2115703535  W2        15847           0.0000000000
     47542     15848  TIP3      OH2           -36.0839166405      -20.7936322861       18.3568203535  W2        15848           0.0000000000
     47543     15848  TIP3      H1            -36.1332366405      -21.7488222861       18.3195803535  W2        15848           0.0000000000
     47544     15848  TIP3      H2            -36.9106866405      -20.5261022861       18.7582003535  W2        15848           0.0000000000
     47545     15849  TIP3      OH2           -45.1055166405      -21.2197122861       17.2329603535  W2        15849           0.0000000000
     47546     15849  TIP3      H1            -45.0180566405      -20.3932522861       17.7078703535  W2        15849           0.0000000000
     47547     15849  TIP3      H2            -45.9690066405      -21.5493322861       17.4818903535  W2        15849           0.0000000000
     47548     15850  TIP3      OH2           -44.6909366405      -17.4473422861        7.0390203535  W2        15850           0.0000000000
     47549     15850  TIP3      H1            -44.7663366405      -17.5686222861        6.0925403535  W2        15850           0.0000000000
     47550     15850  TIP3      H2            -44.6580666405      -16.4980722861        7.1574803535  W2        15850           0.0000000000
     47551     15851  TIP3      OH2           -51.0375566405      -18.6586422861        8.8199203535  W2        15851           0.0000000000
     47552     15851  TIP3      H1            -50.8855166405      -19.0066022861        9.6985703535  W2        15851           0.0000000000
     47553     15851  TIP3      H2            -51.8885166405      -19.0149122861        8.5646403535  W2        15851           0.0000000000
     47554     15852  TIP3      OH2           -41.5893366405      -18.2933222861        4.0412603535  W2        15852           0.0000000000
     47555     15852  TIP3      H1            -41.2144966405      -19.0377122861        3.5705203535  W2        15852           0.0000000000
     47556     15852  TIP3      H2            -41.5849666405      -18.5632622861        4.9595903535  W2        15852           0.0000000000
     47557     15853  TIP3      OH2           -41.9205266405      -18.3676122861        6.7904803535  W2        15853           0.0000000000
     47558     15853  TIP3      H1            -42.8555466405      -18.2674222861        6.9691803535  W2        15853           0.0000000000
     47559     15853  TIP3      H2            -41.6403366405      -19.0770122861        7.3688003535  W2        15853           0.0000000000
     47560     15854  TIP3      OH2           -38.9319366405      -29.3003822861       18.8370403535  W2        15854           0.0000000000
     47561     15854  TIP3      H1            -39.3392566405      -28.8198222861       18.1163703535  W2        15854           0.0000000000
     47562     15854  TIP3      H2            -38.8913666405      -30.2057822861       18.5291203535  W2        15854           0.0000000000
     47563     15855  TIP3      OH2           -51.7829866405      -22.9164422861       16.8337103535  W2        15855           0.0000000000
     47564     15855  TIP3      H1            -51.5668566405      -23.2778822861       17.6932903535  W2        15855           0.0000000000
     47565     15855  TIP3      H2            -52.6385166405      -23.2910622861       16.6240603535  W2        15855           0.0000000000
     47566     15856  TIP3      OH2           -49.1641866405      -34.4463922861       12.8291303535  W2        15856           0.0000000000
     47567     15856  TIP3      H1            -50.0258166405      -34.5335722861       12.4214203535  W2        15856           0.0000000000
     47568     15856  TIP3      H2            -49.1866166405      -33.5903822861       13.2568903535  W2        15856           0.0000000000
     47569     15857  TIP3      OH2           -44.5014066405      -34.7243522861       16.2038303535  W2        15857           0.0000000000
     47570     15857  TIP3      H1            -44.0810966405      -35.1396422861       16.9568903535  W2        15857           0.0000000000
     47571     15857  TIP3      H2            -45.4344466405      -34.9030222861       16.3210303535  W2        15857           0.0000000000
     47572     15858  TIP3      OH2           -41.1749166405      -30.9688322861       17.0572803535  W2        15858           0.0000000000
     47573     15858  TIP3      H1            -41.6889666405      -31.0946122861       17.8548803535  W2        15858           0.0000000000
     47574     15858  TIP3      H2            -41.3304466405      -30.0565222861       16.8129003535  W2        15858           0.0000000000
     47575     15859  TIP3      OH2           -40.4124266405      -26.1078322861        2.8185803535  W2        15859           0.0000000000
     47576     15859  TIP3      H1            -40.3703466405      -26.3304422861        1.8885803535  W2        15859           0.0000000000
     47577     15859  TIP3      H2            -39.5632166405      -25.7091222861        3.0085703535  W2        15859           0.0000000000
     47578     15860  TIP3      OH2           -44.8396766405      -32.2320122861        3.4889103535  W2        15860           0.0000000000
     47579     15860  TIP3      H1            -45.0931966405      -32.2128522861        4.4117203535  W2        15860           0.0000000000
     47580     15860  TIP3      H2            -45.0964666405      -33.1034722861        3.1875303535  W2        15860           0.0000000000
     47581     15861  TIP3      OH2           -49.0731766405      -29.4809422861       13.9241503535  W2        15861           0.0000000000
     47582     15861  TIP3      H1            -49.7149666405      -29.5212122861       14.6331603535  W2        15861           0.0000000000
     47583     15861  TIP3      H2            -49.0359766405      -28.5544722861       13.6864503535  W2        15861           0.0000000000
     47584     15862  TIP3      OH2           -49.0762666405      -29.2599322861        8.8361503535  W2        15862           0.0000000000
     47585     15862  TIP3      H1            -49.9689766405      -29.6003222861        8.7775303535  W2        15862           0.0000000000
     47586     15862  TIP3      H2            -48.6256066405      -29.6368422861        8.0804703535  W2        15862           0.0000000000
     47587     15863  TIP3      OH2           -43.5407166405      -28.8439022861        7.6532303535  W2        15863           0.0000000000
     47588     15863  TIP3      H1            -43.9496866405      -28.0290422861        7.3617103535  W2        15863           0.0000000000
     47589     15863  TIP3      H2            -42.8200966405      -28.9838922861        7.0389403535  W2        15863           0.0000000000
     47590     15864  TIP3      OH2           -44.4385566405      -28.6682622861       19.1413003535  W2        15864           0.0000000000
     47591     15864  TIP3      H1            -45.0011766405      -29.3731022861       19.4620803535  W2        15864           0.0000000000
     47592     15864  TIP3      H2            -43.6122166405      -28.7890722861       19.6090603535  W2        15864           0.0000000000
     47593     15865  TIP3      OH2           -42.5359466405      -29.3978622861       10.4672003535  W2        15865           0.0000000000
     47594     15865  TIP3      H1            -42.7314966405      -28.7921822861        9.7522603535  W2        15865           0.0000000000
     47595     15865  TIP3      H2            -42.3546866405      -30.2313422861       10.0328303535  W2        15865           0.0000000000
     47596     15866  TIP3      OH2           -51.3231266405      -29.1605922861       15.7913503535  W2        15866           0.0000000000
     47597     15866  TIP3      H1            -51.3611866405      -28.7604322861       16.6600603535  W2        15866           0.0000000000
     47598     15866  TIP3      H2            -51.8140166405      -29.9773522861       15.8816403535  W2        15866           0.0000000000
     47599     15867  TIP3      OH2           -47.9573866405      -31.7863622861        2.5899503535  W2        15867           0.0000000000
     47600     15867  TIP3      H1            -48.3883166405      -32.2313522861        3.3196903535  W2        15867           0.0000000000
     47601     15867  TIP3      H2            -48.6755166405      -31.4147322861        2.0777003535  W2        15867           0.0000000000
     47602     15868  TIP3      OH2           -54.7150466405      -32.0444122861        9.6418203535  W2        15868           0.0000000000
     47603     15868  TIP3      H1            -54.0842766405      -32.0732022861       10.3612103535  W2        15868           0.0000000000
     47604     15868  TIP3      H2            -54.2656166405      -32.4695422861        8.9114103535  W2        15868           0.0000000000
     47605     15869  TIP3      OH2           -53.4408366405      -31.2982122861        5.0658603535  W2        15869           0.0000000000
     47606     15869  TIP3      H1            -52.9666666405      -30.7072222861        4.4809503535  W2        15869           0.0000000000
     47607     15869  TIP3      H2            -54.1581966405      -30.7679222861        5.4128703535  W2        15869           0.0000000000
     47608     15870  TIP3      OH2           -43.2720266405      -27.7597322861       15.1384403535  W2        15870           0.0000000000
     47609     15870  TIP3      H1            -42.9485466405      -28.3907622861       14.4954903535  W2        15870           0.0000000000
     47610     15870  TIP3      H2            -43.7120966405      -28.2945122861       15.7991803535  W2        15870           0.0000000000
     47611     15871  TIP3      OH2           -46.4947366405      -31.8321822861        9.9225603535  W2        15871           0.0000000000
     47612     15871  TIP3      H1            -47.4056266405      -31.7755022861       10.2111603535  W2        15871           0.0000000000
     47613     15871  TIP3      H2            -45.9894466405      -31.8926322861       10.7332803535  W2        15871           0.0000000000
     47614     15872  TIP3      OH2           -51.6663966405      -30.2035522861        8.7493203535  W2        15872           0.0000000000
     47615     15872  TIP3      H1            -52.5555966405      -30.1040022861        8.4092803535  W2        15872           0.0000000000
     47616     15872  TIP3      H2            -51.3699066405      -31.0452522861        8.4031103535  W2        15872           0.0000000000
     47617     15873  TIP3      OH2           -48.0132166405      -30.2032922861        6.4057803535  W2        15873           0.0000000000
     47618     15873  TIP3      H1            -47.0816666405      -30.0742922861        6.5840903535  W2        15873           0.0000000000
     47619     15873  TIP3      H2            -48.2281866405      -29.5338622861        5.7562503535  W2        15873           0.0000000000
     47620     15874  TIP3      OH2           -42.0895466405      -32.5975522861       13.1867403535  W2        15874           0.0000000000
     47621     15874  TIP3      H1            -42.7663866405      -32.4662422861       13.8507103535  W2        15874           0.0000000000
     47622     15874  TIP3      H2            -42.5750566405      -32.7526022861       12.3765103535  W2        15874           0.0000000000
     47623     15875  TIP3      OH2           -49.3391966405      -29.0090722861        3.9723903535  W2        15875           0.0000000000
     47624     15875  TIP3      H1            -49.8816866405      -29.3886922861        3.2811503535  W2        15875           0.0000000000
     47625     15875  TIP3      H2            -48.5057066405      -28.8146022861        3.5438003535  W2        15875           0.0000000000
     47626     15876  TIP3      OH2           -38.8020366405      -16.9260122861       19.4635003535  W2        15876           0.0000000000
     47627     15876  TIP3      H1            -38.6021666405      -16.5018222861       18.6290303535  W2        15876           0.0000000000
     47628     15876  TIP3      H2            -38.1466666405      -16.5821922861       20.0705403535  W2        15876           0.0000000000
     47629     15877  TIP3      OH2           -51.2040566405      -24.4518822861       19.0715503535  W2        15877           0.0000000000
     47630     15877  TIP3      H1            -50.4718166405      -24.1972922861       19.6330003535  W2        15877           0.0000000000
     47631     15877  TIP3      H2            -51.9841866405      -24.2473422861       19.5870903535  W2        15877           0.0000000000
     47632     15878  TIP3      OH2           -45.1747666405      -29.0448822861       11.8095203535  W2        15878           0.0000000000
     47633     15878  TIP3      H1            -44.6104266405      -29.5912222861       11.2624803535  W2        15878           0.0000000000
     47634     15878  TIP3      H2            -45.3224266405      -29.5666922861       12.5982803535  W2        15878           0.0000000000
     47635     15879  TIP3      OH2           -50.1727966405      -32.9082722861        8.2280003535  W2        15879           0.0000000000
     47636     15879  TIP3      H1            -50.4898466405      -33.8107422861        8.1925403535  W2        15879           0.0000000000
     47637     15879  TIP3      H2            -49.3913866405      -32.9065322861        7.6751603535  W2        15879           0.0000000000
     47638     15880  TIP3      OH2           -46.5481766405      -30.6562722861       14.2235603535  W2        15880           0.0000000000
     47639     15880  TIP3      H1            -47.3836466405      -30.2023222861       14.3338003535  W2        15880           0.0000000000
     47640     15880  TIP3      H2            -46.0241166405      -30.3804222861       14.9755503535  W2        15880           0.0000000000
     47641     15881  TIP3      OH2           -46.0039166405      -24.4435022861        5.9082003535  W2        15881           0.0000000000
     47642     15881  TIP3      H1            -46.7488166405      -24.9509722861        5.5859903535  W2        15881           0.0000000000
     47643     15881  TIP3      H2            -46.1381966405      -24.3947022861        6.8546803535  W2        15881           0.0000000000
     47644     15882  TIP3      OH2           -38.8540266405      -25.3106822861       14.6949603535  W2        15882           0.0000000000
     47645     15882  TIP3      H1            -38.2121466405      -24.8540522861       14.1511803535  W2        15882           0.0000000000
     47646     15882  TIP3      H2            -39.6843366405      -25.1974422861       14.2323703535  W2        15882           0.0000000000
     47647     15883  TIP3      OH2           -42.1062366405      -31.6295122861        4.1074603535  W2        15883           0.0000000000
     47648     15883  TIP3      H1            -43.0448166405      -31.5179522861        3.9563403535  W2        15883           0.0000000000
     47649     15883  TIP3      H2            -41.8090266405      -30.7728222861        4.4140303535  W2        15883           0.0000000000
     47650     15884  TIP3      OH2           -44.4847066405      -24.2591722861       17.1451103535  W2        15884           0.0000000000
     47651     15884  TIP3      H1            -44.8300966405      -24.6409322861       17.9520703535  W2        15884           0.0000000000
     47652     15884  TIP3      H2            -44.6846966405      -23.3258122861       17.2164003535  W2        15884           0.0000000000
     47653     15885  TIP3      OH2           -41.3878866405      -29.7622422861        5.7682003535  W2        15885           0.0000000000
     47654     15885  TIP3      H1            -40.4959866405      -29.8997422861        6.0873203535  W2        15885           0.0000000000
     47655     15885  TIP3      H2            -41.3315266405      -28.9716322861        5.2315503535  W2        15885           0.0000000000
     47656     15886  TIP3      OH2           -50.8790866405      -25.1485022861       11.6779903535  W2        15886           0.0000000000
     47657     15886  TIP3      H1            -50.1343666405      -25.1509322861       11.0766403535  W2        15886           0.0000000000
     47658     15886  TIP3      H2            -50.8014266405      -25.9721222861       12.1595003535  W2        15886           0.0000000000
     47659     15887  TIP3      OH2           -43.8785066405      -22.9850722861        4.9336603535  W2        15887           0.0000000000
     47660     15887  TIP3      H1            -44.1736666405      -22.1582822861        5.3151403535  W2        15887           0.0000000000
     47661     15887  TIP3      H2            -44.5815066405      -23.6043822861        5.1298003535  W2        15887           0.0000000000
     47662     15888  TIP3      OH2           -53.8711166405      -26.6878122861       16.9928403535  W2        15888           0.0000000000
     47663     15888  TIP3      H1            -53.6482566405      -27.1058522861       17.8245903535  W2        15888           0.0000000000
     47664     15888  TIP3      H2            -54.4731066405      -27.3003122861       16.5701203535  W2        15888           0.0000000000
     47665     15889  TIP3      OH2           -46.8546266405      -27.1708222861       19.2058103535  W2        15889           0.0000000000
     47666     15889  TIP3      H1            -47.1505466405      -27.3365222861       18.3107203535  W2        15889           0.0000000000
     47667     15889  TIP3      H2            -45.9231066405      -27.3907922861       19.1952003535  W2        15889           0.0000000000
     47668     15890  TIP3      OH2           -42.2343466405      -21.7976222861       17.0956103535  W2        15890           0.0000000000
     47669     15890  TIP3      H1            -43.1349166405      -21.6143622861       16.8280003535  W2        15890           0.0000000000
     47670     15890  TIP3      H2            -42.2002366405      -21.5386922861       18.0164903535  W2        15890           0.0000000000
     47671     15891  TIP3      OH2           -36.5030166405      -29.5528322861        5.4628703535  W2        15891           0.0000000000
     47672     15891  TIP3      H1            -37.0573866405      -29.9490322861        4.7906203535  W2        15891           0.0000000000
     47673     15891  TIP3      H2            -36.4026566405      -28.6423122861        5.1852003535  W2        15891           0.0000000000
     47674     15892  TIP3      OH2           -36.5398166405      -23.7526622861       18.3000203535  W2        15892           0.0000000000
     47675     15892  TIP3      H1            -37.3909666405      -23.5142822861       17.9326603535  W2        15892           0.0000000000
     47676     15892  TIP3      H2            -35.9494766405      -23.7693422861       17.5467303535  W2        15892           0.0000000000
     47677     15893  TIP3      OH2           -38.2078466405      -20.7667922861        5.9280803535  W2        15893           0.0000000000
     47678     15893  TIP3      H1            -38.5807366405      -21.5924122861        6.2371403535  W2        15893           0.0000000000
     47679     15893  TIP3      H2            -37.9304966405      -20.9498522861        5.0304203535  W2        15893           0.0000000000
     47680     15894  TIP3      OH2           -41.0474566405      -25.9588422861       12.9492703535  W2        15894           0.0000000000
     47681     15894  TIP3      H1            -41.9757666405      -26.1906522861       12.9222003535  W2        15894           0.0000000000
     47682     15894  TIP3      H2            -40.5963466405      -26.7358622861       12.6191503535  W2        15894           0.0000000000
     47683     15895  TIP3      OH2           -48.5041466405      -21.6306822861        9.0821403535  W2        15895           0.0000000000
     47684     15895  TIP3      H1            -47.9769266405      -20.8572422861        8.8820203535  W2        15895           0.0000000000
     47685     15895  TIP3      H2            -49.3842966405      -21.4057622861        8.7805403535  W2        15895           0.0000000000
     47686     15896  TIP3      OH2           -52.7493766405      -26.7682722861        3.6693803535  W2        15896           0.0000000000
     47687     15896  TIP3      H1            -52.1333866405      -26.1415522861        4.0488603535  W2        15896           0.0000000000
     47688     15896  TIP3      H2            -53.6111166405      -26.4522922861        3.9410303535  W2        15896           0.0000000000
     47689     15897  TIP3      OH2           -47.0769166405      -23.9676922861        8.6585703535  W2        15897           0.0000000000
     47690     15897  TIP3      H1            -47.3179166405      -23.0422522861        8.7001003535  W2        15897           0.0000000000
     47691     15897  TIP3      H2            -47.8175566405      -24.4265622861        9.0549603535  W2        15897           0.0000000000
     47692     15898  TIP3      OH2           -46.5622566405      -19.8183322861       14.9736803535  W2        15898           0.0000000000
     47693     15898  TIP3      H1            -46.1997866405      -18.9637722861       14.7401203535  W2        15898           0.0000000000
     47694     15898  TIP3      H2            -46.0307366405      -20.1101722861       15.7143103535  W2        15898           0.0000000000
     47695     15899  TIP3      OH2           -48.3938366405      -18.9459322861        8.2037903535  W2        15899           0.0000000000
     47696     15899  TIP3      H1            -49.3437866405      -18.8401922861        8.2551203535  W2        15899           0.0000000000
     47697     15899  TIP3      H2            -48.0420266405      -18.1251922861        8.5485403535  W2        15899           0.0000000000
     47698     15900  TIP3      OH2           -43.0181766405      -23.7192622861       14.6742403535  W2        15900           0.0000000000
     47699     15900  TIP3      H1            -43.4440466405      -23.9470922861       15.5006403535  W2        15900           0.0000000000
     47700     15900  TIP3      H2            -42.4375966405      -24.4580822861       14.4917703535  W2        15900           0.0000000000
     47701     15901  TIP3      OH2           -40.8152866405      -22.7902122861        3.7481403535  W2        15901           0.0000000000
     47702     15901  TIP3      H1            -40.4619766405      -23.1702322861        4.5524903535  W2        15901           0.0000000000
     47703     15901  TIP3      H2            -41.7639366405      -22.8837322861        3.8350703535  W2        15901           0.0000000000
     47704     15902  TIP3      OH2           -40.3597566405      -19.1673122861       17.1437203535  W2        15902           0.0000000000
     47705     15902  TIP3      H1            -40.9614366405      -19.7230222861       16.6483503535  W2        15902           0.0000000000
     47706     15902  TIP3      H2            -40.0783866405      -18.5003322861       16.5174603535  W2        15902           0.0000000000
     47707     15903  TIP3      OH2           -36.3118466405      -18.3109622861        3.9491603535  W2        15903           0.0000000000
     47708     15903  TIP3      H1            -35.5680566405      -17.7249122861        3.8093203535  W2        15903           0.0000000000
     47709     15903  TIP3      H2            -37.0060366405      -17.7423822861        4.2824003535  W2        15903           0.0000000000
     47710     15904  TIP3      OH2           -52.2371666405      -31.9345422861       16.5509803535  W2        15904           0.0000000000
     47711     15904  TIP3      H1            -53.1299366405      -31.5960022861       16.4833803535  W2        15904           0.0000000000
     47712     15904  TIP3      H2            -52.3358866405      -32.7899322861       16.9690603535  W2        15904           0.0000000000
     47713     15905  TIP3      OH2           -39.9493566405      -24.1180122861        5.9749303535  W2        15905           0.0000000000
     47714     15905  TIP3      H1            -40.2265966405      -24.8460822861        6.5310403535  W2        15905           0.0000000000
     47715     15905  TIP3      H2            -39.0220566405      -23.9988122861        6.1801903535  W2        15905           0.0000000000
     47716     15906  TIP3      OH2           -52.5859666405      -20.1301022861       14.9859203535  W2        15906           0.0000000000
     47717     15906  TIP3      H1            -52.3689366405      -21.0618622861       14.9548903535  W2        15906           0.0000000000
     47718     15906  TIP3      H2            -52.3396166405      -19.8556022861       15.8692003535  W2        15906           0.0000000000
     47719     15907  TIP3      OH2           -46.7245066405      -21.6786022861        2.1951403535  W2        15907           0.0000000000
     47720     15907  TIP3      H1            -46.4855266405      -22.4267922861        1.6480303535  W2        15907           0.0000000000
     47721     15907  TIP3      H2            -46.9933766405      -22.0664322861        3.0279203535  W2        15907           0.0000000000
     47722     15908  TIP3      OH2           -47.7874466405      -22.1082222861        4.6514003535  W2        15908           0.0000000000
     47723     15908  TIP3      H1            -47.6406466405      -22.6282422861        5.4414903535  W2        15908           0.0000000000
     47724     15908  TIP3      H2            -47.7902766405      -21.2014622861        4.9579903535  W2        15908           0.0000000000
     47725     15909  TIP3      OH2           -51.3343366405      -24.8558922861        5.1619403535  W2        15909           0.0000000000
     47726     15909  TIP3      H1            -52.0204066405      -24.5036422861        5.7289103535  W2        15909           0.0000000000
     47727     15909  TIP3      H2            -50.8115466405      -24.0929322861        4.9153703535  W2        15909           0.0000000000
     47728     15910  TIP3      OH2           -43.5028266405      -32.1935122861       15.4408403535  W2        15910           0.0000000000
     47729     15910  TIP3      H1            -42.8040366405      -32.1196422861       16.0908103535  W2        15910           0.0000000000
     47730     15910  TIP3      H2            -43.8836866405      -33.0580122861       15.5951303535  W2        15910           0.0000000000
     47731     15911  TIP3      OH2           -42.7183366405      -32.5413422861        6.5380703535  W2        15911           0.0000000000
     47732     15911  TIP3      H1            -42.4985066405      -32.0698022861        5.7346103535  W2        15911           0.0000000000
     47733     15911  TIP3      H2            -42.1599366405      -32.1470822861        7.2081303535  W2        15911           0.0000000000
     47734     15912  TIP3      OH2           -45.0497266405      -20.4108622861        5.4008203535  W2        15912           0.0000000000
     47735     15912  TIP3      H1            -45.8661166405      -19.9138922861        5.4532503535  W2        15912           0.0000000000
     47736     15912  TIP3      H2            -44.5200966405      -19.9355122861        4.7607003535  W2        15912           0.0000000000
     47737     15913  TIP3      OH2           -45.5183466405      -30.8134622861        7.3729103535  W2        15913           0.0000000000
     47738     15913  TIP3      H1            -44.7060866405      -30.3091422861        7.4190803535  W2        15913           0.0000000000
     47739     15913  TIP3      H2            -45.7630466405      -30.9584922861        8.2868703535  W2        15913           0.0000000000
     47740     15914  TIP3      OH2           -44.9827066405      -29.8271922861       16.5575703535  W2        15914           0.0000000000
     47741     15914  TIP3      H1            -44.8636766405      -29.2536522861       17.3146103535  W2        15914           0.0000000000
     47742     15914  TIP3      H2            -44.3272466405      -30.5152522861       16.6723503535  W2        15914           0.0000000000
     47743     15915  TIP3      OH2           -44.6346766405      -33.7321622861        8.3110203535  W2        15915           0.0000000000
     47744     15915  TIP3      H1            -44.9813266405      -33.1151022861        8.9554503535  W2        15915           0.0000000000
     47745     15915  TIP3      H2            -43.9759866405      -33.2315922861        7.8295703535  W2        15915           0.0000000000
     47746     15916  TIP3      OH2           -47.7114166405      -19.3671422861        5.3825103535  W2        15916           0.0000000000
     47747     15916  TIP3      H1            -47.5505466405      -18.5673922861        4.8817703535  W2        15916           0.0000000000
     47748     15916  TIP3      H2            -47.9086366405      -19.0605422861        6.2675703535  W2        15916           0.0000000000
     47749     15917  TIP3      OH2           -48.9769766405      -32.6692222861        4.9982703535  W2        15917           0.0000000000
     47750     15917  TIP3      H1            -49.0604966405      -31.7809122861        5.3449103535  W2        15917           0.0000000000
     47751     15917  TIP3      H2            -48.0869466405      -32.9345522861        5.2299503535  W2        15917           0.0000000000
     47752     15918  TIP3      OH2           -38.7781266405      -31.9201622861       17.3925403535  W2        15918           0.0000000000
     47753     15918  TIP3      H1            -39.6945466405      -31.6579922861       17.3049103535  W2        15918           0.0000000000
     47754     15918  TIP3      H2            -38.4426266405      -31.9232622861       16.4960703535  W2        15918           0.0000000000
     47755     15919  TIP3      OH2           -40.1760266405      -28.1700622861       11.4882703535  W2        15919           0.0000000000
     47756     15919  TIP3      H1            -40.9735866405      -28.5850422861       11.1597703535  W2        15919           0.0000000000
     47757     15919  TIP3      H2            -39.7309166405      -28.8606922861       11.9793203535  W2        15919           0.0000000000
     47758     15920  TIP3      OH2           -50.7184466405      -22.2420022861        4.0587203535  W2        15920           0.0000000000
     47759     15920  TIP3      H1            -50.1262966405      -21.5425222861        4.3349603535  W2        15920           0.0000000000
     47760     15920  TIP3      H2            -50.2591466405      -22.6750522861        3.3391803535  W2        15920           0.0000000000
     47761     15921  TIP3      OH2           -52.4025266405      -29.5777022861        3.1746603535  W2        15921           0.0000000000
     47762     15921  TIP3      H1            -52.4472666405      -28.6383922861        3.3533603535  W2        15921           0.0000000000
     47763     15921  TIP3      H2            -53.2902066405      -29.8132122861        2.9048703535  W2        15921           0.0000000000
     47764     15922  TIP3      OH2           -39.0895666405      -18.9138122861       13.1106203535  W2        15922           0.0000000000
     47765     15922  TIP3      H1            -39.2451366405      -18.2353722861       12.4535503535  W2        15922           0.0000000000
     47766     15922  TIP3      H2            -38.1569266405      -18.8418822861       13.3136803535  W2        15922           0.0000000000
     47767     15923  TIP3      OH2           -51.5943266405      -34.7960422861       11.8477603535  W2        15923           0.0000000000
     47768     15923  TIP3      H1            -51.8233466405      -34.7367922861       10.9202603535  W2        15923           0.0000000000
     47769     15923  TIP3      H2            -52.0369866405      -35.5874922861       12.1541703535  W2        15923           0.0000000000
     47770     15924  TIP3      OH2           -52.6639966405      -20.8553322861        8.0083403535  W2        15924           0.0000000000
     47771     15924  TIP3      H1            -53.4961366405      -20.3830622861        8.0354803535  W2        15924           0.0000000000
     47772     15924  TIP3      H2            -52.1181666405      -20.3455722861        7.4096503535  W2        15924           0.0000000000
     47773     15925  TIP3      OH2           -53.3756266405      -18.2429622861       19.3381403535  W2        15925           0.0000000000
     47774     15925  TIP3      H1            -52.8354066405      -18.4595622861       20.0980603535  W2        15925           0.0000000000
     47775     15925  TIP3      H2            -53.8568266405      -19.0483622861       19.1483903535  W2        15925           0.0000000000
     47776     15926  TIP3      OH2           -48.7782866405      -19.3235222861       20.9585603535  W2        15926           0.0000000000
     47777     15926  TIP3      H1            -48.0105666405      -19.7824422861       21.2994803535  W2        15926           0.0000000000
     47778     15926  TIP3      H2            -48.7996666405      -19.5495422861       20.0286803535  W2        15926           0.0000000000
     47779     15927  TIP3      OH2           -44.6863266405      -19.8154622861        2.3337403535  W2        15927           0.0000000000
     47780     15927  TIP3      H1            -45.3302266405      -20.4466022861        2.6551103535  W2        15927           0.0000000000
     47781     15927  TIP3      H2            -43.9244966405      -20.3466622861        2.1020903535  W2        15927           0.0000000000
     47782     15928  TIP3      OH2           -42.2014166405      -20.9434122861       19.6877103535  W2        15928           0.0000000000
     47783     15928  TIP3      H1            -42.5524666405      -21.8001122861       19.9307503535  W2        15928           0.0000000000
     47784     15928  TIP3      H2            -41.4750966405      -20.8007422861       20.2946103535  W2        15928           0.0000000000
     47785     15929  TIP3      OH2           -40.0820366405      -19.9984722861        2.5675403535  W2        15929           0.0000000000
     47786     15929  TIP3      H1            -39.7989966405      -20.7929522861        3.0202303535  W2        15929           0.0000000000
     47787     15929  TIP3      H2            -39.3422466405      -19.7653722861        2.0066503535  W2        15929           0.0000000000
     47788     15930  TIP3      OH2           -53.4686766405      -24.4325522861       20.2925703535  W2        15930           0.0000000000
     47789     15930  TIP3      H1            -53.3246266405      -25.3344822861       20.0062403535  W2        15930           0.0000000000
     47790     15930  TIP3      H2            -54.2409366405      -24.1463422861       19.8048003535  W2        15930           0.0000000000
     47791     15931  TIP3      OH2           -49.1273066405      -24.0889822861        2.4250303535  W2        15931           0.0000000000
     47792     15931  TIP3      H1            -49.0628966405      -24.8830222861        2.9556703535  W2        15931           0.0000000000
     47793     15931  TIP3      H2            -48.4743866405      -24.2077022861        1.7352303535  W2        15931           0.0000000000
     47794     15932  TIP3      OH2           -46.8130666405      -24.4627422861       19.7252103535  W2        15932           0.0000000000
     47795     15932  TIP3      H1            -47.1416866405      -24.1919322861       18.8679503535  W2        15932           0.0000000000
     47796     15932  TIP3      H2            -46.6612466405      -25.4037622861       19.6377103535  W2        15932           0.0000000000
     47797     15933  TIP3      OH2           -43.7749666405      -23.0418122861        2.1608303535  W2        15933           0.0000000000
     47798     15933  TIP3      H1            -44.0435566405      -22.8616022861        3.0617203535  W2        15933           0.0000000000
     47799     15933  TIP3      H2            -43.9814066405      -23.9671922861        2.0294103535  W2        15933           0.0000000000
     47800     15934  TIP3      OH2           -41.0785466405      -24.5470122861       17.1084403535  W2        15934           0.0000000000
     47801     15934  TIP3      H1            -40.3330666405      -23.9586422861       16.9888403535  W2        15934           0.0000000000
     47802     15934  TIP3      H2            -41.8358666405      -23.9650422861       17.1717503535  W2        15934           0.0000000000
     47803     15935  TIP3      OH2           -52.6360266405      -27.2322222861       19.7125003535  W2        15935           0.0000000000
     47804     15935  TIP3      H1            -52.2279066405      -28.0895622861       19.5915603535  W2        15935           0.0000000000
     47805     15935  TIP3      H2            -52.8962666405      -27.2180922861       20.6335303535  W2        15935           0.0000000000
     47806     15936  TIP3      OH2           -47.9779266405      -26.1163622861        4.7308303535  W2        15936           0.0000000000
     47807     15936  TIP3      H1            -48.4377266405      -26.6005322861        5.4166803535  W2        15936           0.0000000000
     47808     15936  TIP3      H2            -47.7230566405      -26.7848222861        4.0948803535  W2        15936           0.0000000000
     47809     15937  TIP3      OH2           -48.6889966405      -28.2236522861       17.0867903535  W2        15937           0.0000000000
     47810     15937  TIP3      H1            -49.3073866405      -27.5489922861       17.3672603535  W2        15937           0.0000000000
     47811     15937  TIP3      H2            -48.3448766405      -27.9022622861       16.2534103535  W2        15937           0.0000000000
     47812     15938  TIP3      OH2           -46.9068866405      -27.8731822861        2.9931503535  W2        15938           0.0000000000
     47813     15938  TIP3      H1            -47.0873866405      -28.0280622861        2.0659803535  W2        15938           0.0000000000
     47814     15938  TIP3      H2            -45.9568366405      -27.7653122861        3.0379403535  W2        15938           0.0000000000
     47815     15939  TIP3      OH2           -43.6691766405      -25.7521222861       20.3642703535  W2        15939           0.0000000000
     47816     15939  TIP3      H1            -42.7160566405      -25.6682122861       20.3368703535  W2        15939           0.0000000000
     47817     15939  TIP3      H2            -43.8297166405      -26.4639422861       20.9837603535  W2        15939           0.0000000000
     47818     15940  TIP3      OH2           -37.5170566405      -25.5187622861        2.4389603535  W2        15940           0.0000000000
     47819     15940  TIP3      H1            -37.7905766405      -25.9432122861        1.6257903535  W2        15940           0.0000000000
     47820     15940  TIP3      H2            -37.4776466405      -24.5873122861        2.2220003535  W2        15940           0.0000000000
     47821     15941  TIP3      OH2           -48.3496266405      -30.8685722861       18.1691003535  W2        15941           0.0000000000
     47822     15941  TIP3      H1            -48.1995366405      -31.5974422861       17.5670703535  W2        15941           0.0000000000
     47823     15941  TIP3      H2            -48.3473866405      -30.0914022861       17.6103203535  W2        15941           0.0000000000
     47824     15942  TIP3      OH2           -47.9370566405      -32.4989922861       15.6618403535  W2        15942           0.0000000000
     47825     15942  TIP3      H1            -47.4013066405      -32.0473222861       15.0097703535  W2        15942           0.0000000000
     47826     15942  TIP3      H2            -48.7890966405      -32.6070122861       15.2392503535  W2        15942           0.0000000000
     47827     15943  TIP3      OH2           -46.3552166405      -27.0593722861       15.9013603535  W2        15943           0.0000000000
     47828     15943  TIP3      H1            -45.6047366405      -27.2156222861       15.3281403535  W2        15943           0.0000000000
     47829     15943  TIP3      H2            -46.6943866405      -26.2077122861       15.6259103535  W2        15943           0.0000000000
     47830     15944  TIP3      OH2           -41.9395966405      -29.2441922861       20.9298903535  W2        15944           0.0000000000
     47831     15944  TIP3      H1            -41.7474666405      -30.1752522861       20.8183403535  W2        15944           0.0000000000
     47832     15944  TIP3      H2            -41.0819666405      -28.8192422861       20.9194303535  W2        15944           0.0000000000
     47833     15945  TIP3      OH2           -40.6228766405      -26.4556722861       19.0071603535  W2        15945           0.0000000000
     47834     15945  TIP3      H1            -40.9043766405      -25.7462122861       18.4295403535  W2        15945           0.0000000000
     47835     15945  TIP3      H2            -39.6804466405      -26.5283722861       18.8562803535  W2        15945           0.0000000000
     47836     15946  TIP3      OH2           -49.8709966405      -29.6702222861       20.0806603535  W2        15946           0.0000000000
     47837     15946  TIP3      H1            -50.6380966405      -30.2027422861       19.8704203535  W2        15946           0.0000000000
     47838     15946  TIP3      H2            -49.1920966405      -29.9801822861       19.4812903535  W2        15946           0.0000000000
     47839     15947  TIP3      OH2           -47.1315066405      -35.0424222861       16.0932003535  W2        15947           0.0000000000
     47840     15947  TIP3      H1            -47.2295466405      -34.0961022861       15.9878203535  W2        15947           0.0000000000
     47841     15947  TIP3      H2            -47.8738866405      -35.4150422861       15.6175503535  W2        15947           0.0000000000
     47842     15948  TIP3      OH2           -45.8674566405      -30.7208822861       19.6570403535  W2        15948           0.0000000000
     47843     15948  TIP3      H1            -46.1029166405      -30.9402122861       20.5585303535  W2        15948           0.0000000000
     47844     15948  TIP3      H2            -46.6507666405      -30.9277622861       19.1472903535  W2        15948           0.0000000000
     47845     15949  TIP3      OH2           -43.1517966405      -31.5935322861       18.7323903535  W2        15949           0.0000000000
     47846     15949  TIP3      H1            -44.0992566405      -31.5615622861       18.8647203535  W2        15949           0.0000000000
     47847     15949  TIP3      H2            -42.8391266405      -32.2188222861       19.3862103535  W2        15949           0.0000000000
     47848     15950  TIP3      OH2           -41.5176466405      -32.9594222861       20.7375803535  W2        15950           0.0000000000
     47849     15950  TIP3      H1            -41.6144666405      -33.9116922861       20.7317703535  W2        15950           0.0000000000
     47850     15950  TIP3      H2            -41.8393366405      -32.6907422861       21.5981303535  W2        15950           0.0000000000
     47851     15951  TIP3      OH2           -51.6907166405      -31.7498422861       19.7851303535  W2        15951           0.0000000000
     47852     15951  TIP3      H1            -51.4789766405      -32.4562322861       19.1748803535  W2        15951           0.0000000000
     47853     15951  TIP3      H2            -51.8019666405      -32.1872422861       20.6292503535  W2        15951           0.0000000000
     47854     15952  TIP3      OH2           -46.9096966405      -35.7486822861       18.7644803535  W2        15952           0.0000000000
     47855     15952  TIP3      H1            -46.1978566405      -36.3884622861       18.7503903535  W2        15952           0.0000000000
     47856     15952  TIP3      H2            -47.0106566405      -35.4818522861       17.8507903535  W2        15952           0.0000000000
     47857     15953  TIP3      OH2           -46.5559466405      -34.0658422861       20.8181103535  W2        15953           0.0000000000
     47858     15953  TIP3      H1            -46.6877266405      -34.5414622861       19.9979603535  W2        15953           0.0000000000
     47859     15953  TIP3      H2            -47.1552066405      -33.3214822861       20.7628203535  W2        15953           0.0000000000
     47860     15954  TIP3      OH2           -47.0097166405      -17.1828122861        3.9945103535  W2        15954           0.0000000000
     47861     15954  TIP3      H1            -46.0766466405      -17.0249422861        4.1383503535  W2        15954           0.0000000000
     47862     15954  TIP3      H2            -47.2738366405      -16.5075122861        3.3696603535  W2        15954           0.0000000000
     47863     15955  TIP3      OH2           -53.4412266405      -22.5464322861        3.4773203535  W2        15955           0.0000000000
     47864     15955  TIP3      H1            -52.5273066405      -22.4675422861        3.7507103535  W2        15955           0.0000000000
     47865     15955  TIP3      H2            -53.4339166405      -23.2334722861        2.8108803535  W2        15955           0.0000000000
     47866     15956  TIP3      OH2           -54.7921666405      -17.1535822861        8.5547103535  W2        15956           0.0000000000
     47867     15956  TIP3      H1            -55.4394566405      -17.6154122861        8.0218303535  W2        15956           0.0000000000
     47868     15956  TIP3      H2            -54.4377066405      -17.8252522861        9.1373303535  W2        15956           0.0000000000
     47869     15957  TIP3      OH2           -53.9222466405      -19.0728822861       10.3593303535  W2        15957           0.0000000000
     47870     15957  TIP3      H1            -54.2565666405      -19.9531522861       10.5313503535  W2        15957           0.0000000000
     47871     15957  TIP3      H2            -53.7000066405      -18.7273822861       11.2238903535  W2        15957           0.0000000000
     47872     15958  TIP3      OH2           -36.3737666405      -18.2632422861       13.3398103535  W2        15958           0.0000000000
     47873     15958  TIP3      H1            -36.3950966405      -18.0784022861       14.2787503535  W2        15958           0.0000000000
     47874     15958  TIP3      H2            -35.6831466405      -17.6948422861       12.9989503535  W2        15958           0.0000000000
     47875     15959  TIP3      OH2           -36.8104766405      -18.6961322861       16.2617203535  W2        15959           0.0000000000
     47876     15959  TIP3      H1            -37.2976066405      -19.4317222861       15.8904603535  W2        15959           0.0000000000
     47877     15959  TIP3      H2            -36.2612066405      -19.0897422861       16.9396603535  W2        15959           0.0000000000
     47878     15960  TIP3      OH2           -38.3597466405      -22.9063222861       20.8997503535  W2        15960           0.0000000000
     47879     15960  TIP3      H1            -39.2256366405      -23.0113522861       21.2939803535  W2        15960           0.0000000000
     47880     15960  TIP3      H2            -37.9831566405      -22.1479922861       21.3462203535  W2        15960           0.0000000000
     47881     15961  TIP3      OH2           -37.0587766405      -24.6499522861        6.4140003535  W2        15961           0.0000000000
     47882     15961  TIP3      H1            -36.2086366405      -24.2288622861        6.5411603535  W2        15961           0.0000000000
     47883     15961  TIP3      H2            -37.0532666405      -25.3899422861        7.0211403535  W2        15961           0.0000000000
     47884     15962  TIP3      OH2           -36.6642166405      -26.5962122861        8.2375703535  W2        15962           0.0000000000
     47885     15962  TIP3      H1            -37.3907566405      -27.0759522861        8.6353303535  W2        15962           0.0000000000
     47886     15962  TIP3      H2            -36.0828866405      -26.3907422861        8.9697303535  W2        15962           0.0000000000
     47887     15963  TIP3      OH2           -36.9050966405      -23.8114622861       13.1853303535  W2        15963           0.0000000000
     47888     15963  TIP3      H1            -36.0716766405      -24.1894622861       12.9046903535  W2        15963           0.0000000000
     47889     15963  TIP3      H2            -36.7930666405      -22.8683422861       13.0662403535  W2        15963           0.0000000000
     47890     15964  TIP3      OH2           -38.4188666405      -20.9337122861       15.4921703535  W2        15964           0.0000000000
     47891     15964  TIP3      H1            -39.0663366405      -20.6085622861       16.1176903535  W2        15964           0.0000000000
     47892     15964  TIP3      H2            -38.9364666405      -21.3739422861       14.8180003535  W2        15964           0.0000000000
     47893     15965  TIP3      OH2           -36.3959066405      -26.6953622861        4.6287003535  W2        15965           0.0000000000
     47894     15965  TIP3      H1            -36.9177966405      -26.3389522861        3.9097903535  W2        15965           0.0000000000
     47895     15965  TIP3      H2            -36.4289866405      -26.0205822861        5.3067903535  W2        15965           0.0000000000
     47896     15966  TIP3      OH2           -38.0470066405      -29.4558022861        3.1794103535  W2        15966           0.0000000000
     47897     15966  TIP3      H1            -37.9505666405      -28.7891022861        2.4993803535  W2        15966           0.0000000000
     47898     15966  TIP3      H2            -38.1870466405      -30.2711722861        2.6979603535  W2        15966           0.0000000000
     47899     15967  TIP3      OH2           -38.8775366405      -28.0755622861        8.8004403535  W2        15967           0.0000000000
     47900     15967  TIP3      H1            -39.0276566405      -29.0207022861        8.7802203535  W2        15967           0.0000000000
     47901     15967  TIP3      H2            -39.2310866405      -27.7944222861        9.6443503535  W2        15967           0.0000000000
     47902     15968  TIP3      OH2           -53.8422966405      -25.9973422861       12.8108203535  W2        15968           0.0000000000
     47903     15968  TIP3      H1            -53.6580066405      -26.0791722861       11.8751103535  W2        15968           0.0000000000
     47904     15968  TIP3      H2            -52.9930066405      -26.1216422861       13.2344603535  W2        15968           0.0000000000
     47905     15969  TIP3      OH2           -38.0212466405      -26.1052322861       18.4392703535  W2        15969           0.0000000000
     47906     15969  TIP3      H1            -37.4385166405      -26.8400022861       18.6309903535  W2        15969           0.0000000000
     47907     15969  TIP3      H2            -37.4573166405      -25.3332022861       18.4858503535  W2        15969           0.0000000000
     47908     15970  TIP3      OH2           -36.5245366405      -28.2026522861       19.1238103535  W2        15970           0.0000000000
     47909     15970  TIP3      H1            -37.3878666405      -28.5814422861       18.9582803535  W2        15970           0.0000000000
     47910     15970  TIP3      H2            -35.9201666405      -28.9411722861       19.0493903535  W2        15970           0.0000000000
     47911     15971  TIP3      OH2           -38.7996266405      -32.0478222861        2.2969603535  W2        15971           0.0000000000
     47912     15971  TIP3      H1            -38.1890466405      -32.4191422861        2.9337803535  W2        15971           0.0000000000
     47913     15971  TIP3      H2            -39.6364766405      -32.4691322861        2.4929603535  W2        15971           0.0000000000
     47914     15972  TIP3      OH2           -39.1670566405      -30.4929822861        7.2629503535  W2        15972           0.0000000000
     47915     15972  TIP3      H1            -38.8873466405      -31.3999422861        7.3871203535  W2        15972           0.0000000000
     47916     15972  TIP3      H2            -38.4078866405      -30.0588322861        6.8738703535  W2        15972           0.0000000000
     47917     15973  TIP3      OH2           -38.5552266405      -29.9112422861       12.6988403535  W2        15973           0.0000000000
     47918     15973  TIP3      H1            -37.6224266405      -29.6992522861       12.6644403535  W2        15973           0.0000000000
     47919     15973  TIP3      H2            -38.7904766405      -29.8100322861       13.6211403535  W2        15973           0.0000000000
     47920     15974  TIP3      OH2           -38.5260366405      -29.1747122861       15.4747803535  W2        15974           0.0000000000
     47921     15974  TIP3      H1            -39.3689066405      -28.9066722861       15.8407603535  W2        15974           0.0000000000
     47922     15974  TIP3      H2            -38.0836066405      -28.3525222861       15.2638903535  W2        15974           0.0000000000
     47923     15975  TIP3      OH2           -54.2448166405      -30.7268422861       18.9517003535  W2        15975           0.0000000000
     47924     15975  TIP3      H1            -53.3253266405      -30.8490122861       19.1880103535  W2        15975           0.0000000000
     47925     15975  TIP3      H2            -54.6943666405      -31.4768722861       19.3410503535  W2        15975           0.0000000000
     47926     15976  TIP3      OH2           -36.2428766405      -35.1946922861       20.8282803535  W2        15976           0.0000000000
     47927     15976  TIP3      H1            -35.8931766405      -35.8483422861       20.2227503535  W2        15976           0.0000000000
     47928     15976  TIP3      H2            -36.0959266405      -34.3572822861       20.3885403535  W2        15976           0.0000000000
     47929     15977  TIP3      OH2           -38.5535766405      -33.2300522861        7.3111503535  W2        15977           0.0000000000
     47930     15977  TIP3      H1            -38.3710766405      -33.6789022861        8.1366503535  W2        15977           0.0000000000
     47931     15977  TIP3      H2            -39.1532866405      -33.8146122861        6.8476103535  W2        15977           0.0000000000
     47932     15978  TIP3      OH2           -53.0235666405      -32.4146822861       11.8429903535  W2        15978           0.0000000000
     47933     15978  TIP3      H1            -52.5784066405      -33.2064322861       12.1449603535  W2        15978           0.0000000000
     47934     15978  TIP3      H2            -52.5572666405      -31.6981622861       12.2735503535  W2        15978           0.0000000000
     47935     15979  TIP3      OH2           -54.7195366405      -29.4153822861       12.9120103535  W2        15979           0.0000000000
     47936     15979  TIP3      H1            -54.2275566405      -29.6363322861       12.1212103535  W2        15979           0.0000000000
     47937     15979  TIP3      H2            -54.3574466405      -28.5750422861       13.1929603535  W2        15979           0.0000000000
     47938     15980  TIP3      OH2           -36.7231566405      -33.0852322861       19.1774103535  W2        15980           0.0000000000
     47939     15980  TIP3      H1            -37.6405866405      -32.8145222861       19.1417603535  W2        15980           0.0000000000
     47940     15980  TIP3      H2            -36.6002166405      -33.6203922861       18.3933803535  W2        15980           0.0000000000
     47941     15981  TIP3      OH2           -36.6869566405      -33.1622422861        3.8391803535  W2        15981           0.0000000000
     47942     15981  TIP3      H1            -36.2746966405      -33.8836722861        3.3639803535  W2        15981           0.0000000000
     47943     15981  TIP3      H2            -36.0053066405      -32.4927822861        3.8976103535  W2        15981           0.0000000000
     47944     15982  TIP3      OH2           -54.4058866405      -33.1574722861        6.9662503535  W2        15982           0.0000000000
     47945     15982  TIP3      H1            -55.3310466405      -32.9488122861        6.8368003535  W2        15982           0.0000000000
     47946     15982  TIP3      H2            -53.9518966405      -32.6733922861        6.2764803535  W2        15982           0.0000000000
     47947     15983  TIP3      OH2           -39.6351666405      -18.1733022861        8.9119903535  W2        15983           0.0000000000
     47948     15983  TIP3      H1            -38.9828766405      -18.5210922861        8.3039003535  W2        15983           0.0000000000
     47949     15983  TIP3      H2            -39.1247866405      -17.6849822861        9.5579603535  W2        15983           0.0000000000
     47950     15984  TIP3      OH2           -54.4423466405      -34.4195722861       15.3105003535  W2        15984           0.0000000000
     47951     15984  TIP3      H1            -55.1072966405      -34.6655422861       15.9535903535  W2        15984           0.0000000000
     47952     15984  TIP3      H2            -54.8852166405      -33.7975322861       14.7333003535  W2        15984           0.0000000000
     47953     15985  TIP3      OH2           -52.2504166405      -21.2441622861       19.4550803535  W2        15985           0.0000000000
     47954     15985  TIP3      H1            -53.0711666405      -21.0695122861       18.9945503535  W2        15985           0.0000000000
     47955     15985  TIP3      H2            -52.5026366405      -21.3176922861       20.3755203535  W2        15985           0.0000000000
     47956     15986  TIP3      OH2           -49.2961266405      -20.2700422861       15.7134803535  W2        15986           0.0000000000
     47957     15986  TIP3      H1            -49.7210166405      -19.4601922861       15.4309403535  W2        15986           0.0000000000
     47958     15986  TIP3      H2            -48.3918466405      -20.1846322861       15.4114603535  W2        15986           0.0000000000
     47959     15987  TIP3      OH2           -44.9849866405      -18.8710422861       18.6728503535  W2        15987           0.0000000000
     47960     15987  TIP3      H1            -44.8002366405      -19.2044322861       19.5508803535  W2        15987           0.0000000000
     47961     15987  TIP3      H2            -44.1385366405      -18.5611822861       18.3507703535  W2        15987           0.0000000000
     47962     15988  TIP3      OH2           -42.6399466405      -17.5851522861       17.9169903535  W2        15988           0.0000000000
     47963     15988  TIP3      H1            -41.9630566405      -18.2179222861       17.6769103535  W2        15988           0.0000000000
     47964     15988  TIP3      H2            -42.3180666405      -17.1841022861       18.7243203535  W2        15988           0.0000000000
     47965     15989  TIP3      OH2           -37.7225666405      -34.9956022861       16.9964903535  W2        15989           0.0000000000
     47966     15989  TIP3      H1            -38.5352166405      -34.6705722861       16.6089603535  W2        15989           0.0000000000
     47967     15989  TIP3      H2            -37.4897166405      -35.7557522861       16.4634003535  W2        15989           0.0000000000
     47968     15990  TIP3      OH2           -51.8944566405      -17.0136522861       15.7610103535  W2        15990           0.0000000000
     47969     15990  TIP3      H1            -52.6148166405      -16.5735522861       15.3097803535  W2        15990           0.0000000000
     47970     15990  TIP3      H2            -52.2600566405      -17.2641822861       16.6094103535  W2        15990           0.0000000000
     47971     15991  TIP3      OH2           -49.4271966405      -17.4132622861       14.7907303535  W2        15991           0.0000000000
     47972     15991  TIP3      H1            -50.2919766405      -17.3414122861       15.1947403535  W2        15991           0.0000000000
     47973     15991  TIP3      H2            -49.4822966405      -16.8665322861       14.0069803535  W2        15991           0.0000000000
     47974     15992  TIP3      OH2           -44.7166366405      -17.5253722861       13.9663303535  W2        15992           0.0000000000
     47975     15992  TIP3      H1            -45.1732366405      -16.9964022861       13.3121703535  W2        15992           0.0000000000
     47976     15992  TIP3      H2            -44.5538366405      -16.9222322861       14.6915603535  W2        15992           0.0000000000
     47977     15993  TIP3      OH2           -42.3890066405      -18.6474122861       14.9113603535  W2        15993           0.0000000000
     47978     15993  TIP3      H1            -43.2936366405      -18.4823922861       14.6455703535  W2        15993           0.0000000000
     47979     15993  TIP3      H2            -41.9601466405      -17.7941922861       14.8457003535  W2        15993           0.0000000000
     47980     15994  TIP3      OH2           -39.7848166405      -17.0775022861       15.2061403535  W2        15994           0.0000000000
     47981     15994  TIP3      H1            -39.9666166405      -16.1616122861       14.9956303535  W2        15994           0.0000000000
     47982     15994  TIP3      H2            -39.6080366405      -17.4877922861       14.3596003535  W2        15994           0.0000000000
     47983     15995  TIP3      OH2           -52.4796466405      -18.3904022861       12.6711903535  W2        15995           0.0000000000
     47984     15995  TIP3      H1            -52.4980466405      -18.8158922861       13.5284203535  W2        15995           0.0000000000
     47985     15995  TIP3      H2            -51.6748566405      -18.7089022861       12.2624103535  W2        15995           0.0000000000
     47986     15996  TIP3      OH2           -50.3383366405      -19.6805322861       11.3261803535  W2        15996           0.0000000000
     47987     15996  TIP3      H1            -50.5572666405      -20.5967922861       11.4957803535  W2        15996           0.0000000000
     47988     15996  TIP3      H2            -49.5141166405      -19.5404922861       11.7923203535  W2        15996           0.0000000000
     47989     15997  TIP3      OH2           -47.8010866405      -19.2106022861       12.1749803535  W2        15997           0.0000000000
     47990     15997  TIP3      H1            -47.5885166405      -20.0987022861       11.8880703535  W2        15997           0.0000000000
     47991     15997  TIP3      H2            -47.7365766405      -19.2448322861       13.1293803535  W2        15997           0.0000000000
     47992     15998  TIP3      OH2           -44.2927166405      -33.5465422861       11.3193103535  W2        15998           0.0000000000
     47993     15998  TIP3      H1            -44.9670366405      -34.1759822861       11.5748903535  W2        15998           0.0000000000
     47994     15998  TIP3      H2            -43.7287966405      -34.0306522861       10.7161003535  W2        15998           0.0000000000
     47995     15999  TIP3      OH2           -39.1499966405      -35.4391422861       11.4320203535  W2        15999           0.0000000000
     47996     15999  TIP3      H1            -38.5462366405      -34.8916022861       10.9301203535  W2        15999           0.0000000000
     47997     15999  TIP3      H2            -40.0197966405      -35.1201022861       11.1914303535  W2        15999           0.0000000000
     47998     16000  TIP3      OH2           -37.4229566405      -34.3002722861        9.7651103535  W2        16000           0.0000000000
     47999     16000  TIP3      H1            -36.8112066405      -34.8147022861        9.2384703535  W2        16000           0.0000000000
     48000     16000  TIP3      H2            -37.0406166405      -33.4230622861        9.7885503535  W2        16000           0.0000000000
     48001     16001  TIP3      OH2           -51.9659666405      -34.9125122861        9.1413003535  W2        16001           0.0000000000
     48002     16001  TIP3      H1            -52.7429866405      -35.1470222861        8.6338903535  W2        16001           0.0000000000
     48003     16001  TIP3      H2            -51.4356066405      -35.7093022861        9.1501003535  W2        16001           0.0000000000
     48004     16002  TIP3      OH2           -53.1296266405      -35.1147022861        4.9449103535  W2        16002           0.0000000000
     48005     16002  TIP3      H1            -52.6905566405      -34.5036522861        4.3532603535  W2        16002           0.0000000000
     48006     16002  TIP3      H2            -53.7633866405      -34.5762922861        5.4189103535  W2        16002           0.0000000000
     48007     16003  TIP3      OH2           -47.3867066405      -34.9858022861        8.9546103535  W2        16003           0.0000000000
     48008     16003  TIP3      H1            -46.5123666405      -34.5973722861        8.9250403535  W2        16003           0.0000000000
     48009     16003  TIP3      H2            -47.5226266405      -35.2010222861        9.8773303535  W2        16003           0.0000000000
     48010     16004  TIP3      OH2           -41.8298666405      -34.9558222861       10.6037803535  W2        16004           0.0000000000
     48011     16004  TIP3      H1            -41.7537066405      -34.8606622861        9.6543803535  W2        16004           0.0000000000
     48012     16004  TIP3      H2            -42.1049466405      -35.8635322861       10.7326903535  W2        16004           0.0000000000
     48013     16005  TIP3      OH2           -40.4766066405      -34.9300422861        6.2962803535  W2        16005           0.0000000000
     48014     16005  TIP3      H1            -41.1794966405      -34.3151222861        6.0864203535  W2        16005           0.0000000000
     48015     16005  TIP3      H2            -40.9214666405      -35.7673722861        6.4273703535  W2        16005           0.0000000000
     48016     16006  TIP3      OH2           -53.2286766405      -19.1664822861        5.8424203535  W2        16006           0.0000000000
     48017     16006  TIP3      H1            -53.9136866405      -19.2045922861        5.1749303535  W2        16006           0.0000000000
     48018     16006  TIP3      H2            -53.2249566405      -18.2537222861        6.1306303535  W2        16006           0.0000000000
     48019     16007  TIP3      OH2           -51.2687166405      -33.1985522861        3.3873203535  W2        16007           0.0000000000
     48020     16007  TIP3      H1            -50.7773766405      -33.8283122861        2.8598703535  W2        16007           0.0000000000
     48021     16007  TIP3      H2            -50.6450866405      -32.9026122861        4.0504403535  W2        16007           0.0000000000
     48022     16008  TIP3      OH2           -46.2427066405      -32.9054022861        5.8443703535  W2        16008           0.0000000000
     48023     16008  TIP3      H1            -46.0645766405      -33.5520822861        6.5272303535  W2        16008           0.0000000000
     48024     16008  TIP3      H2            -46.2960866405      -32.0716322861        6.3114803535  W2        16008           0.0000000000
     48025     16009  TIP3      OH2           -44.3643266405      -17.9569922861        4.2400403535  W2        16009           0.0000000000
     48026     16009  TIP3      H1            -43.4983066405      -17.5902522861        4.0618603535  W2        16009           0.0000000000
     48027     16009  TIP3      H2            -44.6110466405      -18.3961922861        3.4261203535  W2        16009           0.0000000000
     48028     16010  TIP3      OH2           -37.6553666405      -18.3939622861        6.9191503535  W2        16010           0.0000000000
     48029     16010  TIP3      H1            -37.8496566405      -19.1417522861        6.3541103535  W2        16010           0.0000000000
     48030     16010  TIP3      H2            -37.6943566405      -17.6359522861        6.3359403535  W2        16010           0.0000000000
     48031     16011  TIP3      OH2           -52.0081666405      -34.3983222861       18.6589203535  W2        16011           0.0000000000
     48032     16011  TIP3      H1            -52.3743466405      -35.1640622861       19.1013903535  W2        16011           0.0000000000
     48033     16011  TIP3      H2            -51.0953166405      -34.3693022861       18.9454303535  W2        16011           0.0000000000
     48034     16012  TIP3      OH2           -50.0350866405      -35.0478822861       20.1946303535  W2        16012           0.0000000000
     48035     16012  TIP3      H1            -49.1367266405      -35.3218622861       20.0099703535  W2        16012           0.0000000000
     48036     16012  TIP3      H2            -50.4217766405      -35.7902822861       20.6588903535  W2        16012           0.0000000000
     48037     16013  TIP3      OH2           -51.4105566405      -18.2464022861        2.8676303535  W2        16013           0.0000000000
     48038     16013  TIP3      H1            -51.6780966405      -17.9601122861        3.7409403535  W2        16013           0.0000000000
     48039     16013  TIP3      H2            -50.6392966405      -18.7924822861        3.0198803535  W2        16013           0.0000000000
     48040     16014  TIP3      OH2           -41.6138566405      -35.7153522861       20.3769103535  W2        16014           0.0000000000
     48041     16014  TIP3      H1            -41.5371366405      -36.1412822861       21.2306803535  W2        16014           0.0000000000
     48042     16014  TIP3      H2            -40.7201966405      -35.7018822861       20.0342603535  W2        16014           0.0000000000
     48043     16015  TIP3      OH2           -38.4377466405      -19.6427222861       19.0693303535  W2        16015           0.0000000000
     48044     16015  TIP3      H1            -39.2195566405      -19.8289222861       18.5493903535  W2        16015           0.0000000000
     48045     16015  TIP3      H2            -38.5097566405      -18.7132922861       19.2865803535  W2        16015           0.0000000000
     48046     16016  TIP3      OH2           -24.0317066405      -25.7562822861        9.1000503535  W2        16016           0.0000000000
     48047     16016  TIP3      H1            -23.9425966405      -24.8124622861        8.9677603535  W2        16016           0.0000000000
     48048     16016  TIP3      H2            -24.6699466405      -26.0316422861        8.4419903535  W2        16016           0.0000000000
     48049     16017  TIP3      OH2           -25.0985766405      -26.5012122861       12.5188703535  W2        16017           0.0000000000
     48050     16017  TIP3      H1            -25.1368266405      -27.1475822861       13.2238303535  W2        16017           0.0000000000
     48051     16017  TIP3      H2            -25.4209266405      -26.9677722861       11.7477403535  W2        16017           0.0000000000
     48052     16018  TIP3      OH2           -32.7300766405      -26.8870022861       14.1118603535  W2        16018           0.0000000000
     48053     16018  TIP3      H1            -32.6888666405      -27.5126722861       14.8351003535  W2        16018           0.0000000000
     48054     16018  TIP3      H2            -32.0273066405      -26.2631422861       14.2939003535  W2        16018           0.0000000000
     48055     16019  TIP3      OH2           -21.3925566405      -23.5621722861       10.8203803535  W2        16019           0.0000000000
     48056     16019  TIP3      H1            -21.8332866405      -24.2825722861       11.2709403535  W2        16019           0.0000000000
     48057     16019  TIP3      H2            -21.4055866405      -22.8414522861       11.4501503535  W2        16019           0.0000000000
     48058     16020  TIP3      OH2           -31.8067666405      -22.4371122861       12.6467703535  W2        16020           0.0000000000
     48059     16020  TIP3      H1            -32.1762466405      -23.2390622861       12.2772003535  W2        16020           0.0000000000
     48060     16020  TIP3      H2            -30.8656566405      -22.6056222861       12.6931103535  W2        16020           0.0000000000
     48061     16021  TIP3      OH2           -35.1967166405      -28.7768522861        8.0396503535  W2        16021           0.0000000000
     48062     16021  TIP3      H1            -35.6443766405      -27.9309822861        8.0213003535  W2        16021           0.0000000000
     48063     16021  TIP3      H2            -35.7575966405      -29.3564322861        7.5241603535  W2        16021           0.0000000000
     48064     16022  TIP3      OH2           -34.4861066405      -26.6148922861       10.1654503535  W2        16022           0.0000000000
     48065     16022  TIP3      H1            -34.2727566405      -27.3847322861       10.6927503535  W2        16022           0.0000000000
     48066     16022  TIP3      H2            -33.7483466405      -26.5252222861        9.5622103535  W2        16022           0.0000000000
     48067     16023  TIP3      OH2           -24.2810066405      -18.4580022861       11.0324203535  W2        16023           0.0000000000
     48068     16023  TIP3      H1            -23.6613666405      -19.1345322861       10.7593403535  W2        16023           0.0000000000
     48069     16023  TIP3      H2            -24.4892666405      -18.6759222861       11.9409103535  W2        16023           0.0000000000
     48070     16024  TIP3      OH2           -26.7091366405      -24.0690722861       12.9249703535  W2        16024           0.0000000000
     48071     16024  TIP3      H1            -26.4053466405      -24.7549322861       12.3303803535  W2        16024           0.0000000000
     48072     16024  TIP3      H2            -25.9877366405      -23.9502022861       13.5427703535  W2        16024           0.0000000000
     48073     16025  TIP3      OH2           -18.0461566405      -32.4675422861       13.7855903535  W2        16025           0.0000000000
     48074     16025  TIP3      H1            -17.9969366405      -31.8574222861       14.5215003535  W2        16025           0.0000000000
     48075     16025  TIP3      H2            -17.6206466405      -32.0064522861       13.0627003535  W2        16025           0.0000000000
     48076     16026  TIP3      OH2           -23.5684366405      -29.6748322861       13.2524503535  W2        16026           0.0000000000
     48077     16026  TIP3      H1            -23.4258466405      -30.6211322861       13.2726103535  W2        16026           0.0000000000
     48078     16026  TIP3      H2            -23.6745366405      -29.4678522861       12.3239403535  W2        16026           0.0000000000
     48079     16027  TIP3      OH2           -30.4136066405      -31.5731922861       10.5249303535  W2        16027           0.0000000000
     48080     16027  TIP3      H1            -30.3704966405      -30.7133422861       10.1065603535  W2        16027           0.0000000000
     48081     16027  TIP3      H2            -30.8711966405      -32.1257222861        9.8912503535  W2        16027           0.0000000000
     48082     16028  TIP3      OH2           -22.6913366405      -31.4426322861        8.9257603535  W2        16028           0.0000000000
     48083     16028  TIP3      H1            -22.0449066405      -31.7713122861        9.5505203535  W2        16028           0.0000000000
     48084     16028  TIP3      H2            -22.1813966405      -30.9247322861        8.3029003535  W2        16028           0.0000000000
     48085     16029  TIP3      OH2           -33.7934566405      -29.1766122861       11.2870703535  W2        16029           0.0000000000
     48086     16029  TIP3      H1            -33.1397966405      -29.7264422861       11.7190803535  W2        16029           0.0000000000
     48087     16029  TIP3      H2            -33.7695266405      -29.4507122861       10.3702703535  W2        16029           0.0000000000
     48088     16030  TIP3      OH2           -28.6370066405      -27.6264822861       10.5022203535  W2        16030           0.0000000000
     48089     16030  TIP3      H1            -28.0209066405      -28.1529422861       11.0116203535  W2        16030           0.0000000000
     48090     16030  TIP3      H2            -29.2231266405      -28.2666122861       10.0985803535  W2        16030           0.0000000000
     48091     16031  TIP3      OH2           -17.6546966405      -30.9896222861       16.0215703535  W2        16031           0.0000000000
     48092     16031  TIP3      H1            -18.3432366405      -30.3315522861       15.9262303535  W2        16031           0.0000000000
     48093     16031  TIP3      H2            -17.6392366405      -31.1868322861       16.9581103535  W2        16031           0.0000000000
     48094     16032  TIP3      OH2           -31.6034166405      -32.6553522861       14.5990103535  W2        16032           0.0000000000
     48095     16032  TIP3      H1            -31.8222466405      -32.1252922861       13.8326103535  W2        16032           0.0000000000
     48096     16032  TIP3      H2            -32.2713266405      -32.4288022861       15.2461503535  W2        16032           0.0000000000
     48097     16033  TIP3      OH2           -24.2344366405      -23.1552422861        8.1429203535  W2        16033           0.0000000000
     48098     16033  TIP3      H1            -24.5299266405      -23.4780122861        7.2916103535  W2        16033           0.0000000000
     48099     16033  TIP3      H2            -24.5586566405      -22.2555722861        8.1841803535  W2        16033           0.0000000000
     48100     16034  TIP3      OH2           -29.0342766405      -24.9797822861       14.8863803535  W2        16034           0.0000000000
     48101     16034  TIP3      H1            -29.7743666405      -24.3816322861       14.9899003535  W2        16034           0.0000000000
     48102     16034  TIP3      H2            -28.3203266405      -24.4258222861       14.5707403535  W2        16034           0.0000000000
     48103     16035  TIP3      OH2           -20.9274966405      -32.1517022861       10.9063503535  W2        16035           0.0000000000
     48104     16035  TIP3      H1            -21.1426966405      -32.9173622861       11.4389503535  W2        16035           0.0000000000
     48105     16035  TIP3      H2            -20.2717566405      -31.6792422861       11.4192003535  W2        16035           0.0000000000
     48106     16036  TIP3      OH2           -32.0096866405      -30.7631722861       12.5512303535  W2        16036           0.0000000000
     48107     16036  TIP3      H1            -31.3960566405      -30.1304122861       12.9244703535  W2        16036           0.0000000000
     48108     16036  TIP3      H2            -31.4976166405      -31.2356722861       11.8949203535  W2        16036           0.0000000000
     48109     16037  TIP3      OH2           -30.6268466405      -23.0154822861       15.6735303535  W2        16037           0.0000000000
     48110     16037  TIP3      H1            -30.6320866405      -22.1361322861       15.2954603535  W2        16037           0.0000000000
     48111     16037  TIP3      H2            -31.4804366405      -23.0990722861       16.0985203535  W2        16037           0.0000000000
     48112     16038  TIP3      OH2           -34.5057566405      -23.3446922861        6.4554603535  W2        16038           0.0000000000
     48113     16038  TIP3      H1            -34.7776666405      -23.1155922861        5.5667503535  W2        16038           0.0000000000
     48114     16038  TIP3      H2            -34.4601866405      -22.5068122861        6.9159903535  W2        16038           0.0000000000
     48115     16039  TIP3      OH2           -20.8807866405      -21.7231022861       13.1683103535  W2        16039           0.0000000000
     48116     16039  TIP3      H1            -21.8224166405      -21.6647122861       13.3300003535  W2        16039           0.0000000000
     48117     16039  TIP3      H2            -20.6041766405      -20.8170522861       13.0312803535  W2        16039           0.0000000000
     48118     16040  TIP3      OH2           -20.5800866405      -33.4365722861       14.5857003535  W2        16040           0.0000000000
     48119     16040  TIP3      H1            -21.3161666405      -32.8258622861       14.5478303535  W2        16040           0.0000000000
     48120     16040  TIP3      H2            -19.8966866405      -33.0216722861       14.0593403535  W2        16040           0.0000000000
     48121     16041  TIP3      OH2           -27.5769466405      -35.3498422861       12.0515003535  W2        16041           0.0000000000
     48122     16041  TIP3      H1            -27.6945266405      -36.2982422861       11.9973303535  W2        16041           0.0000000000
     48123     16041  TIP3      H2            -28.4319366405      -35.0172322861       12.3246103535  W2        16041           0.0000000000
     48124     16042  TIP3      OH2           -22.6286666405      -19.9417522861        9.7934703535  W2        16042           0.0000000000
     48125     16042  TIP3      H1            -22.2034366405      -20.6489622861        9.3084303535  W2        16042           0.0000000000
     48126     16042  TIP3      H2            -22.3116666405      -19.1404822861        9.3766903535  W2        16042           0.0000000000
     48127     16043  TIP3      OH2           -21.4690166405      -22.0409022861        8.3021303535  W2        16043           0.0000000000
     48128     16043  TIP3      H1            -21.7265366405      -22.7308922861        7.6907203535  W2        16043           0.0000000000
     48129     16043  TIP3      H2            -21.3979366405      -22.4837822861        9.1477203535  W2        16043           0.0000000000
     48130     16044  TIP3      OH2           -19.7829966405      -23.4742322861       16.7794803535  W2        16044           0.0000000000
     48131     16044  TIP3      H1            -19.6433666405      -24.0659822861       16.0401803535  W2        16044           0.0000000000
     48132     16044  TIP3      H2            -19.6157166405      -22.6016422861       16.4233603535  W2        16044           0.0000000000
     48133     16045  TIP3      OH2           -25.3104566405      -26.5122822861        6.5520803535  W2        16045           0.0000000000
     48134     16045  TIP3      H1            -26.0219066405      -25.9773122861        6.2001303535  W2        16045           0.0000000000
     48135     16045  TIP3      H2            -24.6194966405      -26.4570722861        5.8919703535  W2        16045           0.0000000000
     48136     16046  TIP3      OH2           -25.2565366405      -28.0548522861        3.5905803535  W2        16046           0.0000000000
     48137     16046  TIP3      H1            -24.5555466405      -28.0321622861        4.2419803535  W2        16046           0.0000000000
     48138     16046  TIP3      H2            -24.9542466405      -28.6828822861        2.9345103535  W2        16046           0.0000000000
     48139     16047  TIP3      OH2           -17.9410666405      -27.1344322861       14.8455203535  W2        16047           0.0000000000
     48140     16047  TIP3      H1            -18.5936566405      -26.4398722861       14.9346103535  W2        16047           0.0000000000
     48141     16047  TIP3      H2            -17.4760366405      -26.9243422861       14.0356803535  W2        16047           0.0000000000
     48142     16048  TIP3      OH2           -21.9046866405      -26.3029522861        7.5036703535  W2        16048           0.0000000000
     48143     16048  TIP3      H1            -22.6365866405      -26.0745822861        8.0767303535  W2        16048           0.0000000000
     48144     16048  TIP3      H2            -21.4574666405      -27.0166822861        7.9584203535  W2        16048           0.0000000000
     48145     16049  TIP3      OH2           -22.0073366405      -28.1286922861       16.5713703535  W2        16049           0.0000000000
     48146     16049  TIP3      H1            -21.9274266405      -27.3652522861       17.1432203535  W2        16049           0.0000000000
     48147     16049  TIP3      H2            -22.6085666405      -27.8494522861       15.8808803535  W2        16049           0.0000000000
     48148     16050  TIP3      OH2           -30.2593166405      -25.6723322861        9.3861703535  W2        16050           0.0000000000
     48149     16050  TIP3      H1            -30.5897966405      -26.0429922861        8.5678703535  W2        16050           0.0000000000
     48150     16050  TIP3      H2            -29.6709066405      -26.3429322861        9.7330003535  W2        16050           0.0000000000
     48151     16051  TIP3      OH2           -28.8925666405      -22.2442722861       12.0673903535  W2        16051           0.0000000000
     48152     16051  TIP3      H1            -28.9874366405      -22.8229622861       11.3108503535  W2        16051           0.0000000000
     48153     16051  TIP3      H2            -28.1632066405      -22.6157022861       12.5636703535  W2        16051           0.0000000000
     48154     16052  TIP3      OH2           -29.8927666405      -26.9037722861       13.0196703535  W2        16052           0.0000000000
     48155     16052  TIP3      H1            -29.3275166405      -26.7823522861       12.2567903535  W2        16052           0.0000000000
     48156     16052  TIP3      H2            -29.5738766405      -26.2662722861       13.6585203535  W2        16052           0.0000000000
     48157     16053  TIP3      OH2           -23.5835466405      -21.4005822861       13.7537203535  W2        16053           0.0000000000
     48158     16053  TIP3      H1            -23.8238866405      -20.7382722861       14.4016403535  W2        16053           0.0000000000
     48159     16053  TIP3      H2            -23.7817266405      -22.2350622861       14.1786803535  W2        16053           0.0000000000
     48160     16054  TIP3      OH2           -29.0126966405      -22.5045022861       17.7368603535  W2        16054           0.0000000000
     48161     16054  TIP3      H1            -29.3239466405      -21.7221822861       18.1921803535  W2        16054           0.0000000000
     48162     16054  TIP3      H2            -29.6626766405      -22.6575922861       17.0510603535  W2        16054           0.0000000000
     48163     16055  TIP3      OH2           -23.0337366405      -27.1406622861        5.1887903535  W2        16055           0.0000000000
     48164     16055  TIP3      H1            -22.4541866405      -26.9906322861        5.9356803535  W2        16055           0.0000000000
     48165     16055  TIP3      H2            -22.6197366405      -26.6699222861        4.4654303535  W2        16055           0.0000000000
     48166     16056  TIP3      OH2           -32.0927066405      -26.3063922861       16.9654303535  W2        16056           0.0000000000
     48167     16056  TIP3      H1            -32.0223866405      -25.6557122861       17.6639303535  W2        16056           0.0000000000
     48168     16056  TIP3      H2            -32.9834866405      -26.2036422861       16.6305203535  W2        16056           0.0000000000
     48169     16057  TIP3      OH2           -25.3072466405      -20.4038122861        8.6241003535  W2        16057           0.0000000000
     48170     16057  TIP3      H1            -24.8334866405      -20.1081822861        9.4015203535  W2        16057           0.0000000000
     48171     16057  TIP3      H2            -25.8703166405      -19.6656522861        8.3910603535  W2        16057           0.0000000000
     48172     16058  TIP3      OH2           -30.7731066405      -20.4330022861       18.5002403535  W2        16058           0.0000000000
     48173     16058  TIP3      H1            -30.7655766405      -20.5690322861       17.5527903535  W2        16058           0.0000000000
     48174     16058  TIP3      H2            -31.6890666405      -20.5501922861       18.7522403535  W2        16058           0.0000000000
     48175     16059  TIP3      OH2           -19.3348966405      -35.3906222861        5.0017603535  W2        16059           0.0000000000
     48176     16059  TIP3      H1            -20.2348266405      -35.2517222861        5.2968203535  W2        16059           0.0000000000
     48177     16059  TIP3      H2            -19.0830566405      -34.5591622861        4.5999303535  W2        16059           0.0000000000
     48178     16060  TIP3      OH2           -31.2690466405      -26.6029022861        6.9754503535  W2        16060           0.0000000000
     48179     16060  TIP3      H1            -31.5609166405      -25.8347322861        6.4845803535  W2        16060           0.0000000000
     48180     16060  TIP3      H2            -31.9435266405      -27.2622822861        6.8125903535  W2        16060           0.0000000000
     48181     16061  TIP3      OH2           -18.1457566405      -21.0243822861        3.3781503535  W2        16061           0.0000000000
     48182     16061  TIP3      H1            -18.0724066405      -20.0853622861        3.5486803535  W2        16061           0.0000000000
     48183     16061  TIP3      H2            -17.2402466405      -21.3295222861        3.3218803535  W2        16061           0.0000000000
     48184     16062  TIP3      OH2           -35.1760366405      -24.2399822861       15.7904303535  W2        16062           0.0000000000
     48185     16062  TIP3      H1            -35.6771966405      -24.2680422861       14.9754003535  W2        16062           0.0000000000
     48186     16062  TIP3      H2            -35.1706666405      -25.1456622861       16.1001603535  W2        16062           0.0000000000
     48187     16063  TIP3      OH2           -35.4257666405      -21.4596022861       12.6744503535  W2        16063           0.0000000000
     48188     16063  TIP3      H1            -34.4797066405      -21.6039022861       12.6554003535  W2        16063           0.0000000000
     48189     16063  TIP3      H2            -35.5381366405      -20.6753222861       13.2115703535  W2        16063           0.0000000000
     48190     16064  TIP3      OH2           -17.2279166405      -20.7936322861       18.3568203535  W2        16064           0.0000000000
     48191     16064  TIP3      H1            -17.2772366405      -21.7488222861       18.3195803535  W2        16064           0.0000000000
     48192     16064  TIP3      H2            -18.0546866405      -20.5261022861       18.7582003535  W2        16064           0.0000000000
     48193     16065  TIP3      OH2           -26.2495166405      -21.2197122861       17.2329603535  W2        16065           0.0000000000
     48194     16065  TIP3      H1            -26.1620566405      -20.3932522861       17.7078703535  W2        16065           0.0000000000
     48195     16065  TIP3      H2            -27.1130066405      -21.5493322861       17.4818903535  W2        16065           0.0000000000
     48196     16066  TIP3      OH2           -25.8349366405      -17.4473422861        7.0390203535  W2        16066           0.0000000000
     48197     16066  TIP3      H1            -25.9103366405      -17.5686222861        6.0925403535  W2        16066           0.0000000000
     48198     16066  TIP3      H2            -25.8020666405      -16.4980722861        7.1574803535  W2        16066           0.0000000000
     48199     16067  TIP3      OH2           -32.1815566405      -18.6586422861        8.8199203535  W2        16067           0.0000000000
     48200     16067  TIP3      H1            -32.0295166405      -19.0066022861        9.6985703535  W2        16067           0.0000000000
     48201     16067  TIP3      H2            -33.0325166405      -19.0149122861        8.5646403535  W2        16067           0.0000000000
     48202     16068  TIP3      OH2           -22.7333366405      -18.2933222861        4.0412603535  W2        16068           0.0000000000
     48203     16068  TIP3      H1            -22.3584966405      -19.0377122861        3.5705203535  W2        16068           0.0000000000
     48204     16068  TIP3      H2            -22.7289666405      -18.5632622861        4.9595903535  W2        16068           0.0000000000
     48205     16069  TIP3      OH2           -23.0645266405      -18.3676122861        6.7904803535  W2        16069           0.0000000000
     48206     16069  TIP3      H1            -23.9995466405      -18.2674222861        6.9691803535  W2        16069           0.0000000000
     48207     16069  TIP3      H2            -22.7843366405      -19.0770122861        7.3688003535  W2        16069           0.0000000000
     48208     16070  TIP3      OH2           -20.0759366405      -29.3003822861       18.8370403535  W2        16070           0.0000000000
     48209     16070  TIP3      H1            -20.4832566405      -28.8198222861       18.1163703535  W2        16070           0.0000000000
     48210     16070  TIP3      H2            -20.0353666405      -30.2057822861       18.5291203535  W2        16070           0.0000000000
     48211     16071  TIP3      OH2           -32.9269866405      -22.9164422861       16.8337103535  W2        16071           0.0000000000
     48212     16071  TIP3      H1            -32.7108566405      -23.2778822861       17.6932903535  W2        16071           0.0000000000
     48213     16071  TIP3      H2            -33.7825166405      -23.2910622861       16.6240603535  W2        16071           0.0000000000
     48214     16072  TIP3      OH2           -30.3081866405      -34.4463922861       12.8291303535  W2        16072           0.0000000000
     48215     16072  TIP3      H1            -31.1698166405      -34.5335722861       12.4214203535  W2        16072           0.0000000000
     48216     16072  TIP3      H2            -30.3306166405      -33.5903822861       13.2568903535  W2        16072           0.0000000000
     48217     16073  TIP3      OH2           -25.6454066405      -34.7243522861       16.2038303535  W2        16073           0.0000000000
     48218     16073  TIP3      H1            -25.2250966405      -35.1396422861       16.9568903535  W2        16073           0.0000000000
     48219     16073  TIP3      H2            -26.5784466405      -34.9030222861       16.3210303535  W2        16073           0.0000000000
     48220     16074  TIP3      OH2           -22.3189166405      -30.9688322861       17.0572803535  W2        16074           0.0000000000
     48221     16074  TIP3      H1            -22.8329666405      -31.0946122861       17.8548803535  W2        16074           0.0000000000
     48222     16074  TIP3      H2            -22.4744466405      -30.0565222861       16.8129003535  W2        16074           0.0000000000
     48223     16075  TIP3      OH2           -21.5564266405      -26.1078322861        2.8185803535  W2        16075           0.0000000000
     48224     16075  TIP3      H1            -21.5143466405      -26.3304422861        1.8885803535  W2        16075           0.0000000000
     48225     16075  TIP3      H2            -20.7072166405      -25.7091222861        3.0085703535  W2        16075           0.0000000000
     48226     16076  TIP3      OH2           -25.9836766405      -32.2320122861        3.4889103535  W2        16076           0.0000000000
     48227     16076  TIP3      H1            -26.2371966405      -32.2128522861        4.4117203535  W2        16076           0.0000000000
     48228     16076  TIP3      H2            -26.2404666405      -33.1034722861        3.1875303535  W2        16076           0.0000000000
     48229     16077  TIP3      OH2           -30.2171766405      -29.4809422861       13.9241503535  W2        16077           0.0000000000
     48230     16077  TIP3      H1            -30.8589666405      -29.5212122861       14.6331603535  W2        16077           0.0000000000
     48231     16077  TIP3      H2            -30.1799766405      -28.5544722861       13.6864503535  W2        16077           0.0000000000
     48232     16078  TIP3      OH2           -30.2202666405      -29.2599322861        8.8361503535  W2        16078           0.0000000000
     48233     16078  TIP3      H1            -31.1129766405      -29.6003222861        8.7775303535  W2        16078           0.0000000000
     48234     16078  TIP3      H2            -29.7696066405      -29.6368422861        8.0804703535  W2        16078           0.0000000000
     48235     16079  TIP3      OH2           -24.6847166405      -28.8439022861        7.6532303535  W2        16079           0.0000000000
     48236     16079  TIP3      H1            -25.0936866405      -28.0290422861        7.3617103535  W2        16079           0.0000000000
     48237     16079  TIP3      H2            -23.9640966405      -28.9838922861        7.0389403535  W2        16079           0.0000000000
     48238     16080  TIP3      OH2           -25.5825566405      -28.6682622861       19.1413003535  W2        16080           0.0000000000
     48239     16080  TIP3      H1            -26.1451766405      -29.3731022861       19.4620803535  W2        16080           0.0000000000
     48240     16080  TIP3      H2            -24.7562166405      -28.7890722861       19.6090603535  W2        16080           0.0000000000
     48241     16081  TIP3      OH2           -23.6799466405      -29.3978622861       10.4672003535  W2        16081           0.0000000000
     48242     16081  TIP3      H1            -23.8754966405      -28.7921822861        9.7522603535  W2        16081           0.0000000000
     48243     16081  TIP3      H2            -23.4986866405      -30.2313422861       10.0328303535  W2        16081           0.0000000000
     48244     16082  TIP3      OH2           -32.4671266405      -29.1605922861       15.7913503535  W2        16082           0.0000000000
     48245     16082  TIP3      H1            -32.5051866405      -28.7604322861       16.6600603535  W2        16082           0.0000000000
     48246     16082  TIP3      H2            -32.9580166405      -29.9773522861       15.8816403535  W2        16082           0.0000000000
     48247     16083  TIP3      OH2           -29.1013866405      -31.7863622861        2.5899503535  W2        16083           0.0000000000
     48248     16083  TIP3      H1            -29.5323166405      -32.2313522861        3.3196903535  W2        16083           0.0000000000
     48249     16083  TIP3      H2            -29.8195166405      -31.4147322861        2.0777003535  W2        16083           0.0000000000
     48250     16084  TIP3      OH2           -35.8590466405      -32.0444122861        9.6418203535  W2        16084           0.0000000000
     48251     16084  TIP3      H1            -35.2282766405      -32.0732022861       10.3612103535  W2        16084           0.0000000000
     48252     16084  TIP3      H2            -35.4096166405      -32.4695422861        8.9114103535  W2        16084           0.0000000000
     48253     16085  TIP3      OH2           -34.5848366405      -31.2982122861        5.0658603535  W2        16085           0.0000000000
     48254     16085  TIP3      H1            -34.1106666405      -30.7072222861        4.4809503535  W2        16085           0.0000000000
     48255     16085  TIP3      H2            -35.3021966405      -30.7679222861        5.4128703535  W2        16085           0.0000000000
     48256     16086  TIP3      OH2           -24.4160266405      -27.7597322861       15.1384403535  W2        16086           0.0000000000
     48257     16086  TIP3      H1            -24.0925466405      -28.3907622861       14.4954903535  W2        16086           0.0000000000
     48258     16086  TIP3      H2            -24.8560966405      -28.2945122861       15.7991803535  W2        16086           0.0000000000
     48259     16087  TIP3      OH2           -27.6387366405      -31.8321822861        9.9225603535  W2        16087           0.0000000000
     48260     16087  TIP3      H1            -28.5496266405      -31.7755022861       10.2111603535  W2        16087           0.0000000000
     48261     16087  TIP3      H2            -27.1334466405      -31.8926322861       10.7332803535  W2        16087           0.0000000000
     48262     16088  TIP3      OH2           -32.8103966405      -30.2035522861        8.7493203535  W2        16088           0.0000000000
     48263     16088  TIP3      H1            -33.6995966405      -30.1040022861        8.4092803535  W2        16088           0.0000000000
     48264     16088  TIP3      H2            -32.5139066405      -31.0452522861        8.4031103535  W2        16088           0.0000000000
     48265     16089  TIP3      OH2           -29.1572166405      -30.2032922861        6.4057803535  W2        16089           0.0000000000
     48266     16089  TIP3      H1            -28.2256666405      -30.0742922861        6.5840903535  W2        16089           0.0000000000
     48267     16089  TIP3      H2            -29.3721866405      -29.5338622861        5.7562503535  W2        16089           0.0000000000
     48268     16090  TIP3      OH2           -23.2335466405      -32.5975522861       13.1867403535  W2        16090           0.0000000000
     48269     16090  TIP3      H1            -23.9103866405      -32.4662422861       13.8507103535  W2        16090           0.0000000000
     48270     16090  TIP3      H2            -23.7190566405      -32.7526022861       12.3765103535  W2        16090           0.0000000000
     48271     16091  TIP3      OH2           -30.4831966405      -29.0090722861        3.9723903535  W2        16091           0.0000000000
     48272     16091  TIP3      H1            -31.0256866405      -29.3886922861        3.2811503535  W2        16091           0.0000000000
     48273     16091  TIP3      H2            -29.6497066405      -28.8146022861        3.5438003535  W2        16091           0.0000000000
     48274     16092  TIP3      OH2           -19.9460366405      -16.9260122861       19.4635003535  W2        16092           0.0000000000
     48275     16092  TIP3      H1            -19.7461666405      -16.5018222861       18.6290303535  W2        16092           0.0000000000
     48276     16092  TIP3      H2            -19.2906666405      -16.5821922861       20.0705403535  W2        16092           0.0000000000
     48277     16093  TIP3      OH2           -32.3480566405      -24.4518822861       19.0715503535  W2        16093           0.0000000000
     48278     16093  TIP3      H1            -31.6158166405      -24.1972922861       19.6330003535  W2        16093           0.0000000000
     48279     16093  TIP3      H2            -33.1281866405      -24.2473422861       19.5870903535  W2        16093           0.0000000000
     48280     16094  TIP3      OH2           -26.3187666405      -29.0448822861       11.8095203535  W2        16094           0.0000000000
     48281     16094  TIP3      H1            -25.7544266405      -29.5912222861       11.2624803535  W2        16094           0.0000000000
     48282     16094  TIP3      H2            -26.4664266405      -29.5666922861       12.5982803535  W2        16094           0.0000000000
     48283     16095  TIP3      OH2           -31.3167966405      -32.9082722861        8.2280003535  W2        16095           0.0000000000
     48284     16095  TIP3      H1            -31.6338466405      -33.8107422861        8.1925403535  W2        16095           0.0000000000
     48285     16095  TIP3      H2            -30.5353866405      -32.9065322861        7.6751603535  W2        16095           0.0000000000
     48286     16096  TIP3      OH2           -27.6921766405      -30.6562722861       14.2235603535  W2        16096           0.0000000000
     48287     16096  TIP3      H1            -28.5276466405      -30.2023222861       14.3338003535  W2        16096           0.0000000000
     48288     16096  TIP3      H2            -27.1681166405      -30.3804222861       14.9755503535  W2        16096           0.0000000000
     48289     16097  TIP3      OH2           -27.1479166405      -24.4435022861        5.9082003535  W2        16097           0.0000000000
     48290     16097  TIP3      H1            -27.8928166405      -24.9509722861        5.5859903535  W2        16097           0.0000000000
     48291     16097  TIP3      H2            -27.2821966405      -24.3947022861        6.8546803535  W2        16097           0.0000000000
     48292     16098  TIP3      OH2           -19.9980266405      -25.3106822861       14.6949603535  W2        16098           0.0000000000
     48293     16098  TIP3      H1            -19.3561466405      -24.8540522861       14.1511803535  W2        16098           0.0000000000
     48294     16098  TIP3      H2            -20.8283366405      -25.1974422861       14.2323703535  W2        16098           0.0000000000
     48295     16099  TIP3      OH2           -23.2502366405      -31.6295122861        4.1074603535  W2        16099           0.0000000000
     48296     16099  TIP3      H1            -24.1888166405      -31.5179522861        3.9563403535  W2        16099           0.0000000000
     48297     16099  TIP3      H2            -22.9530266405      -30.7728222861        4.4140303535  W2        16099           0.0000000000
     48298     16100  TIP3      OH2           -25.6287066405      -24.2591722861       17.1451103535  W2        16100           0.0000000000
     48299     16100  TIP3      H1            -25.9740966405      -24.6409322861       17.9520703535  W2        16100           0.0000000000
     48300     16100  TIP3      H2            -25.8286966405      -23.3258122861       17.2164003535  W2        16100           0.0000000000
     48301     16101  TIP3      OH2           -22.5318866405      -29.7622422861        5.7682003535  W2        16101           0.0000000000
     48302     16101  TIP3      H1            -21.6399866405      -29.8997422861        6.0873203535  W2        16101           0.0000000000
     48303     16101  TIP3      H2            -22.4755266405      -28.9716322861        5.2315503535  W2        16101           0.0000000000
     48304     16102  TIP3      OH2           -32.0230866405      -25.1485022861       11.6779903535  W2        16102           0.0000000000
     48305     16102  TIP3      H1            -31.2783666405      -25.1509322861       11.0766403535  W2        16102           0.0000000000
     48306     16102  TIP3      H2            -31.9454266405      -25.9721222861       12.1595003535  W2        16102           0.0000000000
     48307     16103  TIP3      OH2           -25.0225066405      -22.9850722861        4.9336603535  W2        16103           0.0000000000
     48308     16103  TIP3      H1            -25.3176666405      -22.1582822861        5.3151403535  W2        16103           0.0000000000
     48309     16103  TIP3      H2            -25.7255066405      -23.6043822861        5.1298003535  W2        16103           0.0000000000
     48310     16104  TIP3      OH2           -35.0151166405      -26.6878122861       16.9928403535  W2        16104           0.0000000000
     48311     16104  TIP3      H1            -34.7922566405      -27.1058522861       17.8245903535  W2        16104           0.0000000000
     48312     16104  TIP3      H2            -35.6171066405      -27.3003122861       16.5701203535  W2        16104           0.0000000000
     48313     16105  TIP3      OH2           -27.9986266405      -27.1708222861       19.2058103535  W2        16105           0.0000000000
     48314     16105  TIP3      H1            -28.2945466405      -27.3365222861       18.3107203535  W2        16105           0.0000000000
     48315     16105  TIP3      H2            -27.0671066405      -27.3907922861       19.1952003535  W2        16105           0.0000000000
     48316     16106  TIP3      OH2           -23.3783466405      -21.7976222861       17.0956103535  W2        16106           0.0000000000
     48317     16106  TIP3      H1            -24.2789166405      -21.6143622861       16.8280003535  W2        16106           0.0000000000
     48318     16106  TIP3      H2            -23.3442366405      -21.5386922861       18.0164903535  W2        16106           0.0000000000
     48319     16107  TIP3      OH2           -17.6470166405      -29.5528322861        5.4628703535  W2        16107           0.0000000000
     48320     16107  TIP3      H1            -18.2013866405      -29.9490322861        4.7906203535  W2        16107           0.0000000000
     48321     16107  TIP3      H2            -17.5466566405      -28.6423122861        5.1852003535  W2        16107           0.0000000000
     48322     16108  TIP3      OH2           -17.6838166405      -23.7526622861       18.3000203535  W2        16108           0.0000000000
     48323     16108  TIP3      H1            -18.5349666405      -23.5142822861       17.9326603535  W2        16108           0.0000000000
     48324     16108  TIP3      H2            -17.0934766405      -23.7693422861       17.5467303535  W2        16108           0.0000000000
     48325     16109  TIP3      OH2           -19.3518466405      -20.7667922861        5.9280803535  W2        16109           0.0000000000
     48326     16109  TIP3      H1            -19.7247366405      -21.5924122861        6.2371403535  W2        16109           0.0000000000
     48327     16109  TIP3      H2            -19.0744966405      -20.9498522861        5.0304203535  W2        16109           0.0000000000
     48328     16110  TIP3      OH2           -22.1914566405      -25.9588422861       12.9492703535  W2        16110           0.0000000000
     48329     16110  TIP3      H1            -23.1197666405      -26.1906522861       12.9222003535  W2        16110           0.0000000000
     48330     16110  TIP3      H2            -21.7403466405      -26.7358622861       12.6191503535  W2        16110           0.0000000000
     48331     16111  TIP3      OH2           -29.6481466405      -21.6306822861        9.0821403535  W2        16111           0.0000000000
     48332     16111  TIP3      H1            -29.1209266405      -20.8572422861        8.8820203535  W2        16111           0.0000000000
     48333     16111  TIP3      H2            -30.5282966405      -21.4057622861        8.7805403535  W2        16111           0.0000000000
     48334     16112  TIP3      OH2           -33.8933766405      -26.7682722861        3.6693803535  W2        16112           0.0000000000
     48335     16112  TIP3      H1            -33.2773866405      -26.1415522861        4.0488603535  W2        16112           0.0000000000
     48336     16112  TIP3      H2            -34.7551166405      -26.4522922861        3.9410303535  W2        16112           0.0000000000
     48337     16113  TIP3      OH2           -28.2209166405      -23.9676922861        8.6585703535  W2        16113           0.0000000000
     48338     16113  TIP3      H1            -28.4619166405      -23.0422522861        8.7001003535  W2        16113           0.0000000000
     48339     16113  TIP3      H2            -28.9615566405      -24.4265622861        9.0549603535  W2        16113           0.0000000000
     48340     16114  TIP3      OH2           -27.7062566405      -19.8183322861       14.9736803535  W2        16114           0.0000000000
     48341     16114  TIP3      H1            -27.3437866405      -18.9637722861       14.7401203535  W2        16114           0.0000000000
     48342     16114  TIP3      H2            -27.1747366405      -20.1101722861       15.7143103535  W2        16114           0.0000000000
     48343     16115  TIP3      OH2           -29.5378366405      -18.9459322861        8.2037903535  W2        16115           0.0000000000
     48344     16115  TIP3      H1            -30.4877866405      -18.8401922861        8.2551203535  W2        16115           0.0000000000
     48345     16115  TIP3      H2            -29.1860266405      -18.1251922861        8.5485403535  W2        16115           0.0000000000
     48346     16116  TIP3      OH2           -24.1621766405      -23.7192622861       14.6742403535  W2        16116           0.0000000000
     48347     16116  TIP3      H1            -24.5880466405      -23.9470922861       15.5006403535  W2        16116           0.0000000000
     48348     16116  TIP3      H2            -23.5815966405      -24.4580822861       14.4917703535  W2        16116           0.0000000000
     48349     16117  TIP3      OH2           -21.9592866405      -22.7902122861        3.7481403535  W2        16117           0.0000000000
     48350     16117  TIP3      H1            -21.6059766405      -23.1702322861        4.5524903535  W2        16117           0.0000000000
     48351     16117  TIP3      H2            -22.9079366405      -22.8837322861        3.8350703535  W2        16117           0.0000000000
     48352     16118  TIP3      OH2           -21.5037566405      -19.1673122861       17.1437203535  W2        16118           0.0000000000
     48353     16118  TIP3      H1            -22.1054366405      -19.7230222861       16.6483503535  W2        16118           0.0000000000
     48354     16118  TIP3      H2            -21.2223866405      -18.5003322861       16.5174603535  W2        16118           0.0000000000
     48355     16119  TIP3      OH2           -17.4558466405      -18.3109622861        3.9491603535  W2        16119           0.0000000000
     48356     16119  TIP3      H1            -16.7120566405      -17.7249122861        3.8093203535  W2        16119           0.0000000000
     48357     16119  TIP3      H2            -18.1500366405      -17.7423822861        4.2824003535  W2        16119           0.0000000000
     48358     16120  TIP3      OH2           -33.3811666405      -31.9345422861       16.5509803535  W2        16120           0.0000000000
     48359     16120  TIP3      H1            -34.2739366405      -31.5960022861       16.4833803535  W2        16120           0.0000000000
     48360     16120  TIP3      H2            -33.4798866405      -32.7899322861       16.9690603535  W2        16120           0.0000000000
     48361     16121  TIP3      OH2           -21.0933566405      -24.1180122861        5.9749303535  W2        16121           0.0000000000
     48362     16121  TIP3      H1            -21.3705966405      -24.8460822861        6.5310403535  W2        16121           0.0000000000
     48363     16121  TIP3      H2            -20.1660566405      -23.9988122861        6.1801903535  W2        16121           0.0000000000
     48364     16122  TIP3      OH2           -33.7299666405      -20.1301022861       14.9859203535  W2        16122           0.0000000000
     48365     16122  TIP3      H1            -33.5129366405      -21.0618622861       14.9548903535  W2        16122           0.0000000000
     48366     16122  TIP3      H2            -33.4836166405      -19.8556022861       15.8692003535  W2        16122           0.0000000000
     48367     16123  TIP3      OH2           -27.8685066405      -21.6786022861        2.1951403535  W2        16123           0.0000000000
     48368     16123  TIP3      H1            -27.6295266405      -22.4267922861        1.6480303535  W2        16123           0.0000000000
     48369     16123  TIP3      H2            -28.1373766405      -22.0664322861        3.0279203535  W2        16123           0.0000000000
     48370     16124  TIP3      OH2           -28.9314466405      -22.1082222861        4.6514003535  W2        16124           0.0000000000
     48371     16124  TIP3      H1            -28.7846466405      -22.6282422861        5.4414903535  W2        16124           0.0000000000
     48372     16124  TIP3      H2            -28.9342766405      -21.2014622861        4.9579903535  W2        16124           0.0000000000
     48373     16125  TIP3      OH2           -32.4783366405      -24.8558922861        5.1619403535  W2        16125           0.0000000000
     48374     16125  TIP3      H1            -33.1644066405      -24.5036422861        5.7289103535  W2        16125           0.0000000000
     48375     16125  TIP3      H2            -31.9555466405      -24.0929322861        4.9153703535  W2        16125           0.0000000000
     48376     16126  TIP3      OH2           -24.6468266405      -32.1935122861       15.4408403535  W2        16126           0.0000000000
     48377     16126  TIP3      H1            -23.9480366405      -32.1196422861       16.0908103535  W2        16126           0.0000000000
     48378     16126  TIP3      H2            -25.0276866405      -33.0580122861       15.5951303535  W2        16126           0.0000000000
     48379     16127  TIP3      OH2           -23.8623366405      -32.5413422861        6.5380703535  W2        16127           0.0000000000
     48380     16127  TIP3      H1            -23.6425066405      -32.0698022861        5.7346103535  W2        16127           0.0000000000
     48381     16127  TIP3      H2            -23.3039366405      -32.1470822861        7.2081303535  W2        16127           0.0000000000
     48382     16128  TIP3      OH2           -26.1937266405      -20.4108622861        5.4008203535  W2        16128           0.0000000000
     48383     16128  TIP3      H1            -27.0101166405      -19.9138922861        5.4532503535  W2        16128           0.0000000000
     48384     16128  TIP3      H2            -25.6640966405      -19.9355122861        4.7607003535  W2        16128           0.0000000000
     48385     16129  TIP3      OH2           -26.6623466405      -30.8134622861        7.3729103535  W2        16129           0.0000000000
     48386     16129  TIP3      H1            -25.8500866405      -30.3091422861        7.4190803535  W2        16129           0.0000000000
     48387     16129  TIP3      H2            -26.9070466405      -30.9584922861        8.2868703535  W2        16129           0.0000000000
     48388     16130  TIP3      OH2           -26.1267066405      -29.8271922861       16.5575703535  W2        16130           0.0000000000
     48389     16130  TIP3      H1            -26.0076766405      -29.2536522861       17.3146103535  W2        16130           0.0000000000
     48390     16130  TIP3      H2            -25.4712466405      -30.5152522861       16.6723503535  W2        16130           0.0000000000
     48391     16131  TIP3      OH2           -25.7786766405      -33.7321622861        8.3110203535  W2        16131           0.0000000000
     48392     16131  TIP3      H1            -26.1253266405      -33.1151022861        8.9554503535  W2        16131           0.0000000000
     48393     16131  TIP3      H2            -25.1199866405      -33.2315922861        7.8295703535  W2        16131           0.0000000000
     48394     16132  TIP3      OH2           -28.8554166405      -19.3671422861        5.3825103535  W2        16132           0.0000000000
     48395     16132  TIP3      H1            -28.6945466405      -18.5673922861        4.8817703535  W2        16132           0.0000000000
     48396     16132  TIP3      H2            -29.0526366405      -19.0605422861        6.2675703535  W2        16132           0.0000000000
     48397     16133  TIP3      OH2           -30.1209766405      -32.6692222861        4.9982703535  W2        16133           0.0000000000
     48398     16133  TIP3      H1            -30.2044966405      -31.7809122861        5.3449103535  W2        16133           0.0000000000
     48399     16133  TIP3      H2            -29.2309466405      -32.9345522861        5.2299503535  W2        16133           0.0000000000
     48400     16134  TIP3      OH2           -19.9221266405      -31.9201622861       17.3925403535  W2        16134           0.0000000000
     48401     16134  TIP3      H1            -20.8385466405      -31.6579922861       17.3049103535  W2        16134           0.0000000000
     48402     16134  TIP3      H2            -19.5866266405      -31.9232622861       16.4960703535  W2        16134           0.0000000000
     48403     16135  TIP3      OH2           -21.3200266405      -28.1700622861       11.4882703535  W2        16135           0.0000000000
     48404     16135  TIP3      H1            -22.1175866405      -28.5850422861       11.1597703535  W2        16135           0.0000000000
     48405     16135  TIP3      H2            -20.8749166405      -28.8606922861       11.9793203535  W2        16135           0.0000000000
     48406     16136  TIP3      OH2           -31.8624466405      -22.2420022861        4.0587203535  W2        16136           0.0000000000
     48407     16136  TIP3      H1            -31.2702966405      -21.5425222861        4.3349603535  W2        16136           0.0000000000
     48408     16136  TIP3      H2            -31.4031466405      -22.6750522861        3.3391803535  W2        16136           0.0000000000
     48409     16137  TIP3      OH2           -33.5465266405      -29.5777022861        3.1746603535  W2        16137           0.0000000000
     48410     16137  TIP3      H1            -33.5912666405      -28.6383922861        3.3533603535  W2        16137           0.0000000000
     48411     16137  TIP3      H2            -34.4342066405      -29.8132122861        2.9048703535  W2        16137           0.0000000000
     48412     16138  TIP3      OH2           -20.2335666405      -18.9138122861       13.1106203535  W2        16138           0.0000000000
     48413     16138  TIP3      H1            -20.3891366405      -18.2353722861       12.4535503535  W2        16138           0.0000000000
     48414     16138  TIP3      H2            -19.3009266405      -18.8418822861       13.3136803535  W2        16138           0.0000000000
     48415     16139  TIP3      OH2           -32.7383266405      -34.7960422861       11.8477603535  W2        16139           0.0000000000
     48416     16139  TIP3      H1            -32.9673466405      -34.7367922861       10.9202603535  W2        16139           0.0000000000
     48417     16139  TIP3      H2            -33.1809866405      -35.5874922861       12.1541703535  W2        16139           0.0000000000
     48418     16140  TIP3      OH2           -33.8079966405      -20.8553322861        8.0083403535  W2        16140           0.0000000000
     48419     16140  TIP3      H1            -34.6401366405      -20.3830622861        8.0354803535  W2        16140           0.0000000000
     48420     16140  TIP3      H2            -33.2621666405      -20.3455722861        7.4096503535  W2        16140           0.0000000000
     48421     16141  TIP3      OH2           -34.5196266405      -18.2429622861       19.3381403535  W2        16141           0.0000000000
     48422     16141  TIP3      H1            -33.9794066405      -18.4595622861       20.0980603535  W2        16141           0.0000000000
     48423     16141  TIP3      H2            -35.0008266405      -19.0483622861       19.1483903535  W2        16141           0.0000000000
     48424     16142  TIP3      OH2           -29.9222866405      -19.3235222861       20.9585603535  W2        16142           0.0000000000
     48425     16142  TIP3      H1            -29.1545666405      -19.7824422861       21.2994803535  W2        16142           0.0000000000
     48426     16142  TIP3      H2            -29.9436666405      -19.5495422861       20.0286803535  W2        16142           0.0000000000
     48427     16143  TIP3      OH2           -25.8303266405      -19.8154622861        2.3337403535  W2        16143           0.0000000000
     48428     16143  TIP3      H1            -26.4742266405      -20.4466022861        2.6551103535  W2        16143           0.0000000000
     48429     16143  TIP3      H2            -25.0684966405      -20.3466622861        2.1020903535  W2        16143           0.0000000000
     48430     16144  TIP3      OH2           -23.3454166405      -20.9434122861       19.6877103535  W2        16144           0.0000000000
     48431     16144  TIP3      H1            -23.6964666405      -21.8001122861       19.9307503535  W2        16144           0.0000000000
     48432     16144  TIP3      H2            -22.6190966405      -20.8007422861       20.2946103535  W2        16144           0.0000000000
     48433     16145  TIP3      OH2           -21.2260366405      -19.9984722861        2.5675403535  W2        16145           0.0000000000
     48434     16145  TIP3      H1            -20.9429966405      -20.7929522861        3.0202303535  W2        16145           0.0000000000
     48435     16145  TIP3      H2            -20.4862466405      -19.7653722861        2.0066503535  W2        16145           0.0000000000
     48436     16146  TIP3      OH2           -34.6126766405      -24.4325522861       20.2925703535  W2        16146           0.0000000000
     48437     16146  TIP3      H1            -34.4686266405      -25.3344822861       20.0062403535  W2        16146           0.0000000000
     48438     16146  TIP3      H2            -35.3849366405      -24.1463422861       19.8048003535  W2        16146           0.0000000000
     48439     16147  TIP3      OH2           -30.2713066405      -24.0889822861        2.4250303535  W2        16147           0.0000000000
     48440     16147  TIP3      H1            -30.2068966405      -24.8830222861        2.9556703535  W2        16147           0.0000000000
     48441     16147  TIP3      H2            -29.6183866405      -24.2077022861        1.7352303535  W2        16147           0.0000000000
     48442     16148  TIP3      OH2           -27.9570666405      -24.4627422861       19.7252103535  W2        16148           0.0000000000
     48443     16148  TIP3      H1            -28.2856866405      -24.1919322861       18.8679503535  W2        16148           0.0000000000
     48444     16148  TIP3      H2            -27.8052466405      -25.4037622861       19.6377103535  W2        16148           0.0000000000
     48445     16149  TIP3      OH2           -24.9189666405      -23.0418122861        2.1608303535  W2        16149           0.0000000000
     48446     16149  TIP3      H1            -25.1875566405      -22.8616022861        3.0617203535  W2        16149           0.0000000000
     48447     16149  TIP3      H2            -25.1254066405      -23.9671922861        2.0294103535  W2        16149           0.0000000000
     48448     16150  TIP3      OH2           -22.2225466405      -24.5470122861       17.1084403535  W2        16150           0.0000000000
     48449     16150  TIP3      H1            -21.4770666405      -23.9586422861       16.9888403535  W2        16150           0.0000000000
     48450     16150  TIP3      H2            -22.9798666405      -23.9650422861       17.1717503535  W2        16150           0.0000000000
     48451     16151  TIP3      OH2           -33.7800266405      -27.2322222861       19.7125003535  W2        16151           0.0000000000
     48452     16151  TIP3      H1            -33.3719066405      -28.0895622861       19.5915603535  W2        16151           0.0000000000
     48453     16151  TIP3      H2            -34.0402666405      -27.2180922861       20.6335303535  W2        16151           0.0000000000
     48454     16152  TIP3      OH2           -29.1219266405      -26.1163622861        4.7308303535  W2        16152           0.0000000000
     48455     16152  TIP3      H1            -29.5817266405      -26.6005322861        5.4166803535  W2        16152           0.0000000000
     48456     16152  TIP3      H2            -28.8670566405      -26.7848222861        4.0948803535  W2        16152           0.0000000000
     48457     16153  TIP3      OH2           -29.8329966405      -28.2236522861       17.0867903535  W2        16153           0.0000000000
     48458     16153  TIP3      H1            -30.4513866405      -27.5489922861       17.3672603535  W2        16153           0.0000000000
     48459     16153  TIP3      H2            -29.4888766405      -27.9022622861       16.2534103535  W2        16153           0.0000000000
     48460     16154  TIP3      OH2           -28.0508866405      -27.8731822861        2.9931503535  W2        16154           0.0000000000
     48461     16154  TIP3      H1            -28.2313866405      -28.0280622861        2.0659803535  W2        16154           0.0000000000
     48462     16154  TIP3      H2            -27.1008366405      -27.7653122861        3.0379403535  W2        16154           0.0000000000
     48463     16155  TIP3      OH2           -24.8131766405      -25.7521222861       20.3642703535  W2        16155           0.0000000000
     48464     16155  TIP3      H1            -23.8600566405      -25.6682122861       20.3368703535  W2        16155           0.0000000000
     48465     16155  TIP3      H2            -24.9737166405      -26.4639422861       20.9837603535  W2        16155           0.0000000000
     48466     16156  TIP3      OH2           -18.6610566405      -25.5187622861        2.4389603535  W2        16156           0.0000000000
     48467     16156  TIP3      H1            -18.9345766405      -25.9432122861        1.6257903535  W2        16156           0.0000000000
     48468     16156  TIP3      H2            -18.6216466405      -24.5873122861        2.2220003535  W2        16156           0.0000000000
     48469     16157  TIP3      OH2           -29.4936266405      -30.8685722861       18.1691003535  W2        16157           0.0000000000
     48470     16157  TIP3      H1            -29.3435366405      -31.5974422861       17.5670703535  W2        16157           0.0000000000
     48471     16157  TIP3      H2            -29.4913866405      -30.0914022861       17.6103203535  W2        16157           0.0000000000
     48472     16158  TIP3      OH2           -29.0810566405      -32.4989922861       15.6618403535  W2        16158           0.0000000000
     48473     16158  TIP3      H1            -28.5453066405      -32.0473222861       15.0097703535  W2        16158           0.0000000000
     48474     16158  TIP3      H2            -29.9330966405      -32.6070122861       15.2392503535  W2        16158           0.0000000000
     48475     16159  TIP3      OH2           -27.4992166405      -27.0593722861       15.9013603535  W2        16159           0.0000000000
     48476     16159  TIP3      H1            -26.7487366405      -27.2156222861       15.3281403535  W2        16159           0.0000000000
     48477     16159  TIP3      H2            -27.8383866405      -26.2077122861       15.6259103535  W2        16159           0.0000000000
     48478     16160  TIP3      OH2           -23.0835966405      -29.2441922861       20.9298903535  W2        16160           0.0000000000
     48479     16160  TIP3      H1            -22.8914666405      -30.1752522861       20.8183403535  W2        16160           0.0000000000
     48480     16160  TIP3      H2            -22.2259666405      -28.8192422861       20.9194303535  W2        16160           0.0000000000
     48481     16161  TIP3      OH2           -21.7668766405      -26.4556722861       19.0071603535  W2        16161           0.0000000000
     48482     16161  TIP3      H1            -22.0483766405      -25.7462122861       18.4295403535  W2        16161           0.0000000000
     48483     16161  TIP3      H2            -20.8244466405      -26.5283722861       18.8562803535  W2        16161           0.0000000000
     48484     16162  TIP3      OH2           -31.0149966405      -29.6702222861       20.0806603535  W2        16162           0.0000000000
     48485     16162  TIP3      H1            -31.7820966405      -30.2027422861       19.8704203535  W2        16162           0.0000000000
     48486     16162  TIP3      H2            -30.3360966405      -29.9801822861       19.4812903535  W2        16162           0.0000000000
     48487     16163  TIP3      OH2           -28.2755066405      -35.0424222861       16.0932003535  W2        16163           0.0000000000
     48488     16163  TIP3      H1            -28.3735466405      -34.0961022861       15.9878203535  W2        16163           0.0000000000
     48489     16163  TIP3      H2            -29.0178866405      -35.4150422861       15.6175503535  W2        16163           0.0000000000
     48490     16164  TIP3      OH2           -27.0114566405      -30.7208822861       19.6570403535  W2        16164           0.0000000000
     48491     16164  TIP3      H1            -27.2469166405      -30.9402122861       20.5585303535  W2        16164           0.0000000000
     48492     16164  TIP3      H2            -27.7947666405      -30.9277622861       19.1472903535  W2        16164           0.0000000000
     48493     16165  TIP3      OH2           -24.2957966405      -31.5935322861       18.7323903535  W2        16165           0.0000000000
     48494     16165  TIP3      H1            -25.2432566405      -31.5615622861       18.8647203535  W2        16165           0.0000000000
     48495     16165  TIP3      H2            -23.9831266405      -32.2188222861       19.3862103535  W2        16165           0.0000000000
     48496     16166  TIP3      OH2           -22.6616466405      -32.9594222861       20.7375803535  W2        16166           0.0000000000
     48497     16166  TIP3      H1            -22.7584666405      -33.9116922861       20.7317703535  W2        16166           0.0000000000
     48498     16166  TIP3      H2            -22.9833366405      -32.6907422861       21.5981303535  W2        16166           0.0000000000
     48499     16167  TIP3      OH2           -32.8347166405      -31.7498422861       19.7851303535  W2        16167           0.0000000000
     48500     16167  TIP3      H1            -32.6229766405      -32.4562322861       19.1748803535  W2        16167           0.0000000000
     48501     16167  TIP3      H2            -32.9459666405      -32.1872422861       20.6292503535  W2        16167           0.0000000000
     48502     16168  TIP3      OH2           -28.0536966405      -35.7486822861       18.7644803535  W2        16168           0.0000000000
     48503     16168  TIP3      H1            -27.3418566405      -36.3884622861       18.7503903535  W2        16168           0.0000000000
     48504     16168  TIP3      H2            -28.1546566405      -35.4818522861       17.8507903535  W2        16168           0.0000000000
     48505     16169  TIP3      OH2           -27.6999466405      -34.0658422861       20.8181103535  W2        16169           0.0000000000
     48506     16169  TIP3      H1            -27.8317266405      -34.5414622861       19.9979603535  W2        16169           0.0000000000
     48507     16169  TIP3      H2            -28.2992066405      -33.3214822861       20.7628203535  W2        16169           0.0000000000
     48508     16170  TIP3      OH2           -28.1537166405      -17.1828122861        3.9945103535  W2        16170           0.0000000000
     48509     16170  TIP3      H1            -27.2206466405      -17.0249422861        4.1383503535  W2        16170           0.0000000000
     48510     16170  TIP3      H2            -28.4178366405      -16.5075122861        3.3696603535  W2        16170           0.0000000000
     48511     16171  TIP3      OH2           -34.5852266405      -22.5464322861        3.4773203535  W2        16171           0.0000000000
     48512     16171  TIP3      H1            -33.6713066405      -22.4675422861        3.7507103535  W2        16171           0.0000000000
     48513     16171  TIP3      H2            -34.5779166405      -23.2334722861        2.8108803535  W2        16171           0.0000000000
     48514     16172  TIP3      OH2           -35.9361666405      -17.1535822861        8.5547103535  W2        16172           0.0000000000
     48515     16172  TIP3      H1            -36.5834566405      -17.6154122861        8.0218303535  W2        16172           0.0000000000
     48516     16172  TIP3      H2            -35.5817066405      -17.8252522861        9.1373303535  W2        16172           0.0000000000
     48517     16173  TIP3      OH2           -35.0662466405      -19.0728822861       10.3593303535  W2        16173           0.0000000000
     48518     16173  TIP3      H1            -35.4005666405      -19.9531522861       10.5313503535  W2        16173           0.0000000000
     48519     16173  TIP3      H2            -34.8440066405      -18.7273822861       11.2238903535  W2        16173           0.0000000000
     48520     16174  TIP3      OH2           -17.5177666405      -18.2632422861       13.3398103535  W2        16174           0.0000000000
     48521     16174  TIP3      H1            -17.5390966405      -18.0784022861       14.2787503535  W2        16174           0.0000000000
     48522     16174  TIP3      H2            -16.8271466405      -17.6948422861       12.9989503535  W2        16174           0.0000000000
     48523     16175  TIP3      OH2           -17.9544766405      -18.6961322861       16.2617203535  W2        16175           0.0000000000
     48524     16175  TIP3      H1            -18.4416066405      -19.4317222861       15.8904603535  W2        16175           0.0000000000
     48525     16175  TIP3      H2            -17.4052066405      -19.0897422861       16.9396603535  W2        16175           0.0000000000
     48526     16176  TIP3      OH2           -19.5037466405      -22.9063222861       20.8997503535  W2        16176           0.0000000000
     48527     16176  TIP3      H1            -20.3696366405      -23.0113522861       21.2939803535  W2        16176           0.0000000000
     48528     16176  TIP3      H2            -19.1271566405      -22.1479922861       21.3462203535  W2        16176           0.0000000000
     48529     16177  TIP3      OH2           -18.2027766405      -24.6499522861        6.4140003535  W2        16177           0.0000000000
     48530     16177  TIP3      H1            -17.3526366405      -24.2288622861        6.5411603535  W2        16177           0.0000000000
     48531     16177  TIP3      H2            -18.1972666405      -25.3899422861        7.0211403535  W2        16177           0.0000000000
     48532     16178  TIP3      OH2           -17.8082166405      -26.5962122861        8.2375703535  W2        16178           0.0000000000
     48533     16178  TIP3      H1            -18.5347566405      -27.0759522861        8.6353303535  W2        16178           0.0000000000
     48534     16178  TIP3      H2            -17.2268866405      -26.3907422861        8.9697303535  W2        16178           0.0000000000
     48535     16179  TIP3      OH2           -18.0490966405      -23.8114622861       13.1853303535  W2        16179           0.0000000000
     48536     16179  TIP3      H1            -17.2156766405      -24.1894622861       12.9046903535  W2        16179           0.0000000000
     48537     16179  TIP3      H2            -17.9370666405      -22.8683422861       13.0662403535  W2        16179           0.0000000000
     48538     16180  TIP3      OH2           -19.5628666405      -20.9337122861       15.4921703535  W2        16180           0.0000000000
     48539     16180  TIP3      H1            -20.2103366405      -20.6085622861       16.1176903535  W2        16180           0.0000000000
     48540     16180  TIP3      H2            -20.0804666405      -21.3739422861       14.8180003535  W2        16180           0.0000000000
     48541     16181  TIP3      OH2           -17.5399066405      -26.6953622861        4.6287003535  W2        16181           0.0000000000
     48542     16181  TIP3      H1            -18.0617966405      -26.3389522861        3.9097903535  W2        16181           0.0000000000
     48543     16181  TIP3      H2            -17.5729866405      -26.0205822861        5.3067903535  W2        16181           0.0000000000
     48544     16182  TIP3      OH2           -19.1910066405      -29.4558022861        3.1794103535  W2        16182           0.0000000000
     48545     16182  TIP3      H1            -19.0945666405      -28.7891022861        2.4993803535  W2        16182           0.0000000000
     48546     16182  TIP3      H2            -19.3310466405      -30.2711722861        2.6979603535  W2        16182           0.0000000000
     48547     16183  TIP3      OH2           -20.0215366405      -28.0755622861        8.8004403535  W2        16183           0.0000000000
     48548     16183  TIP3      H1            -20.1716566405      -29.0207022861        8.7802203535  W2        16183           0.0000000000
     48549     16183  TIP3      H2            -20.3750866405      -27.7944222861        9.6443503535  W2        16183           0.0000000000
     48550     16184  TIP3      OH2           -34.9862966405      -25.9973422861       12.8108203535  W2        16184           0.0000000000
     48551     16184  TIP3      H1            -34.8020066405      -26.0791722861       11.8751103535  W2        16184           0.0000000000
     48552     16184  TIP3      H2            -34.1370066405      -26.1216422861       13.2344603535  W2        16184           0.0000000000
     48553     16185  TIP3      OH2           -19.1652466405      -26.1052322861       18.4392703535  W2        16185           0.0000000000
     48554     16185  TIP3      H1            -18.5825166405      -26.8400022861       18.6309903535  W2        16185           0.0000000000
     48555     16185  TIP3      H2            -18.6013166405      -25.3332022861       18.4858503535  W2        16185           0.0000000000
     48556     16186  TIP3      OH2           -17.6685366405      -28.2026522861       19.1238103535  W2        16186           0.0000000000
     48557     16186  TIP3      H1            -18.5318666405      -28.5814422861       18.9582803535  W2        16186           0.0000000000
     48558     16186  TIP3      H2            -17.0641666405      -28.9411722861       19.0493903535  W2        16186           0.0000000000
     48559     16187  TIP3      OH2           -19.9436266405      -32.0478222861        2.2969603535  W2        16187           0.0000000000
     48560     16187  TIP3      H1            -19.3330466405      -32.4191422861        2.9337803535  W2        16187           0.0000000000
     48561     16187  TIP3      H2            -20.7804766405      -32.4691322861        2.4929603535  W2        16187           0.0000000000
     48562     16188  TIP3      OH2           -20.3110566405      -30.4929822861        7.2629503535  W2        16188           0.0000000000
     48563     16188  TIP3      H1            -20.0313466405      -31.3999422861        7.3871203535  W2        16188           0.0000000000
     48564     16188  TIP3      H2            -19.5518866405      -30.0588322861        6.8738703535  W2        16188           0.0000000000
     48565     16189  TIP3      OH2           -19.6992266405      -29.9112422861       12.6988403535  W2        16189           0.0000000000
     48566     16189  TIP3      H1            -18.7664266405      -29.6992522861       12.6644403535  W2        16189           0.0000000000
     48567     16189  TIP3      H2            -19.9344766405      -29.8100322861       13.6211403535  W2        16189           0.0000000000
     48568     16190  TIP3      OH2           -19.6700366405      -29.1747122861       15.4747803535  W2        16190           0.0000000000
     48569     16190  TIP3      H1            -20.5129066405      -28.9066722861       15.8407603535  W2        16190           0.0000000000
     48570     16190  TIP3      H2            -19.2276066405      -28.3525222861       15.2638903535  W2        16190           0.0000000000
     48571     16191  TIP3      OH2           -35.3888166405      -30.7268422861       18.9517003535  W2        16191           0.0000000000
     48572     16191  TIP3      H1            -34.4693266405      -30.8490122861       19.1880103535  W2        16191           0.0000000000
     48573     16191  TIP3      H2            -35.8383666405      -31.4768722861       19.3410503535  W2        16191           0.0000000000
     48574     16192  TIP3      OH2           -17.3868766405      -35.1946922861       20.8282803535  W2        16192           0.0000000000
     48575     16192  TIP3      H1            -17.0371766405      -35.8483422861       20.2227503535  W2        16192           0.0000000000
     48576     16192  TIP3      H2            -17.2399266405      -34.3572822861       20.3885403535  W2        16192           0.0000000000
     48577     16193  TIP3      OH2           -19.6975766405      -33.2300522861        7.3111503535  W2        16193           0.0000000000
     48578     16193  TIP3      H1            -19.5150766405      -33.6789022861        8.1366503535  W2        16193           0.0000000000
     48579     16193  TIP3      H2            -20.2972866405      -33.8146122861        6.8476103535  W2        16193           0.0000000000
     48580     16194  TIP3      OH2           -34.1675666405      -32.4146822861       11.8429903535  W2        16194           0.0000000000
     48581     16194  TIP3      H1            -33.7224066405      -33.2064322861       12.1449603535  W2        16194           0.0000000000
     48582     16194  TIP3      H2            -33.7012666405      -31.6981622861       12.2735503535  W2        16194           0.0000000000
     48583     16195  TIP3      OH2           -35.8635366405      -29.4153822861       12.9120103535  W2        16195           0.0000000000
     48584     16195  TIP3      H1            -35.3715566405      -29.6363322861       12.1212103535  W2        16195           0.0000000000
     48585     16195  TIP3      H2            -35.5014466405      -28.5750422861       13.1929603535  W2        16195           0.0000000000
     48586     16196  TIP3      OH2           -17.8671566405      -33.0852322861       19.1774103535  W2        16196           0.0000000000
     48587     16196  TIP3      H1            -18.7845866405      -32.8145222861       19.1417603535  W2        16196           0.0000000000
     48588     16196  TIP3      H2            -17.7442166405      -33.6203922861       18.3933803535  W2        16196           0.0000000000
     48589     16197  TIP3      OH2           -17.8309566405      -33.1622422861        3.8391803535  W2        16197           0.0000000000
     48590     16197  TIP3      H1            -17.4186966405      -33.8836722861        3.3639803535  W2        16197           0.0000000000
     48591     16197  TIP3      H2            -17.1493066405      -32.4927822861        3.8976103535  W2        16197           0.0000000000
     48592     16198  TIP3      OH2           -35.5498866405      -33.1574722861        6.9662503535  W2        16198           0.0000000000
     48593     16198  TIP3      H1            -36.4750466405      -32.9488122861        6.8368003535  W2        16198           0.0000000000
     48594     16198  TIP3      H2            -35.0958966405      -32.6733922861        6.2764803535  W2        16198           0.0000000000
     48595     16199  TIP3      OH2           -20.7791666405      -18.1733022861        8.9119903535  W2        16199           0.0000000000
     48596     16199  TIP3      H1            -20.1268766405      -18.5210922861        8.3039003535  W2        16199           0.0000000000
     48597     16199  TIP3      H2            -20.2687866405      -17.6849822861        9.5579603535  W2        16199           0.0000000000
     48598     16200  TIP3      OH2           -35.5863466405      -34.4195722861       15.3105003535  W2        16200           0.0000000000
     48599     16200  TIP3      H1            -36.2512966405      -34.6655422861       15.9535903535  W2        16200           0.0000000000
     48600     16200  TIP3      H2            -36.0292166405      -33.7975322861       14.7333003535  W2        16200           0.0000000000
     48601     16201  TIP3      OH2           -33.3944166405      -21.2441622861       19.4550803535  W2        16201           0.0000000000
     48602     16201  TIP3      H1            -34.2151666405      -21.0695122861       18.9945503535  W2        16201           0.0000000000
     48603     16201  TIP3      H2            -33.6466366405      -21.3176922861       20.3755203535  W2        16201           0.0000000000
     48604     16202  TIP3      OH2           -30.4401266405      -20.2700422861       15.7134803535  W2        16202           0.0000000000
     48605     16202  TIP3      H1            -30.8650166405      -19.4601922861       15.4309403535  W2        16202           0.0000000000
     48606     16202  TIP3      H2            -29.5358466405      -20.1846322861       15.4114603535  W2        16202           0.0000000000
     48607     16203  TIP3      OH2           -26.1289866405      -18.8710422861       18.6728503535  W2        16203           0.0000000000
     48608     16203  TIP3      H1            -25.9442366405      -19.2044322861       19.5508803535  W2        16203           0.0000000000
     48609     16203  TIP3      H2            -25.2825366405      -18.5611822861       18.3507703535  W2        16203           0.0000000000
     48610     16204  TIP3      OH2           -23.7839466405      -17.5851522861       17.9169903535  W2        16204           0.0000000000
     48611     16204  TIP3      H1            -23.1070566405      -18.2179222861       17.6769103535  W2        16204           0.0000000000
     48612     16204  TIP3      H2            -23.4620666405      -17.1841022861       18.7243203535  W2        16204           0.0000000000
     48613     16205  TIP3      OH2           -18.8665666405      -34.9956022861       16.9964903535  W2        16205           0.0000000000
     48614     16205  TIP3      H1            -19.6792166405      -34.6705722861       16.6089603535  W2        16205           0.0000000000
     48615     16205  TIP3      H2            -18.6337166405      -35.7557522861       16.4634003535  W2        16205           0.0000000000
     48616     16206  TIP3      OH2           -33.0384566405      -17.0136522861       15.7610103535  W2        16206           0.0000000000
     48617     16206  TIP3      H1            -33.7588166405      -16.5735522861       15.3097803535  W2        16206           0.0000000000
     48618     16206  TIP3      H2            -33.4040566405      -17.2641822861       16.6094103535  W2        16206           0.0000000000
     48619     16207  TIP3      OH2           -30.5711966405      -17.4132622861       14.7907303535  W2        16207           0.0000000000
     48620     16207  TIP3      H1            -31.4359766405      -17.3414122861       15.1947403535  W2        16207           0.0000000000
     48621     16207  TIP3      H2            -30.6262966405      -16.8665322861       14.0069803535  W2        16207           0.0000000000
     48622     16208  TIP3      OH2           -25.8606366405      -17.5253722861       13.9663303535  W2        16208           0.0000000000
     48623     16208  TIP3      H1            -26.3172366405      -16.9964022861       13.3121703535  W2        16208           0.0000000000
     48624     16208  TIP3      H2            -25.6978366405      -16.9222322861       14.6915603535  W2        16208           0.0000000000
     48625     16209  TIP3      OH2           -23.5330066405      -18.6474122861       14.9113603535  W2        16209           0.0000000000
     48626     16209  TIP3      H1            -24.4376366405      -18.4823922861       14.6455703535  W2        16209           0.0000000000
     48627     16209  TIP3      H2            -23.1041466405      -17.7941922861       14.8457003535  W2        16209           0.0000000000
     48628     16210  TIP3      OH2           -20.9288166405      -17.0775022861       15.2061403535  W2        16210           0.0000000000
     48629     16210  TIP3      H1            -21.1106166405      -16.1616122861       14.9956303535  W2        16210           0.0000000000
     48630     16210  TIP3      H2            -20.7520366405      -17.4877922861       14.3596003535  W2        16210           0.0000000000
     48631     16211  TIP3      OH2           -33.6236466405      -18.3904022861       12.6711903535  W2        16211           0.0000000000
     48632     16211  TIP3      H1            -33.6420466405      -18.8158922861       13.5284203535  W2        16211           0.0000000000
     48633     16211  TIP3      H2            -32.8188566405      -18.7089022861       12.2624103535  W2        16211           0.0000000000
     48634     16212  TIP3      OH2           -31.4823366405      -19.6805322861       11.3261803535  W2        16212           0.0000000000
     48635     16212  TIP3      H1            -31.7012666405      -20.5967922861       11.4957803535  W2        16212           0.0000000000
     48636     16212  TIP3      H2            -30.6581166405      -19.5404922861       11.7923203535  W2        16212           0.0000000000
     48637     16213  TIP3      OH2           -28.9450866405      -19.2106022861       12.1749803535  W2        16213           0.0000000000
     48638     16213  TIP3      H1            -28.7325166405      -20.0987022861       11.8880703535  W2        16213           0.0000000000
     48639     16213  TIP3      H2            -28.8805766405      -19.2448322861       13.1293803535  W2        16213           0.0000000000
     48640     16214  TIP3      OH2           -25.4367166405      -33.5465422861       11.3193103535  W2        16214           0.0000000000
     48641     16214  TIP3      H1            -26.1110366405      -34.1759822861       11.5748903535  W2        16214           0.0000000000
     48642     16214  TIP3      H2            -24.8727966405      -34.0306522861       10.7161003535  W2        16214           0.0000000000
     48643     16215  TIP3      OH2           -20.2939966405      -35.4391422861       11.4320203535  W2        16215           0.0000000000
     48644     16215  TIP3      H1            -19.6902366405      -34.8916022861       10.9301203535  W2        16215           0.0000000000
     48645     16215  TIP3      H2            -21.1637966405      -35.1201022861       11.1914303535  W2        16215           0.0000000000
     48646     16216  TIP3      OH2           -18.5669566405      -34.3002722861        9.7651103535  W2        16216           0.0000000000
     48647     16216  TIP3      H1            -17.9552066405      -34.8147022861        9.2384703535  W2        16216           0.0000000000
     48648     16216  TIP3      H2            -18.1846166405      -33.4230622861        9.7885503535  W2        16216           0.0000000000
     48649     16217  TIP3      OH2           -33.1099666405      -34.9125122861        9.1413003535  W2        16217           0.0000000000
     48650     16217  TIP3      H1            -33.8869866405      -35.1470222861        8.6338903535  W2        16217           0.0000000000
     48651     16217  TIP3      H2            -32.5796066405      -35.7093022861        9.1501003535  W2        16217           0.0000000000
     48652     16218  TIP3      OH2           -34.2736266405      -35.1147022861        4.9449103535  W2        16218           0.0000000000
     48653     16218  TIP3      H1            -33.8345566405      -34.5036522861        4.3532603535  W2        16218           0.0000000000
     48654     16218  TIP3      H2            -34.9073866405      -34.5762922861        5.4189103535  W2        16218           0.0000000000
     48655     16219  TIP3      OH2           -28.5307066405      -34.9858022861        8.9546103535  W2        16219           0.0000000000
     48656     16219  TIP3      H1            -27.6563666405      -34.5973722861        8.9250403535  W2        16219           0.0000000000
     48657     16219  TIP3      H2            -28.6666266405      -35.2010222861        9.8773303535  W2        16219           0.0000000000
     48658     16220  TIP3      OH2           -22.9738666405      -34.9558222861       10.6037803535  W2        16220           0.0000000000
     48659     16220  TIP3      H1            -22.8977066405      -34.8606622861        9.6543803535  W2        16220           0.0000000000
     48660     16220  TIP3      H2            -23.2489466405      -35.8635322861       10.7326903535  W2        16220           0.0000000000
     48661     16221  TIP3      OH2           -21.6206066405      -34.9300422861        6.2962803535  W2        16221           0.0000000000
     48662     16221  TIP3      H1            -22.3234966405      -34.3151222861        6.0864203535  W2        16221           0.0000000000
     48663     16221  TIP3      H2            -22.0654666405      -35.7673722861        6.4273703535  W2        16221           0.0000000000
     48664     16222  TIP3      OH2           -34.3726766405      -19.1664822861        5.8424203535  W2        16222           0.0000000000
     48665     16222  TIP3      H1            -35.0576866405      -19.2045922861        5.1749303535  W2        16222           0.0000000000
     48666     16222  TIP3      H2            -34.3689566405      -18.2537222861        6.1306303535  W2        16222           0.0000000000
     48667     16223  TIP3      OH2           -32.4127166405      -33.1985522861        3.3873203535  W2        16223           0.0000000000
     48668     16223  TIP3      H1            -31.9213766405      -33.8283122861        2.8598703535  W2        16223           0.0000000000
     48669     16223  TIP3      H2            -31.7890866405      -32.9026122861        4.0504403535  W2        16223           0.0000000000
     48670     16224  TIP3      OH2           -27.3867066405      -32.9054022861        5.8443703535  W2        16224           0.0000000000
     48671     16224  TIP3      H1            -27.2085766405      -33.5520822861        6.5272303535  W2        16224           0.0000000000
     48672     16224  TIP3      H2            -27.4400866405      -32.0716322861        6.3114803535  W2        16224           0.0000000000
     48673     16225  TIP3      OH2           -25.5083266405      -17.9569922861        4.2400403535  W2        16225           0.0000000000
     48674     16225  TIP3      H1            -24.6423066405      -17.5902522861        4.0618603535  W2        16225           0.0000000000
     48675     16225  TIP3      H2            -25.7550466405      -18.3961922861        3.4261203535  W2        16225           0.0000000000
     48676     16226  TIP3      OH2           -18.7993666405      -18.3939622861        6.9191503535  W2        16226           0.0000000000
     48677     16226  TIP3      H1            -18.9936566405      -19.1417522861        6.3541103535  W2        16226           0.0000000000
     48678     16226  TIP3      H2            -18.8383566405      -17.6359522861        6.3359403535  W2        16226           0.0000000000
     48679     16227  TIP3      OH2           -33.1521666405      -34.3983222861       18.6589203535  W2        16227           0.0000000000
     48680     16227  TIP3      H1            -33.5183466405      -35.1640622861       19.1013903535  W2        16227           0.0000000000
     48681     16227  TIP3      H2            -32.2393166405      -34.3693022861       18.9454303535  W2        16227           0.0000000000
     48682     16228  TIP3      OH2           -31.1790866405      -35.0478822861       20.1946303535  W2        16228           0.0000000000
     48683     16228  TIP3      H1            -30.2807266405      -35.3218622861       20.0099703535  W2        16228           0.0000000000
     48684     16228  TIP3      H2            -31.5657766405      -35.7902822861       20.6588903535  W2        16228           0.0000000000
     48685     16229  TIP3      OH2           -32.5545566405      -18.2464022861        2.8676303535  W2        16229           0.0000000000
     48686     16229  TIP3      H1            -32.8220966405      -17.9601122861        3.7409403535  W2        16229           0.0000000000
     48687     16229  TIP3      H2            -31.7832966405      -18.7924822861        3.0198803535  W2        16229           0.0000000000
     48688     16230  TIP3      OH2           -22.7578566405      -35.7153522861       20.3769103535  W2        16230           0.0000000000
     48689     16230  TIP3      H1            -22.6811366405      -36.1412822861       21.2306803535  W2        16230           0.0000000000
     48690     16230  TIP3      H2            -21.8641966405      -35.7018822861       20.0342603535  W2        16230           0.0000000000
     48691     16231  TIP3      OH2           -19.5817466405      -19.6427222861       19.0693303535  W2        16231           0.0000000000
     48692     16231  TIP3      H1            -20.3635566405      -19.8289222861       18.5493903535  W2        16231           0.0000000000
     48693     16231  TIP3      H2            -19.6537566405      -18.7132922861       19.2865803535  W2        16231           0.0000000000
     48694     16232  TIP3      OH2            -5.1757066405      -25.7562822861        9.1000503535  W2        16232           0.0000000000
     48695     16232  TIP3      H1             -5.0865966405      -24.8124622861        8.9677603535  W2        16232           0.0000000000
     48696     16232  TIP3      H2             -5.8139466405      -26.0316422861        8.4419903535  W2        16232           0.0000000000
     48697     16233  TIP3      OH2            -6.2425766405      -26.5012122861       12.5188703535  W2        16233           0.0000000000
     48698     16233  TIP3      H1             -6.2808266405      -27.1475822861       13.2238303535  W2        16233           0.0000000000
     48699     16233  TIP3      H2             -6.5649266405      -26.9677722861       11.7477403535  W2        16233           0.0000000000
     48700     16234  TIP3      OH2           -13.8740766405      -26.8870022861       14.1118603535  W2        16234           0.0000000000
     48701     16234  TIP3      H1            -13.8328666405      -27.5126722861       14.8351003535  W2        16234           0.0000000000
     48702     16234  TIP3      H2            -13.1713066405      -26.2631422861       14.2939003535  W2        16234           0.0000000000
     48703     16235  TIP3      OH2            -2.5365566405      -23.5621722861       10.8203803535  W2        16235           0.0000000000
     48704     16235  TIP3      H1             -2.9772866405      -24.2825722861       11.2709403535  W2        16235           0.0000000000
     48705     16235  TIP3      H2             -2.5495866405      -22.8414522861       11.4501503535  W2        16235           0.0000000000
     48706     16236  TIP3      OH2           -12.9507666405      -22.4371122861       12.6467703535  W2        16236           0.0000000000
     48707     16236  TIP3      H1            -13.3202466405      -23.2390622861       12.2772003535  W2        16236           0.0000000000
     48708     16236  TIP3      H2            -12.0096566405      -22.6056222861       12.6931103535  W2        16236           0.0000000000
     48709     16237  TIP3      OH2           -16.3407166405      -28.7768522861        8.0396503535  W2        16237           0.0000000000
     48710     16237  TIP3      H1            -16.7883766405      -27.9309822861        8.0213003535  W2        16237           0.0000000000
     48711     16237  TIP3      H2            -16.9015966405      -29.3564322861        7.5241603535  W2        16237           0.0000000000
     48712     16238  TIP3      OH2           -15.6301066405      -26.6148922861       10.1654503535  W2        16238           0.0000000000
     48713     16238  TIP3      H1            -15.4167566405      -27.3847322861       10.6927503535  W2        16238           0.0000000000
     48714     16238  TIP3      H2            -14.8923466405      -26.5252222861        9.5622103535  W2        16238           0.0000000000
     48715     16239  TIP3      OH2            -5.4250066405      -18.4580022861       11.0324203535  W2        16239           0.0000000000
     48716     16239  TIP3      H1             -4.8053666405      -19.1345322861       10.7593403535  W2        16239           0.0000000000
     48717     16239  TIP3      H2             -5.6332666405      -18.6759222861       11.9409103535  W2        16239           0.0000000000
     48718     16240  TIP3      OH2            -7.8531366405      -24.0690722861       12.9249703535  W2        16240           0.0000000000
     48719     16240  TIP3      H1             -7.5493466405      -24.7549322861       12.3303803535  W2        16240           0.0000000000
     48720     16240  TIP3      H2             -7.1317366405      -23.9502022861       13.5427703535  W2        16240           0.0000000000
     48721     16241  TIP3      OH2             0.8098433595      -32.4675422861       13.7855903535  W2        16241           0.0000000000
     48722     16241  TIP3      H1              0.8590633595      -31.8574222861       14.5215003535  W2        16241           0.0000000000
     48723     16241  TIP3      H2              1.2353533595      -32.0064522861       13.0627003535  W2        16241           0.0000000000
     48724     16242  TIP3      OH2            -4.7124366405      -29.6748322861       13.2524503535  W2        16242           0.0000000000
     48725     16242  TIP3      H1             -4.5698466405      -30.6211322861       13.2726103535  W2        16242           0.0000000000
     48726     16242  TIP3      H2             -4.8185366405      -29.4678522861       12.3239403535  W2        16242           0.0000000000
     48727     16243  TIP3      OH2           -11.5576066405      -31.5731922861       10.5249303535  W2        16243           0.0000000000
     48728     16243  TIP3      H1            -11.5144966405      -30.7133422861       10.1065603535  W2        16243           0.0000000000
     48729     16243  TIP3      H2            -12.0151966405      -32.1257222861        9.8912503535  W2        16243           0.0000000000
     48730     16244  TIP3      OH2            -3.8353366405      -31.4426322861        8.9257603535  W2        16244           0.0000000000
     48731     16244  TIP3      H1             -3.1889066405      -31.7713122861        9.5505203535  W2        16244           0.0000000000
     48732     16244  TIP3      H2             -3.3253966405      -30.9247322861        8.3029003535  W2        16244           0.0000000000
     48733     16245  TIP3      OH2           -14.9374566405      -29.1766122861       11.2870703535  W2        16245           0.0000000000
     48734     16245  TIP3      H1            -14.2837966405      -29.7264422861       11.7190803535  W2        16245           0.0000000000
     48735     16245  TIP3      H2            -14.9135266405      -29.4507122861       10.3702703535  W2        16245           0.0000000000
     48736     16246  TIP3      OH2            -9.7810066405      -27.6264822861       10.5022203535  W2        16246           0.0000000000
     48737     16246  TIP3      H1             -9.1649066405      -28.1529422861       11.0116203535  W2        16246           0.0000000000
     48738     16246  TIP3      H2            -10.3671266405      -28.2666122861       10.0985803535  W2        16246           0.0000000000
     48739     16247  TIP3      OH2             1.2013033595      -30.9896222861       16.0215703535  W2        16247           0.0000000000
     48740     16247  TIP3      H1              0.5127633595      -30.3315522861       15.9262303535  W2        16247           0.0000000000
     48741     16247  TIP3      H2              1.2167633595      -31.1868322861       16.9581103535  W2        16247           0.0000000000
     48742     16248  TIP3      OH2           -12.7474166405      -32.6553522861       14.5990103535  W2        16248           0.0000000000
     48743     16248  TIP3      H1            -12.9662466405      -32.1252922861       13.8326103535  W2        16248           0.0000000000
     48744     16248  TIP3      H2            -13.4153266405      -32.4288022861       15.2461503535  W2        16248           0.0000000000
     48745     16249  TIP3      OH2            -5.3784366405      -23.1552422861        8.1429203535  W2        16249           0.0000000000
     48746     16249  TIP3      H1             -5.6739266405      -23.4780122861        7.2916103535  W2        16249           0.0000000000
     48747     16249  TIP3      H2             -5.7026566405      -22.2555722861        8.1841803535  W2        16249           0.0000000000
     48748     16250  TIP3      OH2           -10.1782766405      -24.9797822861       14.8863803535  W2        16250           0.0000000000
     48749     16250  TIP3      H1            -10.9183666405      -24.3816322861       14.9899003535  W2        16250           0.0000000000
     48750     16250  TIP3      H2             -9.4643266405      -24.4258222861       14.5707403535  W2        16250           0.0000000000
     48751     16251  TIP3      OH2            -2.0714966405      -32.1517022861       10.9063503535  W2        16251           0.0000000000
     48752     16251  TIP3      H1             -2.2866966405      -32.9173622861       11.4389503535  W2        16251           0.0000000000
     48753     16251  TIP3      H2             -1.4157566405      -31.6792422861       11.4192003535  W2        16251           0.0000000000
     48754     16252  TIP3      OH2           -13.1536866405      -30.7631722861       12.5512303535  W2        16252           0.0000000000
     48755     16252  TIP3      H1            -12.5400566405      -30.1304122861       12.9244703535  W2        16252           0.0000000000
     48756     16252  TIP3      H2            -12.6416166405      -31.2356722861       11.8949203535  W2        16252           0.0000000000
     48757     16253  TIP3      OH2           -11.7708466405      -23.0154822861       15.6735303535  W2        16253           0.0000000000
     48758     16253  TIP3      H1            -11.7760866405      -22.1361322861       15.2954603535  W2        16253           0.0000000000
     48759     16253  TIP3      H2            -12.6244366405      -23.0990722861       16.0985203535  W2        16253           0.0000000000
     48760     16254  TIP3      OH2           -15.6497566405      -23.3446922861        6.4554603535  W2        16254           0.0000000000
     48761     16254  TIP3      H1            -15.9216666405      -23.1155922861        5.5667503535  W2        16254           0.0000000000
     48762     16254  TIP3      H2            -15.6041866405      -22.5068122861        6.9159903535  W2        16254           0.0000000000
     48763     16255  TIP3      OH2            -2.0247866405      -21.7231022861       13.1683103535  W2        16255           0.0000000000
     48764     16255  TIP3      H1             -2.9664166405      -21.6647122861       13.3300003535  W2        16255           0.0000000000
     48765     16255  TIP3      H2             -1.7481766405      -20.8170522861       13.0312803535  W2        16255           0.0000000000
     48766     16256  TIP3      OH2            -1.7240866405      -33.4365722861       14.5857003535  W2        16256           0.0000000000
     48767     16256  TIP3      H1             -2.4601666405      -32.8258622861       14.5478303535  W2        16256           0.0000000000
     48768     16256  TIP3      H2             -1.0406866405      -33.0216722861       14.0593403535  W2        16256           0.0000000000
     48769     16257  TIP3      OH2            -8.7209466405      -35.3498422861       12.0515003535  W2        16257           0.0000000000
     48770     16257  TIP3      H1             -8.8385266405      -36.2982422861       11.9973303535  W2        16257           0.0000000000
     48771     16257  TIP3      H2             -9.5759366405      -35.0172322861       12.3246103535  W2        16257           0.0000000000
     48772     16258  TIP3      OH2            -3.7726666405      -19.9417522861        9.7934703535  W2        16258           0.0000000000
     48773     16258  TIP3      H1             -3.3474366405      -20.6489622861        9.3084303535  W2        16258           0.0000000000
     48774     16258  TIP3      H2             -3.4556666405      -19.1404822861        9.3766903535  W2        16258           0.0000000000
     48775     16259  TIP3      OH2            -2.6130166405      -22.0409022861        8.3021303535  W2        16259           0.0000000000
     48776     16259  TIP3      H1             -2.8705366405      -22.7308922861        7.6907203535  W2        16259           0.0000000000
     48777     16259  TIP3      H2             -2.5419366405      -22.4837822861        9.1477203535  W2        16259           0.0000000000
     48778     16260  TIP3      OH2            -0.9269966405      -23.4742322861       16.7794803535  W2        16260           0.0000000000
     48779     16260  TIP3      H1             -0.7873666405      -24.0659822861       16.0401803535  W2        16260           0.0000000000
     48780     16260  TIP3      H2             -0.7597166405      -22.6016422861       16.4233603535  W2        16260           0.0000000000
     48781     16261  TIP3      OH2            -6.4544566405      -26.5122822861        6.5520803535  W2        16261           0.0000000000
     48782     16261  TIP3      H1             -7.1659066405      -25.9773122861        6.2001303535  W2        16261           0.0000000000
     48783     16261  TIP3      H2             -5.7634966405      -26.4570722861        5.8919703535  W2        16261           0.0000000000
     48784     16262  TIP3      OH2            -6.4005366405      -28.0548522861        3.5905803535  W2        16262           0.0000000000
     48785     16262  TIP3      H1             -5.6995466405      -28.0321622861        4.2419803535  W2        16262           0.0000000000
     48786     16262  TIP3      H2             -6.0982466405      -28.6828822861        2.9345103535  W2        16262           0.0000000000
     48787     16263  TIP3      OH2             0.9149333595      -27.1344322861       14.8455203535  W2        16263           0.0000000000
     48788     16263  TIP3      H1              0.2623433595      -26.4398722861       14.9346103535  W2        16263           0.0000000000
     48789     16263  TIP3      H2              1.3799633595      -26.9243422861       14.0356803535  W2        16263           0.0000000000
     48790     16264  TIP3      OH2            -3.0486866405      -26.3029522861        7.5036703535  W2        16264           0.0000000000
     48791     16264  TIP3      H1             -3.7805866405      -26.0745822861        8.0767303535  W2        16264           0.0000000000
     48792     16264  TIP3      H2             -2.6014666405      -27.0166822861        7.9584203535  W2        16264           0.0000000000
     48793     16265  TIP3      OH2            -3.1513366405      -28.1286922861       16.5713703535  W2        16265           0.0000000000
     48794     16265  TIP3      H1             -3.0714266405      -27.3652522861       17.1432203535  W2        16265           0.0000000000
     48795     16265  TIP3      H2             -3.7525666405      -27.8494522861       15.8808803535  W2        16265           0.0000000000
     48796     16266  TIP3      OH2           -11.4033166405      -25.6723322861        9.3861703535  W2        16266           0.0000000000
     48797     16266  TIP3      H1            -11.7337966405      -26.0429922861        8.5678703535  W2        16266           0.0000000000
     48798     16266  TIP3      H2            -10.8149066405      -26.3429322861        9.7330003535  W2        16266           0.0000000000
     48799     16267  TIP3      OH2           -10.0365666405      -22.2442722861       12.0673903535  W2        16267           0.0000000000
     48800     16267  TIP3      H1            -10.1314366405      -22.8229622861       11.3108503535  W2        16267           0.0000000000
     48801     16267  TIP3      H2             -9.3072066405      -22.6157022861       12.5636703535  W2        16267           0.0000000000
     48802     16268  TIP3      OH2           -11.0367666405      -26.9037722861       13.0196703535  W2        16268           0.0000000000
     48803     16268  TIP3      H1            -10.4715166405      -26.7823522861       12.2567903535  W2        16268           0.0000000000
     48804     16268  TIP3      H2            -10.7178766405      -26.2662722861       13.6585203535  W2        16268           0.0000000000
     48805     16269  TIP3      OH2            -4.7275466405      -21.4005822861       13.7537203535  W2        16269           0.0000000000
     48806     16269  TIP3      H1             -4.9678866405      -20.7382722861       14.4016403535  W2        16269           0.0000000000
     48807     16269  TIP3      H2             -4.9257266405      -22.2350622861       14.1786803535  W2        16269           0.0000000000
     48808     16270  TIP3      OH2           -10.1566966405      -22.5045022861       17.7368603535  W2        16270           0.0000000000
     48809     16270  TIP3      H1            -10.4679466405      -21.7221822861       18.1921803535  W2        16270           0.0000000000
     48810     16270  TIP3      H2            -10.8066766405      -22.6575922861       17.0510603535  W2        16270           0.0000000000
     48811     16271  TIP3      OH2            -4.1777366405      -27.1406622861        5.1887903535  W2        16271           0.0000000000
     48812     16271  TIP3      H1             -3.5981866405      -26.9906322861        5.9356803535  W2        16271           0.0000000000
     48813     16271  TIP3      H2             -3.7637366405      -26.6699222861        4.4654303535  W2        16271           0.0000000000
     48814     16272  TIP3      OH2           -13.2367066405      -26.3063922861       16.9654303535  W2        16272           0.0000000000
     48815     16272  TIP3      H1            -13.1663866405      -25.6557122861       17.6639303535  W2        16272           0.0000000000
     48816     16272  TIP3      H2            -14.1274866405      -26.2036422861       16.6305203535  W2        16272           0.0000000000
     48817     16273  TIP3      OH2            -6.4512466405      -20.4038122861        8.6241003535  W2        16273           0.0000000000
     48818     16273  TIP3      H1             -5.9774866405      -20.1081822861        9.4015203535  W2        16273           0.0000000000
     48819     16273  TIP3      H2             -7.0143166405      -19.6656522861        8.3910603535  W2        16273           0.0000000000
     48820     16274  TIP3      OH2           -11.9171066405      -20.4330022861       18.5002403535  W2        16274           0.0000000000
     48821     16274  TIP3      H1            -11.9095766405      -20.5690322861       17.5527903535  W2        16274           0.0000000000
     48822     16274  TIP3      H2            -12.8330666405      -20.5501922861       18.7522403535  W2        16274           0.0000000000
     48823     16275  TIP3      OH2            -0.4788966405      -35.3906222861        5.0017603535  W2        16275           0.0000000000
     48824     16275  TIP3      H1             -1.3788266405      -35.2517222861        5.2968203535  W2        16275           0.0000000000
     48825     16275  TIP3      H2             -0.2270566405      -34.5591622861        4.5999303535  W2        16275           0.0000000000
     48826     16276  TIP3      OH2           -12.4130466405      -26.6029022861        6.9754503535  W2        16276           0.0000000000
     48827     16276  TIP3      H1            -12.7049166405      -25.8347322861        6.4845803535  W2        16276           0.0000000000
     48828     16276  TIP3      H2            -13.0875266405      -27.2622822861        6.8125903535  W2        16276           0.0000000000
     48829     16277  TIP3      OH2             0.7102433595      -21.0243822861        3.3781503535  W2        16277           0.0000000000
     48830     16277  TIP3      H1              0.7835933595      -20.0853622861        3.5486803535  W2        16277           0.0000000000
     48831     16277  TIP3      H2              1.6157533595      -21.3295222861        3.3218803535  W2        16277           0.0000000000
     48832     16278  TIP3      OH2           -16.3200366405      -24.2399822861       15.7904303535  W2        16278           0.0000000000
     48833     16278  TIP3      H1            -16.8211966405      -24.2680422861       14.9754003535  W2        16278           0.0000000000
     48834     16278  TIP3      H2            -16.3146666405      -25.1456622861       16.1001603535  W2        16278           0.0000000000
     48835     16279  TIP3      OH2           -16.5697666405      -21.4596022861       12.6744503535  W2        16279           0.0000000000
     48836     16279  TIP3      H1            -15.6237066405      -21.6039022861       12.6554003535  W2        16279           0.0000000000
     48837     16279  TIP3      H2            -16.6821366405      -20.6753222861       13.2115703535  W2        16279           0.0000000000
     48838     16280  TIP3      OH2             1.6280833595      -20.7936322861       18.3568203535  W2        16280           0.0000000000
     48839     16280  TIP3      H1              1.5787633595      -21.7488222861       18.3195803535  W2        16280           0.0000000000
     48840     16280  TIP3      H2              0.8013133595      -20.5261022861       18.7582003535  W2        16280           0.0000000000
     48841     16281  TIP3      OH2            -7.3935166405      -21.2197122861       17.2329603535  W2        16281           0.0000000000
     48842     16281  TIP3      H1             -7.3060566405      -20.3932522861       17.7078703535  W2        16281           0.0000000000
     48843     16281  TIP3      H2             -8.2570066405      -21.5493322861       17.4818903535  W2        16281           0.0000000000
     48844     16282  TIP3      OH2            -6.9789366405      -17.4473422861        7.0390203535  W2        16282           0.0000000000
     48845     16282  TIP3      H1             -7.0543366405      -17.5686222861        6.0925403535  W2        16282           0.0000000000
     48846     16282  TIP3      H2             -6.9460666405      -16.4980722861        7.1574803535  W2        16282           0.0000000000
     48847     16283  TIP3      OH2           -13.3255566405      -18.6586422861        8.8199203535  W2        16283           0.0000000000
     48848     16283  TIP3      H1            -13.1735166405      -19.0066022861        9.6985703535  W2        16283           0.0000000000
     48849     16283  TIP3      H2            -14.1765166405      -19.0149122861        8.5646403535  W2        16283           0.0000000000
     48850     16284  TIP3      OH2            -3.8773366405      -18.2933222861        4.0412603535  W2        16284           0.0000000000
     48851     16284  TIP3      H1             -3.5024966405      -19.0377122861        3.5705203535  W2        16284           0.0000000000
     48852     16284  TIP3      H2             -3.8729666405      -18.5632622861        4.9595903535  W2        16284           0.0000000000
     48853     16285  TIP3      OH2            -4.2085266405      -18.3676122861        6.7904803535  W2        16285           0.0000000000
     48854     16285  TIP3      H1             -5.1435466405      -18.2674222861        6.9691803535  W2        16285           0.0000000000
     48855     16285  TIP3      H2             -3.9283366405      -19.0770122861        7.3688003535  W2        16285           0.0000000000
     48856     16286  TIP3      OH2            -1.2199366405      -29.3003822861       18.8370403535  W2        16286           0.0000000000
     48857     16286  TIP3      H1             -1.6272566405      -28.8198222861       18.1163703535  W2        16286           0.0000000000
     48858     16286  TIP3      H2             -1.1793666405      -30.2057822861       18.5291203535  W2        16286           0.0000000000
     48859     16287  TIP3      OH2           -14.0709866405      -22.9164422861       16.8337103535  W2        16287           0.0000000000
     48860     16287  TIP3      H1            -13.8548566405      -23.2778822861       17.6932903535  W2        16287           0.0000000000
     48861     16287  TIP3      H2            -14.9265166405      -23.2910622861       16.6240603535  W2        16287           0.0000000000
     48862     16288  TIP3      OH2           -11.4521866405      -34.4463922861       12.8291303535  W2        16288           0.0000000000
     48863     16288  TIP3      H1            -12.3138166405      -34.5335722861       12.4214203535  W2        16288           0.0000000000
     48864     16288  TIP3      H2            -11.4746166405      -33.5903822861       13.2568903535  W2        16288           0.0000000000
     48865     16289  TIP3      OH2            -6.7894066405      -34.7243522861       16.2038303535  W2        16289           0.0000000000
     48866     16289  TIP3      H1             -6.3690966405      -35.1396422861       16.9568903535  W2        16289           0.0000000000
     48867     16289  TIP3      H2             -7.7224466405      -34.9030222861       16.3210303535  W2        16289           0.0000000000
     48868     16290  TIP3      OH2            -3.4629166405      -30.9688322861       17.0572803535  W2        16290           0.0000000000
     48869     16290  TIP3      H1             -3.9769666405      -31.0946122861       17.8548803535  W2        16290           0.0000000000
     48870     16290  TIP3      H2             -3.6184466405      -30.0565222861       16.8129003535  W2        16290           0.0000000000
     48871     16291  TIP3      OH2            -2.7004266405      -26.1078322861        2.8185803535  W2        16291           0.0000000000
     48872     16291  TIP3      H1             -2.6583466405      -26.3304422861        1.8885803535  W2        16291           0.0000000000
     48873     16291  TIP3      H2             -1.8512166405      -25.7091222861        3.0085703535  W2        16291           0.0000000000
     48874     16292  TIP3      OH2            -7.1276766405      -32.2320122861        3.4889103535  W2        16292           0.0000000000
     48875     16292  TIP3      H1             -7.3811966405      -32.2128522861        4.4117203535  W2        16292           0.0000000000
     48876     16292  TIP3      H2             -7.3844666405      -33.1034722861        3.1875303535  W2        16292           0.0000000000
     48877     16293  TIP3      OH2           -11.3611766405      -29.4809422861       13.9241503535  W2        16293           0.0000000000
     48878     16293  TIP3      H1            -12.0029666405      -29.5212122861       14.6331603535  W2        16293           0.0000000000
     48879     16293  TIP3      H2            -11.3239766405      -28.5544722861       13.6864503535  W2        16293           0.0000000000
     48880     16294  TIP3      OH2           -11.3642666405      -29.2599322861        8.8361503535  W2        16294           0.0000000000
     48881     16294  TIP3      H1            -12.2569766405      -29.6003222861        8.7775303535  W2        16294           0.0000000000
     48882     16294  TIP3      H2            -10.9136066405      -29.6368422861        8.0804703535  W2        16294           0.0000000000
     48883     16295  TIP3      OH2            -5.8287166405      -28.8439022861        7.6532303535  W2        16295           0.0000000000
     48884     16295  TIP3      H1             -6.2376866405      -28.0290422861        7.3617103535  W2        16295           0.0000000000
     48885     16295  TIP3      H2             -5.1080966405      -28.9838922861        7.0389403535  W2        16295           0.0000000000
     48886     16296  TIP3      OH2            -6.7265566405      -28.6682622861       19.1413003535  W2        16296           0.0000000000
     48887     16296  TIP3      H1             -7.2891766405      -29.3731022861       19.4620803535  W2        16296           0.0000000000
     48888     16296  TIP3      H2             -5.9002166405      -28.7890722861       19.6090603535  W2        16296           0.0000000000
     48889     16297  TIP3      OH2            -4.8239466405      -29.3978622861       10.4672003535  W2        16297           0.0000000000
     48890     16297  TIP3      H1             -5.0194966405      -28.7921822861        9.7522603535  W2        16297           0.0000000000
     48891     16297  TIP3      H2             -4.6426866405      -30.2313422861       10.0328303535  W2        16297           0.0000000000
     48892     16298  TIP3      OH2           -13.6111266405      -29.1605922861       15.7913503535  W2        16298           0.0000000000
     48893     16298  TIP3      H1            -13.6491866405      -28.7604322861       16.6600603535  W2        16298           0.0000000000
     48894     16298  TIP3      H2            -14.1020166405      -29.9773522861       15.8816403535  W2        16298           0.0000000000
     48895     16299  TIP3      OH2           -10.2453866405      -31.7863622861        2.5899503535  W2        16299           0.0000000000
     48896     16299  TIP3      H1            -10.6763166405      -32.2313522861        3.3196903535  W2        16299           0.0000000000
     48897     16299  TIP3      H2            -10.9635166405      -31.4147322861        2.0777003535  W2        16299           0.0000000000
     48898     16300  TIP3      OH2           -17.0030466405      -32.0444122861        9.6418203535  W2        16300           0.0000000000
     48899     16300  TIP3      H1            -16.3722766405      -32.0732022861       10.3612103535  W2        16300           0.0000000000
     48900     16300  TIP3      H2            -16.5536166405      -32.4695422861        8.9114103535  W2        16300           0.0000000000
     48901     16301  TIP3      OH2           -15.7288366405      -31.2982122861        5.0658603535  W2        16301           0.0000000000
     48902     16301  TIP3      H1            -15.2546666405      -30.7072222861        4.4809503535  W2        16301           0.0000000000
     48903     16301  TIP3      H2            -16.4461966405      -30.7679222861        5.4128703535  W2        16301           0.0000000000
     48904     16302  TIP3      OH2            -5.5600266405      -27.7597322861       15.1384403535  W2        16302           0.0000000000
     48905     16302  TIP3      H1             -5.2365466405      -28.3907622861       14.4954903535  W2        16302           0.0000000000
     48906     16302  TIP3      H2             -6.0000966405      -28.2945122861       15.7991803535  W2        16302           0.0000000000
     48907     16303  TIP3      OH2            -8.7827366405      -31.8321822861        9.9225603535  W2        16303           0.0000000000
     48908     16303  TIP3      H1             -9.6936266405      -31.7755022861       10.2111603535  W2        16303           0.0000000000
     48909     16303  TIP3      H2             -8.2774466405      -31.8926322861       10.7332803535  W2        16303           0.0000000000
     48910     16304  TIP3      OH2           -13.9543966405      -30.2035522861        8.7493203535  W2        16304           0.0000000000
     48911     16304  TIP3      H1            -14.8435966405      -30.1040022861        8.4092803535  W2        16304           0.0000000000
     48912     16304  TIP3      H2            -13.6579066405      -31.0452522861        8.4031103535  W2        16304           0.0000000000
     48913     16305  TIP3      OH2           -10.3012166405      -30.2032922861        6.4057803535  W2        16305           0.0000000000
     48914     16305  TIP3      H1             -9.3696666405      -30.0742922861        6.5840903535  W2        16305           0.0000000000
     48915     16305  TIP3      H2            -10.5161866405      -29.5338622861        5.7562503535  W2        16305           0.0000000000
     48916     16306  TIP3      OH2            -4.3775466405      -32.5975522861       13.1867403535  W2        16306           0.0000000000
     48917     16306  TIP3      H1             -5.0543866405      -32.4662422861       13.8507103535  W2        16306           0.0000000000
     48918     16306  TIP3      H2             -4.8630566405      -32.7526022861       12.3765103535  W2        16306           0.0000000000
     48919     16307  TIP3      OH2           -11.6271966405      -29.0090722861        3.9723903535  W2        16307           0.0000000000
     48920     16307  TIP3      H1            -12.1696866405      -29.3886922861        3.2811503535  W2        16307           0.0000000000
     48921     16307  TIP3      H2            -10.7937066405      -28.8146022861        3.5438003535  W2        16307           0.0000000000
     48922     16308  TIP3      OH2            -1.0900366405      -16.9260122861       19.4635003535  W2        16308           0.0000000000
     48923     16308  TIP3      H1             -0.8901666405      -16.5018222861       18.6290303535  W2        16308           0.0000000000
     48924     16308  TIP3      H2             -0.4346666405      -16.5821922861       20.0705403535  W2        16308           0.0000000000
     48925     16309  TIP3      OH2           -13.4920566405      -24.4518822861       19.0715503535  W2        16309           0.0000000000
     48926     16309  TIP3      H1            -12.7598166405      -24.1972922861       19.6330003535  W2        16309           0.0000000000
     48927     16309  TIP3      H2            -14.2721866405      -24.2473422861       19.5870903535  W2        16309           0.0000000000
     48928     16310  TIP3      OH2            -7.4627666405      -29.0448822861       11.8095203535  W2        16310           0.0000000000
     48929     16310  TIP3      H1             -6.8984266405      -29.5912222861       11.2624803535  W2        16310           0.0000000000
     48930     16310  TIP3      H2             -7.6104266405      -29.5666922861       12.5982803535  W2        16310           0.0000000000
     48931     16311  TIP3      OH2           -12.4607966405      -32.9082722861        8.2280003535  W2        16311           0.0000000000
     48932     16311  TIP3      H1            -12.7778466405      -33.8107422861        8.1925403535  W2        16311           0.0000000000
     48933     16311  TIP3      H2            -11.6793866405      -32.9065322861        7.6751603535  W2        16311           0.0000000000
     48934     16312  TIP3      OH2            -8.8361766405      -30.6562722861       14.2235603535  W2        16312           0.0000000000
     48935     16312  TIP3      H1             -9.6716466405      -30.2023222861       14.3338003535  W2        16312           0.0000000000
     48936     16312  TIP3      H2             -8.3121166405      -30.3804222861       14.9755503535  W2        16312           0.0000000000
     48937     16313  TIP3      OH2            -8.2919166405      -24.4435022861        5.9082003535  W2        16313           0.0000000000
     48938     16313  TIP3      H1             -9.0368166405      -24.9509722861        5.5859903535  W2        16313           0.0000000000
     48939     16313  TIP3      H2             -8.4261966405      -24.3947022861        6.8546803535  W2        16313           0.0000000000
     48940     16314  TIP3      OH2            -1.1420266405      -25.3106822861       14.6949603535  W2        16314           0.0000000000
     48941     16314  TIP3      H1             -0.5001466405      -24.8540522861       14.1511803535  W2        16314           0.0000000000
     48942     16314  TIP3      H2             -1.9723366405      -25.1974422861       14.2323703535  W2        16314           0.0000000000
     48943     16315  TIP3      OH2            -4.3942366405      -31.6295122861        4.1074603535  W2        16315           0.0000000000
     48944     16315  TIP3      H1             -5.3328166405      -31.5179522861        3.9563403535  W2        16315           0.0000000000
     48945     16315  TIP3      H2             -4.0970266405      -30.7728222861        4.4140303535  W2        16315           0.0000000000
     48946     16316  TIP3      OH2            -6.7727066405      -24.2591722861       17.1451103535  W2        16316           0.0000000000
     48947     16316  TIP3      H1             -7.1180966405      -24.6409322861       17.9520703535  W2        16316           0.0000000000
     48948     16316  TIP3      H2             -6.9726966405      -23.3258122861       17.2164003535  W2        16316           0.0000000000
     48949     16317  TIP3      OH2            -3.6758866405      -29.7622422861        5.7682003535  W2        16317           0.0000000000
     48950     16317  TIP3      H1             -2.7839866405      -29.8997422861        6.0873203535  W2        16317           0.0000000000
     48951     16317  TIP3      H2             -3.6195266405      -28.9716322861        5.2315503535  W2        16317           0.0000000000
     48952     16318  TIP3      OH2           -13.1670866405      -25.1485022861       11.6779903535  W2        16318           0.0000000000
     48953     16318  TIP3      H1            -12.4223666405      -25.1509322861       11.0766403535  W2        16318           0.0000000000
     48954     16318  TIP3      H2            -13.0894266405      -25.9721222861       12.1595003535  W2        16318           0.0000000000
     48955     16319  TIP3      OH2            -6.1665066405      -22.9850722861        4.9336603535  W2        16319           0.0000000000
     48956     16319  TIP3      H1             -6.4616666405      -22.1582822861        5.3151403535  W2        16319           0.0000000000
     48957     16319  TIP3      H2             -6.8695066405      -23.6043822861        5.1298003535  W2        16319           0.0000000000
     48958     16320  TIP3      OH2           -16.1591166405      -26.6878122861       16.9928403535  W2        16320           0.0000000000
     48959     16320  TIP3      H1            -15.9362566405      -27.1058522861       17.8245903535  W2        16320           0.0000000000
     48960     16320  TIP3      H2            -16.7611066405      -27.3003122861       16.5701203535  W2        16320           0.0000000000
     48961     16321  TIP3      OH2            -9.1426266405      -27.1708222861       19.2058103535  W2        16321           0.0000000000
     48962     16321  TIP3      H1             -9.4385466405      -27.3365222861       18.3107203535  W2        16321           0.0000000000
     48963     16321  TIP3      H2             -8.2111066405      -27.3907922861       19.1952003535  W2        16321           0.0000000000
     48964     16322  TIP3      OH2            -4.5223466405      -21.7976222861       17.0956103535  W2        16322           0.0000000000
     48965     16322  TIP3      H1             -5.4229166405      -21.6143622861       16.8280003535  W2        16322           0.0000000000
     48966     16322  TIP3      H2             -4.4882366405      -21.5386922861       18.0164903535  W2        16322           0.0000000000
     48967     16323  TIP3      OH2             1.2089833595      -29.5528322861        5.4628703535  W2        16323           0.0000000000
     48968     16323  TIP3      H1              0.6546133595      -29.9490322861        4.7906203535  W2        16323           0.0000000000
     48969     16323  TIP3      H2              1.3093433595      -28.6423122861        5.1852003535  W2        16323           0.0000000000
     48970     16324  TIP3      OH2             1.1721833595      -23.7526622861       18.3000203535  W2        16324           0.0000000000
     48971     16324  TIP3      H1              0.3210333595      -23.5142822861       17.9326603535  W2        16324           0.0000000000
     48972     16324  TIP3      H2              1.7625233595      -23.7693422861       17.5467303535  W2        16324           0.0000000000
     48973     16325  TIP3      OH2            -0.4958466405      -20.7667922861        5.9280803535  W2        16325           0.0000000000
     48974     16325  TIP3      H1             -0.8687366405      -21.5924122861        6.2371403535  W2        16325           0.0000000000
     48975     16325  TIP3      H2             -0.2184966405      -20.9498522861        5.0304203535  W2        16325           0.0000000000
     48976     16326  TIP3      OH2            -3.3354566405      -25.9588422861       12.9492703535  W2        16326           0.0000000000
     48977     16326  TIP3      H1             -4.2637666405      -26.1906522861       12.9222003535  W2        16326           0.0000000000
     48978     16326  TIP3      H2             -2.8843466405      -26.7358622861       12.6191503535  W2        16326           0.0000000000
     48979     16327  TIP3      OH2           -10.7921466405      -21.6306822861        9.0821403535  W2        16327           0.0000000000
     48980     16327  TIP3      H1            -10.2649266405      -20.8572422861        8.8820203535  W2        16327           0.0000000000
     48981     16327  TIP3      H2            -11.6722966405      -21.4057622861        8.7805403535  W2        16327           0.0000000000
     48982     16328  TIP3      OH2           -15.0373766405      -26.7682722861        3.6693803535  W2        16328           0.0000000000
     48983     16328  TIP3      H1            -14.4213866405      -26.1415522861        4.0488603535  W2        16328           0.0000000000
     48984     16328  TIP3      H2            -15.8991166405      -26.4522922861        3.9410303535  W2        16328           0.0000000000
     48985     16329  TIP3      OH2            -9.3649166405      -23.9676922861        8.6585703535  W2        16329           0.0000000000
     48986     16329  TIP3      H1             -9.6059166405      -23.0422522861        8.7001003535  W2        16329           0.0000000000
     48987     16329  TIP3      H2            -10.1055566405      -24.4265622861        9.0549603535  W2        16329           0.0000000000
     48988     16330  TIP3      OH2            -8.8502566405      -19.8183322861       14.9736803535  W2        16330           0.0000000000
     48989     16330  TIP3      H1             -8.4877866405      -18.9637722861       14.7401203535  W2        16330           0.0000000000
     48990     16330  TIP3      H2             -8.3187366405      -20.1101722861       15.7143103535  W2        16330           0.0000000000
     48991     16331  TIP3      OH2           -10.6818366405      -18.9459322861        8.2037903535  W2        16331           0.0000000000
     48992     16331  TIP3      H1            -11.6317866405      -18.8401922861        8.2551203535  W2        16331           0.0000000000
     48993     16331  TIP3      H2            -10.3300266405      -18.1251922861        8.5485403535  W2        16331           0.0000000000
     48994     16332  TIP3      OH2            -5.3061766405      -23.7192622861       14.6742403535  W2        16332           0.0000000000
     48995     16332  TIP3      H1             -5.7320466405      -23.9470922861       15.5006403535  W2        16332           0.0000000000
     48996     16332  TIP3      H2             -4.7255966405      -24.4580822861       14.4917703535  W2        16332           0.0000000000
     48997     16333  TIP3      OH2            -3.1032866405      -22.7902122861        3.7481403535  W2        16333           0.0000000000
     48998     16333  TIP3      H1             -2.7499766405      -23.1702322861        4.5524903535  W2        16333           0.0000000000
     48999     16333  TIP3      H2             -4.0519366405      -22.8837322861        3.8350703535  W2        16333           0.0000000000
     49000     16334  TIP3      OH2            -2.6477566405      -19.1673122861       17.1437203535  W2        16334           0.0000000000
     49001     16334  TIP3      H1             -3.2494366405      -19.7230222861       16.6483503535  W2        16334           0.0000000000
     49002     16334  TIP3      H2             -2.3663866405      -18.5003322861       16.5174603535  W2        16334           0.0000000000
     49003     16335  TIP3      OH2             1.4001533595      -18.3109622861        3.9491603535  W2        16335           0.0000000000
     49004     16335  TIP3      H1              2.1439433595      -17.7249122861        3.8093203535  W2        16335           0.0000000000
     49005     16335  TIP3      H2              0.7059633595      -17.7423822861        4.2824003535  W2        16335           0.0000000000
     49006     16336  TIP3      OH2           -14.5251666405      -31.9345422861       16.5509803535  W2        16336           0.0000000000
     49007     16336  TIP3      H1            -15.4179366405      -31.5960022861       16.4833803535  W2        16336           0.0000000000
     49008     16336  TIP3      H2            -14.6238866405      -32.7899322861       16.9690603535  W2        16336           0.0000000000
     49009     16337  TIP3      OH2            -2.2373566405      -24.1180122861        5.9749303535  W2        16337           0.0000000000
     49010     16337  TIP3      H1             -2.5145966405      -24.8460822861        6.5310403535  W2        16337           0.0000000000
     49011     16337  TIP3      H2             -1.3100566405      -23.9988122861        6.1801903535  W2        16337           0.0000000000
     49012     16338  TIP3      OH2           -14.8739666405      -20.1301022861       14.9859203535  W2        16338           0.0000000000
     49013     16338  TIP3      H1            -14.6569366405      -21.0618622861       14.9548903535  W2        16338           0.0000000000
     49014     16338  TIP3      H2            -14.6276166405      -19.8556022861       15.8692003535  W2        16338           0.0000000000
     49015     16339  TIP3      OH2            -9.0125066405      -21.6786022861        2.1951403535  W2        16339           0.0000000000
     49016     16339  TIP3      H1             -8.7735266405      -22.4267922861        1.6480303535  W2        16339           0.0000000000
     49017     16339  TIP3      H2             -9.2813766405      -22.0664322861        3.0279203535  W2        16339           0.0000000000
     49018     16340  TIP3      OH2           -10.0754466405      -22.1082222861        4.6514003535  W2        16340           0.0000000000
     49019     16340  TIP3      H1             -9.9286466405      -22.6282422861        5.4414903535  W2        16340           0.0000000000
     49020     16340  TIP3      H2            -10.0782766405      -21.2014622861        4.9579903535  W2        16340           0.0000000000
     49021     16341  TIP3      OH2           -13.6223366405      -24.8558922861        5.1619403535  W2        16341           0.0000000000
     49022     16341  TIP3      H1            -14.3084066405      -24.5036422861        5.7289103535  W2        16341           0.0000000000
     49023     16341  TIP3      H2            -13.0995466405      -24.0929322861        4.9153703535  W2        16341           0.0000000000
     49024     16342  TIP3      OH2            -5.7908266405      -32.1935122861       15.4408403535  W2        16342           0.0000000000
     49025     16342  TIP3      H1             -5.0920366405      -32.1196422861       16.0908103535  W2        16342           0.0000000000
     49026     16342  TIP3      H2             -6.1716866405      -33.0580122861       15.5951303535  W2        16342           0.0000000000
     49027     16343  TIP3      OH2            -5.0063366405      -32.5413422861        6.5380703535  W2        16343           0.0000000000
     49028     16343  TIP3      H1             -4.7865066405      -32.0698022861        5.7346103535  W2        16343           0.0000000000
     49029     16343  TIP3      H2             -4.4479366405      -32.1470822861        7.2081303535  W2        16343           0.0000000000
     49030     16344  TIP3      OH2            -7.3377266405      -20.4108622861        5.4008203535  W2        16344           0.0000000000
     49031     16344  TIP3      H1             -8.1541166405      -19.9138922861        5.4532503535  W2        16344           0.0000000000
     49032     16344  TIP3      H2             -6.8080966405      -19.9355122861        4.7607003535  W2        16344           0.0000000000
     49033     16345  TIP3      OH2            -7.8063466405      -30.8134622861        7.3729103535  W2        16345           0.0000000000
     49034     16345  TIP3      H1             -6.9940866405      -30.3091422861        7.4190803535  W2        16345           0.0000000000
     49035     16345  TIP3      H2             -8.0510466405      -30.9584922861        8.2868703535  W2        16345           0.0000000000
     49036     16346  TIP3      OH2            -7.2707066405      -29.8271922861       16.5575703535  W2        16346           0.0000000000
     49037     16346  TIP3      H1             -7.1516766405      -29.2536522861       17.3146103535  W2        16346           0.0000000000
     49038     16346  TIP3      H2             -6.6152466405      -30.5152522861       16.6723503535  W2        16346           0.0000000000
     49039     16347  TIP3      OH2            -6.9226766405      -33.7321622861        8.3110203535  W2        16347           0.0000000000
     49040     16347  TIP3      H1             -7.2693266405      -33.1151022861        8.9554503535  W2        16347           0.0000000000
     49041     16347  TIP3      H2             -6.2639866405      -33.2315922861        7.8295703535  W2        16347           0.0000000000
     49042     16348  TIP3      OH2            -9.9994166405      -19.3671422861        5.3825103535  W2        16348           0.0000000000
     49043     16348  TIP3      H1             -9.8385466405      -18.5673922861        4.8817703535  W2        16348           0.0000000000
     49044     16348  TIP3      H2            -10.1966366405      -19.0605422861        6.2675703535  W2        16348           0.0000000000
     49045     16349  TIP3      OH2           -11.2649766405      -32.6692222861        4.9982703535  W2        16349           0.0000000000
     49046     16349  TIP3      H1            -11.3484966405      -31.7809122861        5.3449103535  W2        16349           0.0000000000
     49047     16349  TIP3      H2            -10.3749466405      -32.9345522861        5.2299503535  W2        16349           0.0000000000
     49048     16350  TIP3      OH2            -1.0661266405      -31.9201622861       17.3925403535  W2        16350           0.0000000000
     49049     16350  TIP3      H1             -1.9825466405      -31.6579922861       17.3049103535  W2        16350           0.0000000000
     49050     16350  TIP3      H2             -0.7306266405      -31.9232622861       16.4960703535  W2        16350           0.0000000000
     49051     16351  TIP3      OH2            -2.4640266405      -28.1700622861       11.4882703535  W2        16351           0.0000000000
     49052     16351  TIP3      H1             -3.2615866405      -28.5850422861       11.1597703535  W2        16351           0.0000000000
     49053     16351  TIP3      H2             -2.0189166405      -28.8606922861       11.9793203535  W2        16351           0.0000000000
     49054     16352  TIP3      OH2           -13.0064466405      -22.2420022861        4.0587203535  W2        16352           0.0000000000
     49055     16352  TIP3      H1            -12.4142966405      -21.5425222861        4.3349603535  W2        16352           0.0000000000
     49056     16352  TIP3      H2            -12.5471466405      -22.6750522861        3.3391803535  W2        16352           0.0000000000
     49057     16353  TIP3      OH2           -14.6905266405      -29.5777022861        3.1746603535  W2        16353           0.0000000000
     49058     16353  TIP3      H1            -14.7352666405      -28.6383922861        3.3533603535  W2        16353           0.0000000000
     49059     16353  TIP3      H2            -15.5782066405      -29.8132122861        2.9048703535  W2        16353           0.0000000000
     49060     16354  TIP3      OH2            -1.3775666405      -18.9138122861       13.1106203535  W2        16354           0.0000000000
     49061     16354  TIP3      H1             -1.5331366405      -18.2353722861       12.4535503535  W2        16354           0.0000000000
     49062     16354  TIP3      H2             -0.4449266405      -18.8418822861       13.3136803535  W2        16354           0.0000000000
     49063     16355  TIP3      OH2           -13.8823266405      -34.7960422861       11.8477603535  W2        16355           0.0000000000
     49064     16355  TIP3      H1            -14.1113466405      -34.7367922861       10.9202603535  W2        16355           0.0000000000
     49065     16355  TIP3      H2            -14.3249866405      -35.5874922861       12.1541703535  W2        16355           0.0000000000
     49066     16356  TIP3      OH2           -14.9519966405      -20.8553322861        8.0083403535  W2        16356           0.0000000000
     49067     16356  TIP3      H1            -15.7841366405      -20.3830622861        8.0354803535  W2        16356           0.0000000000
     49068     16356  TIP3      H2            -14.4061666405      -20.3455722861        7.4096503535  W2        16356           0.0000000000
     49069     16357  TIP3      OH2           -15.6636266405      -18.2429622861       19.3381403535  W2        16357           0.0000000000
     49070     16357  TIP3      H1            -15.1234066405      -18.4595622861       20.0980603535  W2        16357           0.0000000000
     49071     16357  TIP3      H2            -16.1448266405      -19.0483622861       19.1483903535  W2        16357           0.0000000000
     49072     16358  TIP3      OH2           -11.0662866405      -19.3235222861       20.9585603535  W2        16358           0.0000000000
     49073     16358  TIP3      H1            -10.2985666405      -19.7824422861       21.2994803535  W2        16358           0.0000000000
     49074     16358  TIP3      H2            -11.0876666405      -19.5495422861       20.0286803535  W2        16358           0.0000000000
     49075     16359  TIP3      OH2            -6.9743266405      -19.8154622861        2.3337403535  W2        16359           0.0000000000
     49076     16359  TIP3      H1             -7.6182266405      -20.4466022861        2.6551103535  W2        16359           0.0000000000
     49077     16359  TIP3      H2             -6.2124966405      -20.3466622861        2.1020903535  W2        16359           0.0000000000
     49078     16360  TIP3      OH2            -4.4894166405      -20.9434122861       19.6877103535  W2        16360           0.0000000000
     49079     16360  TIP3      H1             -4.8404666405      -21.8001122861       19.9307503535  W2        16360           0.0000000000
     49080     16360  TIP3      H2             -3.7630966405      -20.8007422861       20.2946103535  W2        16360           0.0000000000
     49081     16361  TIP3      OH2            -2.3700366405      -19.9984722861        2.5675403535  W2        16361           0.0000000000
     49082     16361  TIP3      H1             -2.0869966405      -20.7929522861        3.0202303535  W2        16361           0.0000000000
     49083     16361  TIP3      H2             -1.6302466405      -19.7653722861        2.0066503535  W2        16361           0.0000000000
     49084     16362  TIP3      OH2           -15.7566766405      -24.4325522861       20.2925703535  W2        16362           0.0000000000
     49085     16362  TIP3      H1            -15.6126266405      -25.3344822861       20.0062403535  W2        16362           0.0000000000
     49086     16362  TIP3      H2            -16.5289366405      -24.1463422861       19.8048003535  W2        16362           0.0000000000
     49087     16363  TIP3      OH2           -11.4153066405      -24.0889822861        2.4250303535  W2        16363           0.0000000000
     49088     16363  TIP3      H1            -11.3508966405      -24.8830222861        2.9556703535  W2        16363           0.0000000000
     49089     16363  TIP3      H2            -10.7623866405      -24.2077022861        1.7352303535  W2        16363           0.0000000000
     49090     16364  TIP3      OH2            -9.1010666405      -24.4627422861       19.7252103535  W2        16364           0.0000000000
     49091     16364  TIP3      H1             -9.4296866405      -24.1919322861       18.8679503535  W2        16364           0.0000000000
     49092     16364  TIP3      H2             -8.9492466405      -25.4037622861       19.6377103535  W2        16364           0.0000000000
     49093     16365  TIP3      OH2            -6.0629666405      -23.0418122861        2.1608303535  W2        16365           0.0000000000
     49094     16365  TIP3      H1             -6.3315566405      -22.8616022861        3.0617203535  W2        16365           0.0000000000
     49095     16365  TIP3      H2             -6.2694066405      -23.9671922861        2.0294103535  W2        16365           0.0000000000
     49096     16366  TIP3      OH2            -3.3665466405      -24.5470122861       17.1084403535  W2        16366           0.0000000000
     49097     16366  TIP3      H1             -2.6210666405      -23.9586422861       16.9888403535  W2        16366           0.0000000000
     49098     16366  TIP3      H2             -4.1238666405      -23.9650422861       17.1717503535  W2        16366           0.0000000000
     49099     16367  TIP3      OH2           -14.9240266405      -27.2322222861       19.7125003535  W2        16367           0.0000000000
     49100     16367  TIP3      H1            -14.5159066405      -28.0895622861       19.5915603535  W2        16367           0.0000000000
     49101     16367  TIP3      H2            -15.1842666405      -27.2180922861       20.6335303535  W2        16367           0.0000000000
     49102     16368  TIP3      OH2           -10.2659266405      -26.1163622861        4.7308303535  W2        16368           0.0000000000
     49103     16368  TIP3      H1            -10.7257266405      -26.6005322861        5.4166803535  W2        16368           0.0000000000
     49104     16368  TIP3      H2            -10.0110566405      -26.7848222861        4.0948803535  W2        16368           0.0000000000
     49105     16369  TIP3      OH2           -10.9769966405      -28.2236522861       17.0867903535  W2        16369           0.0000000000
     49106     16369  TIP3      H1            -11.5953866405      -27.5489922861       17.3672603535  W2        16369           0.0000000000
     49107     16369  TIP3      H2            -10.6328766405      -27.9022622861       16.2534103535  W2        16369           0.0000000000
     49108     16370  TIP3      OH2            -9.1948866405      -27.8731822861        2.9931503535  W2        16370           0.0000000000
     49109     16370  TIP3      H1             -9.3753866405      -28.0280622861        2.0659803535  W2        16370           0.0000000000
     49110     16370  TIP3      H2             -8.2448366405      -27.7653122861        3.0379403535  W2        16370           0.0000000000
     49111     16371  TIP3      OH2            -5.9571766405      -25.7521222861       20.3642703535  W2        16371           0.0000000000
     49112     16371  TIP3      H1             -5.0040566405      -25.6682122861       20.3368703535  W2        16371           0.0000000000
     49113     16371  TIP3      H2             -6.1177166405      -26.4639422861       20.9837603535  W2        16371           0.0000000000
     49114     16372  TIP3      OH2             0.1949433595      -25.5187622861        2.4389603535  W2        16372           0.0000000000
     49115     16372  TIP3      H1             -0.0785766405      -25.9432122861        1.6257903535  W2        16372           0.0000000000
     49116     16372  TIP3      H2              0.2343533595      -24.5873122861        2.2220003535  W2        16372           0.0000000000
     49117     16373  TIP3      OH2           -10.6376266405      -30.8685722861       18.1691003535  W2        16373           0.0000000000
     49118     16373  TIP3      H1            -10.4875366405      -31.5974422861       17.5670703535  W2        16373           0.0000000000
     49119     16373  TIP3      H2            -10.6353866405      -30.0914022861       17.6103203535  W2        16373           0.0000000000
     49120     16374  TIP3      OH2           -10.2250566405      -32.4989922861       15.6618403535  W2        16374           0.0000000000
     49121     16374  TIP3      H1             -9.6893066405      -32.0473222861       15.0097703535  W2        16374           0.0000000000
     49122     16374  TIP3      H2            -11.0770966405      -32.6070122861       15.2392503535  W2        16374           0.0000000000
     49123     16375  TIP3      OH2            -8.6432166405      -27.0593722861       15.9013603535  W2        16375           0.0000000000
     49124     16375  TIP3      H1             -7.8927366405      -27.2156222861       15.3281403535  W2        16375           0.0000000000
     49125     16375  TIP3      H2             -8.9823866405      -26.2077122861       15.6259103535  W2        16375           0.0000000000
     49126     16376  TIP3      OH2            -4.2275966405      -29.2441922861       20.9298903535  W2        16376           0.0000000000
     49127     16376  TIP3      H1             -4.0354666405      -30.1752522861       20.8183403535  W2        16376           0.0000000000
     49128     16376  TIP3      H2             -3.3699666405      -28.8192422861       20.9194303535  W2        16376           0.0000000000
     49129     16377  TIP3      OH2            -2.9108766405      -26.4556722861       19.0071603535  W2        16377           0.0000000000
     49130     16377  TIP3      H1             -3.1923766405      -25.7462122861       18.4295403535  W2        16377           0.0000000000
     49131     16377  TIP3      H2             -1.9684466405      -26.5283722861       18.8562803535  W2        16377           0.0000000000
     49132     16378  TIP3      OH2           -12.1589966405      -29.6702222861       20.0806603535  W2        16378           0.0000000000
     49133     16378  TIP3      H1            -12.9260966405      -30.2027422861       19.8704203535  W2        16378           0.0000000000
     49134     16378  TIP3      H2            -11.4800966405      -29.9801822861       19.4812903535  W2        16378           0.0000000000
     49135     16379  TIP3      OH2            -9.4195066405      -35.0424222861       16.0932003535  W2        16379           0.0000000000
     49136     16379  TIP3      H1             -9.5175466405      -34.0961022861       15.9878203535  W2        16379           0.0000000000
     49137     16379  TIP3      H2            -10.1618866405      -35.4150422861       15.6175503535  W2        16379           0.0000000000
     49138     16380  TIP3      OH2            -8.1554566405      -30.7208822861       19.6570403535  W2        16380           0.0000000000
     49139     16380  TIP3      H1             -8.3909166405      -30.9402122861       20.5585303535  W2        16380           0.0000000000
     49140     16380  TIP3      H2             -8.9387666405      -30.9277622861       19.1472903535  W2        16380           0.0000000000
     49141     16381  TIP3      OH2            -5.4397966405      -31.5935322861       18.7323903535  W2        16381           0.0000000000
     49142     16381  TIP3      H1             -6.3872566405      -31.5615622861       18.8647203535  W2        16381           0.0000000000
     49143     16381  TIP3      H2             -5.1271266405      -32.2188222861       19.3862103535  W2        16381           0.0000000000
     49144     16382  TIP3      OH2            -3.8056466405      -32.9594222861       20.7375803535  W2        16382           0.0000000000
     49145     16382  TIP3      H1             -3.9024666405      -33.9116922861       20.7317703535  W2        16382           0.0000000000
     49146     16382  TIP3      H2             -4.1273366405      -32.6907422861       21.5981303535  W2        16382           0.0000000000
     49147     16383  TIP3      OH2           -13.9787166405      -31.7498422861       19.7851303535  W2        16383           0.0000000000
     49148     16383  TIP3      H1            -13.7669766405      -32.4562322861       19.1748803535  W2        16383           0.0000000000
     49149     16383  TIP3      H2            -14.0899666405      -32.1872422861       20.6292503535  W2        16383           0.0000000000
     49150     16384  TIP3      OH2            -9.1976966405      -35.7486822861       18.7644803535  W2        16384           0.0000000000
     49151     16384  TIP3      H1             -8.4858566405      -36.3884622861       18.7503903535  W2        16384           0.0000000000
     49152     16384  TIP3      H2             -9.2986566405      -35.4818522861       17.8507903535  W2        16384           0.0000000000
     49153     16385  TIP3      OH2            -8.8439466405      -34.0658422861       20.8181103535  W2        16385           0.0000000000
     49154     16385  TIP3      H1             -8.9757266405      -34.5414622861       19.9979603535  W2        16385           0.0000000000
     49155     16385  TIP3      H2             -9.4432066405      -33.3214822861       20.7628203535  W2        16385           0.0000000000
     49156     16386  TIP3      OH2            -9.2977166405      -17.1828122861        3.9945103535  W2        16386           0.0000000000
     49157     16386  TIP3      H1             -8.3646466405      -17.0249422861        4.1383503535  W2        16386           0.0000000000
     49158     16386  TIP3      H2             -9.5618366405      -16.5075122861        3.3696603535  W2        16386           0.0000000000
     49159     16387  TIP3      OH2           -15.7292266405      -22.5464322861        3.4773203535  W2        16387           0.0000000000
     49160     16387  TIP3      H1            -14.8153066405      -22.4675422861        3.7507103535  W2        16387           0.0000000000
     49161     16387  TIP3      H2            -15.7219166405      -23.2334722861        2.8108803535  W2        16387           0.0000000000
     49162     16388  TIP3      OH2           -17.0801666405      -17.1535822861        8.5547103535  W2        16388           0.0000000000
     49163     16388  TIP3      H1            -17.7274566405      -17.6154122861        8.0218303535  W2        16388           0.0000000000
     49164     16388  TIP3      H2            -16.7257066405      -17.8252522861        9.1373303535  W2        16388           0.0000000000
     49165     16389  TIP3      OH2           -16.2102466405      -19.0728822861       10.3593303535  W2        16389           0.0000000000
     49166     16389  TIP3      H1            -16.5445666405      -19.9531522861       10.5313503535  W2        16389           0.0000000000
     49167     16389  TIP3      H2            -15.9880066405      -18.7273822861       11.2238903535  W2        16389           0.0000000000
     49168     16390  TIP3      OH2             1.3382333595      -18.2632422861       13.3398103535  W2        16390           0.0000000000
     49169     16390  TIP3      H1              1.3169033595      -18.0784022861       14.2787503535  W2        16390           0.0000000000
     49170     16390  TIP3      H2              2.0288533595      -17.6948422861       12.9989503535  W2        16390           0.0000000000
     49171     16391  TIP3      OH2             0.9015233595      -18.6961322861       16.2617203535  W2        16391           0.0000000000
     49172     16391  TIP3      H1              0.4143933595      -19.4317222861       15.8904603535  W2        16391           0.0000000000
     49173     16391  TIP3      H2              1.4507933595      -19.0897422861       16.9396603535  W2        16391           0.0000000000
     49174     16392  TIP3      OH2            -0.6477466405      -22.9063222861       20.8997503535  W2        16392           0.0000000000
     49175     16392  TIP3      H1             -1.5136366405      -23.0113522861       21.2939803535  W2        16392           0.0000000000
     49176     16392  TIP3      H2             -0.2711566405      -22.1479922861       21.3462203535  W2        16392           0.0000000000
     49177     16393  TIP3      OH2             0.6532233595      -24.6499522861        6.4140003535  W2        16393           0.0000000000
     49178     16393  TIP3      H1              1.5033633595      -24.2288622861        6.5411603535  W2        16393           0.0000000000
     49179     16393  TIP3      H2              0.6587333595      -25.3899422861        7.0211403535  W2        16393           0.0000000000
     49180     16394  TIP3      OH2             1.0477833595      -26.5962122861        8.2375703535  W2        16394           0.0000000000
     49181     16394  TIP3      H1              0.3212433595      -27.0759522861        8.6353303535  W2        16394           0.0000000000
     49182     16394  TIP3      H2              1.6291133595      -26.3907422861        8.9697303535  W2        16394           0.0000000000
     49183     16395  TIP3      OH2             0.8069033595      -23.8114622861       13.1853303535  W2        16395           0.0000000000
     49184     16395  TIP3      H1              1.6403233595      -24.1894622861       12.9046903535  W2        16395           0.0000000000
     49185     16395  TIP3      H2              0.9189333595      -22.8683422861       13.0662403535  W2        16395           0.0000000000
     49186     16396  TIP3      OH2            -0.7068666405      -20.9337122861       15.4921703535  W2        16396           0.0000000000
     49187     16396  TIP3      H1             -1.3543366405      -20.6085622861       16.1176903535  W2        16396           0.0000000000
     49188     16396  TIP3      H2             -1.2244666405      -21.3739422861       14.8180003535  W2        16396           0.0000000000
     49189     16397  TIP3      OH2             1.3160933595      -26.6953622861        4.6287003535  W2        16397           0.0000000000
     49190     16397  TIP3      H1              0.7942033595      -26.3389522861        3.9097903535  W2        16397           0.0000000000
     49191     16397  TIP3      H2              1.2830133595      -26.0205822861        5.3067903535  W2        16397           0.0000000000
     49192     16398  TIP3      OH2            -0.3350066405      -29.4558022861        3.1794103535  W2        16398           0.0000000000
     49193     16398  TIP3      H1             -0.2385666405      -28.7891022861        2.4993803535  W2        16398           0.0000000000
     49194     16398  TIP3      H2             -0.4750466405      -30.2711722861        2.6979603535  W2        16398           0.0000000000
     49195     16399  TIP3      OH2            -1.1655366405      -28.0755622861        8.8004403535  W2        16399           0.0000000000
     49196     16399  TIP3      H1             -1.3156566405      -29.0207022861        8.7802203535  W2        16399           0.0000000000
     49197     16399  TIP3      H2             -1.5190866405      -27.7944222861        9.6443503535  W2        16399           0.0000000000
     49198     16400  TIP3      OH2           -16.1302966405      -25.9973422861       12.8108203535  W2        16400           0.0000000000
     49199     16400  TIP3      H1            -15.9460066405      -26.0791722861       11.8751103535  W2        16400           0.0000000000
     49200     16400  TIP3      H2            -15.2810066405      -26.1216422861       13.2344603535  W2        16400           0.0000000000
     49201     16401  TIP3      OH2            -0.3092466405      -26.1052322861       18.4392703535  W2        16401           0.0000000000
     49202     16401  TIP3      H1              0.2734833595      -26.8400022861       18.6309903535  W2        16401           0.0000000000
     49203     16401  TIP3      H2              0.2546833595      -25.3332022861       18.4858503535  W2        16401           0.0000000000
     49204     16402  TIP3      OH2             1.1874633595      -28.2026522861       19.1238103535  W2        16402           0.0000000000
     49205     16402  TIP3      H1              0.3241333595      -28.5814422861       18.9582803535  W2        16402           0.0000000000
     49206     16402  TIP3      H2              1.7918333595      -28.9411722861       19.0493903535  W2        16402           0.0000000000
     49207     16403  TIP3      OH2            -1.0876266405      -32.0478222861        2.2969603535  W2        16403           0.0000000000
     49208     16403  TIP3      H1             -0.4770466405      -32.4191422861        2.9337803535  W2        16403           0.0000000000
     49209     16403  TIP3      H2             -1.9244766405      -32.4691322861        2.4929603535  W2        16403           0.0000000000
     49210     16404  TIP3      OH2            -1.4550566405      -30.4929822861        7.2629503535  W2        16404           0.0000000000
     49211     16404  TIP3      H1             -1.1753466405      -31.3999422861        7.3871203535  W2        16404           0.0000000000
     49212     16404  TIP3      H2             -0.6958866405      -30.0588322861        6.8738703535  W2        16404           0.0000000000
     49213     16405  TIP3      OH2            -0.8432266405      -29.9112422861       12.6988403535  W2        16405           0.0000000000
     49214     16405  TIP3      H1              0.0895733595      -29.6992522861       12.6644403535  W2        16405           0.0000000000
     49215     16405  TIP3      H2             -1.0784766405      -29.8100322861       13.6211403535  W2        16405           0.0000000000
     49216     16406  TIP3      OH2            -0.8140366405      -29.1747122861       15.4747803535  W2        16406           0.0000000000
     49217     16406  TIP3      H1             -1.6569066405      -28.9066722861       15.8407603535  W2        16406           0.0000000000
     49218     16406  TIP3      H2             -0.3716066405      -28.3525222861       15.2638903535  W2        16406           0.0000000000
     49219     16407  TIP3      OH2           -16.5328166405      -30.7268422861       18.9517003535  W2        16407           0.0000000000
     49220     16407  TIP3      H1            -15.6133266405      -30.8490122861       19.1880103535  W2        16407           0.0000000000
     49221     16407  TIP3      H2            -16.9823666405      -31.4768722861       19.3410503535  W2        16407           0.0000000000
     49222     16408  TIP3      OH2             1.4691233595      -35.1946922861       20.8282803535  W2        16408           0.0000000000
     49223     16408  TIP3      H1              1.8188233595      -35.8483422861       20.2227503535  W2        16408           0.0000000000
     49224     16408  TIP3      H2              1.6160733595      -34.3572822861       20.3885403535  W2        16408           0.0000000000
     49225     16409  TIP3      OH2            -0.8415766405      -33.2300522861        7.3111503535  W2        16409           0.0000000000
     49226     16409  TIP3      H1             -0.6590766405      -33.6789022861        8.1366503535  W2        16409           0.0000000000
     49227     16409  TIP3      H2             -1.4412866405      -33.8146122861        6.8476103535  W2        16409           0.0000000000
     49228     16410  TIP3      OH2           -15.3115666405      -32.4146822861       11.8429903535  W2        16410           0.0000000000
     49229     16410  TIP3      H1            -14.8664066405      -33.2064322861       12.1449603535  W2        16410           0.0000000000
     49230     16410  TIP3      H2            -14.8452666405      -31.6981622861       12.2735503535  W2        16410           0.0000000000
     49231     16411  TIP3      OH2           -17.0075366405      -29.4153822861       12.9120103535  W2        16411           0.0000000000
     49232     16411  TIP3      H1            -16.5155566405      -29.6363322861       12.1212103535  W2        16411           0.0000000000
     49233     16411  TIP3      H2            -16.6454466405      -28.5750422861       13.1929603535  W2        16411           0.0000000000
     49234     16412  TIP3      OH2             0.9888433595      -33.0852322861       19.1774103535  W2        16412           0.0000000000
     49235     16412  TIP3      H1              0.0714133595      -32.8145222861       19.1417603535  W2        16412           0.0000000000
     49236     16412  TIP3      H2              1.1117833595      -33.6203922861       18.3933803535  W2        16412           0.0000000000
     49237     16413  TIP3      OH2             1.0250433595      -33.1622422861        3.8391803535  W2        16413           0.0000000000
     49238     16413  TIP3      H1              1.4373033595      -33.8836722861        3.3639803535  W2        16413           0.0000000000
     49239     16413  TIP3      H2              1.7066933595      -32.4927822861        3.8976103535  W2        16413           0.0000000000
     49240     16414  TIP3      OH2           -16.6938866405      -33.1574722861        6.9662503535  W2        16414           0.0000000000
     49241     16414  TIP3      H1            -17.6190466405      -32.9488122861        6.8368003535  W2        16414           0.0000000000
     49242     16414  TIP3      H2            -16.2398966405      -32.6733922861        6.2764803535  W2        16414           0.0000000000
     49243     16415  TIP3      OH2            -1.9231666405      -18.1733022861        8.9119903535  W2        16415           0.0000000000
     49244     16415  TIP3      H1             -1.2708766405      -18.5210922861        8.3039003535  W2        16415           0.0000000000
     49245     16415  TIP3      H2             -1.4127866405      -17.6849822861        9.5579603535  W2        16415           0.0000000000
     49246     16416  TIP3      OH2           -16.7303466405      -34.4195722861       15.3105003535  W2        16416           0.0000000000
     49247     16416  TIP3      H1            -17.3952966405      -34.6655422861       15.9535903535  W2        16416           0.0000000000
     49248     16416  TIP3      H2            -17.1732166405      -33.7975322861       14.7333003535  W2        16416           0.0000000000
     49249     16417  TIP3      OH2           -14.5384166405      -21.2441622861       19.4550803535  W2        16417           0.0000000000
     49250     16417  TIP3      H1            -15.3591666405      -21.0695122861       18.9945503535  W2        16417           0.0000000000
     49251     16417  TIP3      H2            -14.7906366405      -21.3176922861       20.3755203535  W2        16417           0.0000000000
     49252     16418  TIP3      OH2           -11.5841266405      -20.2700422861       15.7134803535  W2        16418           0.0000000000
     49253     16418  TIP3      H1            -12.0090166405      -19.4601922861       15.4309403535  W2        16418           0.0000000000
     49254     16418  TIP3      H2            -10.6798466405      -20.1846322861       15.4114603535  W2        16418           0.0000000000
     49255     16419  TIP3      OH2            -7.2729866405      -18.8710422861       18.6728503535  W2        16419           0.0000000000
     49256     16419  TIP3      H1             -7.0882366405      -19.2044322861       19.5508803535  W2        16419           0.0000000000
     49257     16419  TIP3      H2             -6.4265366405      -18.5611822861       18.3507703535  W2        16419           0.0000000000
     49258     16420  TIP3      OH2            -4.9279466405      -17.5851522861       17.9169903535  W2        16420           0.0000000000
     49259     16420  TIP3      H1             -4.2510566405      -18.2179222861       17.6769103535  W2        16420           0.0000000000
     49260     16420  TIP3      H2             -4.6060666405      -17.1841022861       18.7243203535  W2        16420           0.0000000000
     49261     16421  TIP3      OH2            -0.0105666405      -34.9956022861       16.9964903535  W2        16421           0.0000000000
     49262     16421  TIP3      H1             -0.8232166405      -34.6705722861       16.6089603535  W2        16421           0.0000000000
     49263     16421  TIP3      H2              0.2222833595      -35.7557522861       16.4634003535  W2        16421           0.0000000000
     49264     16422  TIP3      OH2           -14.1824566405      -17.0136522861       15.7610103535  W2        16422           0.0000000000
     49265     16422  TIP3      H1            -14.9028166405      -16.5735522861       15.3097803535  W2        16422           0.0000000000
     49266     16422  TIP3      H2            -14.5480566405      -17.2641822861       16.6094103535  W2        16422           0.0000000000
     49267     16423  TIP3      OH2           -11.7151966405      -17.4132622861       14.7907303535  W2        16423           0.0000000000
     49268     16423  TIP3      H1            -12.5799766405      -17.3414122861       15.1947403535  W2        16423           0.0000000000
     49269     16423  TIP3      H2            -11.7702966405      -16.8665322861       14.0069803535  W2        16423           0.0000000000
     49270     16424  TIP3      OH2            -7.0046366405      -17.5253722861       13.9663303535  W2        16424           0.0000000000
     49271     16424  TIP3      H1             -7.4612366405      -16.9964022861       13.3121703535  W2        16424           0.0000000000
     49272     16424  TIP3      H2             -6.8418366405      -16.9222322861       14.6915603535  W2        16424           0.0000000000
     49273     16425  TIP3      OH2            -4.6770066405      -18.6474122861       14.9113603535  W2        16425           0.0000000000
     49274     16425  TIP3      H1             -5.5816366405      -18.4823922861       14.6455703535  W2        16425           0.0000000000
     49275     16425  TIP3      H2             -4.2481466405      -17.7941922861       14.8457003535  W2        16425           0.0000000000
     49276     16426  TIP3      OH2            -2.0728166405      -17.0775022861       15.2061403535  W2        16426           0.0000000000
     49277     16426  TIP3      H1             -2.2546166405      -16.1616122861       14.9956303535  W2        16426           0.0000000000
     49278     16426  TIP3      H2             -1.8960366405      -17.4877922861       14.3596003535  W2        16426           0.0000000000
     49279     16427  TIP3      OH2           -14.7676466405      -18.3904022861       12.6711903535  W2        16427           0.0000000000
     49280     16427  TIP3      H1            -14.7860466405      -18.8158922861       13.5284203535  W2        16427           0.0000000000
     49281     16427  TIP3      H2            -13.9628566405      -18.7089022861       12.2624103535  W2        16427           0.0000000000
     49282     16428  TIP3      OH2           -12.6263366405      -19.6805322861       11.3261803535  W2        16428           0.0000000000
     49283     16428  TIP3      H1            -12.8452666405      -20.5967922861       11.4957803535  W2        16428           0.0000000000
     49284     16428  TIP3      H2            -11.8021166405      -19.5404922861       11.7923203535  W2        16428           0.0000000000
     49285     16429  TIP3      OH2           -10.0890866405      -19.2106022861       12.1749803535  W2        16429           0.0000000000
     49286     16429  TIP3      H1             -9.8765166405      -20.0987022861       11.8880703535  W2        16429           0.0000000000
     49287     16429  TIP3      H2            -10.0245766405      -19.2448322861       13.1293803535  W2        16429           0.0000000000
     49288     16430  TIP3      OH2            -6.5807166405      -33.5465422861       11.3193103535  W2        16430           0.0000000000
     49289     16430  TIP3      H1             -7.2550366405      -34.1759822861       11.5748903535  W2        16430           0.0000000000
     49290     16430  TIP3      H2             -6.0167966405      -34.0306522861       10.7161003535  W2        16430           0.0000000000
     49291     16431  TIP3      OH2            -1.4379966405      -35.4391422861       11.4320203535  W2        16431           0.0000000000
     49292     16431  TIP3      H1             -0.8342366405      -34.8916022861       10.9301203535  W2        16431           0.0000000000
     49293     16431  TIP3      H2             -2.3077966405      -35.1201022861       11.1914303535  W2        16431           0.0000000000
     49294     16432  TIP3      OH2             0.2890433595      -34.3002722861        9.7651103535  W2        16432           0.0000000000
     49295     16432  TIP3      H1              0.9007933595      -34.8147022861        9.2384703535  W2        16432           0.0000000000
     49296     16432  TIP3      H2              0.6713833595      -33.4230622861        9.7885503535  W2        16432           0.0000000000
     49297     16433  TIP3      OH2           -14.2539666405      -34.9125122861        9.1413003535  W2        16433           0.0000000000
     49298     16433  TIP3      H1            -15.0309866405      -35.1470222861        8.6338903535  W2        16433           0.0000000000
     49299     16433  TIP3      H2            -13.7236066405      -35.7093022861        9.1501003535  W2        16433           0.0000000000
     49300     16434  TIP3      OH2           -15.4176266405      -35.1147022861        4.9449103535  W2        16434           0.0000000000
     49301     16434  TIP3      H1            -14.9785566405      -34.5036522861        4.3532603535  W2        16434           0.0000000000
     49302     16434  TIP3      H2            -16.0513866405      -34.5762922861        5.4189103535  W2        16434           0.0000000000
     49303     16435  TIP3      OH2            -9.6747066405      -34.9858022861        8.9546103535  W2        16435           0.0000000000
     49304     16435  TIP3      H1             -8.8003666405      -34.5973722861        8.9250403535  W2        16435           0.0000000000
     49305     16435  TIP3      H2             -9.8106266405      -35.2010222861        9.8773303535  W2        16435           0.0000000000
     49306     16436  TIP3      OH2            -4.1178666405      -34.9558222861       10.6037803535  W2        16436           0.0000000000
     49307     16436  TIP3      H1             -4.0417066405      -34.8606622861        9.6543803535  W2        16436           0.0000000000
     49308     16436  TIP3      H2             -4.3929466405      -35.8635322861       10.7326903535  W2        16436           0.0000000000
     49309     16437  TIP3      OH2            -2.7646066405      -34.9300422861        6.2962803535  W2        16437           0.0000000000
     49310     16437  TIP3      H1             -3.4674966405      -34.3151222861        6.0864203535  W2        16437           0.0000000000
     49311     16437  TIP3      H2             -3.2094666405      -35.7673722861        6.4273703535  W2        16437           0.0000000000
     49312     16438  TIP3      OH2           -15.5166766405      -19.1664822861        5.8424203535  W2        16438           0.0000000000
     49313     16438  TIP3      H1            -16.2016866405      -19.2045922861        5.1749303535  W2        16438           0.0000000000
     49314     16438  TIP3      H2            -15.5129566405      -18.2537222861        6.1306303535  W2        16438           0.0000000000
     49315     16439  TIP3      OH2           -13.5567166405      -33.1985522861        3.3873203535  W2        16439           0.0000000000
     49316     16439  TIP3      H1            -13.0653766405      -33.8283122861        2.8598703535  W2        16439           0.0000000000
     49317     16439  TIP3      H2            -12.9330866405      -32.9026122861        4.0504403535  W2        16439           0.0000000000
     49318     16440  TIP3      OH2            -8.5307066405      -32.9054022861        5.8443703535  W2        16440           0.0000000000
     49319     16440  TIP3      H1             -8.3525766405      -33.5520822861        6.5272303535  W2        16440           0.0000000000
     49320     16440  TIP3      H2             -8.5840866405      -32.0716322861        6.3114803535  W2        16440           0.0000000000
     49321     16441  TIP3      OH2            -6.6523266405      -17.9569922861        4.2400403535  W2        16441           0.0000000000
     49322     16441  TIP3      H1             -5.7863066405      -17.5902522861        4.0618603535  W2        16441           0.0000000000
     49323     16441  TIP3      H2             -6.8990466405      -18.3961922861        3.4261203535  W2        16441           0.0000000000
     49324     16442  TIP3      OH2             0.0566333595      -18.3939622861        6.9191503535  W2        16442           0.0000000000
     49325     16442  TIP3      H1             -0.1376566405      -19.1417522861        6.3541103535  W2        16442           0.0000000000
     49326     16442  TIP3      H2              0.0176433595      -17.6359522861        6.3359403535  W2        16442           0.0000000000
     49327     16443  TIP3      OH2           -14.2961666405      -34.3983222861       18.6589203535  W2        16443           0.0000000000
     49328     16443  TIP3      H1            -14.6623466405      -35.1640622861       19.1013903535  W2        16443           0.0000000000
     49329     16443  TIP3      H2            -13.3833166405      -34.3693022861       18.9454303535  W2        16443           0.0000000000
     49330     16444  TIP3      OH2           -12.3230866405      -35.0478822861       20.1946303535  W2        16444           0.0000000000
     49331     16444  TIP3      H1            -11.4247266405      -35.3218622861       20.0099703535  W2        16444           0.0000000000
     49332     16444  TIP3      H2            -12.7097766405      -35.7902822861       20.6588903535  W2        16444           0.0000000000
     49333     16445  TIP3      OH2           -13.6985566405      -18.2464022861        2.8676303535  W2        16445           0.0000000000
     49334     16445  TIP3      H1            -13.9660966405      -17.9601122861        3.7409403535  W2        16445           0.0000000000
     49335     16445  TIP3      H2            -12.9272966405      -18.7924822861        3.0198803535  W2        16445           0.0000000000
     49336     16446  TIP3      OH2            -3.9018566405      -35.7153522861       20.3769103535  W2        16446           0.0000000000
     49337     16446  TIP3      H1             -3.8251366405      -36.1412822861       21.2306803535  W2        16446           0.0000000000
     49338     16446  TIP3      H2             -3.0081966405      -35.7018822861       20.0342603535  W2        16446           0.0000000000
     49339     16447  TIP3      OH2            -0.7257466405      -19.6427222861       19.0693303535  W2        16447           0.0000000000
     49340     16447  TIP3      H1             -1.5075566405      -19.8289222861       18.5493903535  W2        16447           0.0000000000
     49341     16447  TIP3      H2             -0.7977566405      -18.7132922861       19.2865803535  W2        16447           0.0000000000
     49342     16448  TIP3      OH2            13.6802933595      -25.7562822861        9.1000503535  W2        16448           0.0000000000
     49343     16448  TIP3      H1             13.7694033595      -24.8124622861        8.9677603535  W2        16448           0.0000000000
     49344     16448  TIP3      H2             13.0420533595      -26.0316422861        8.4419903535  W2        16448           0.0000000000
     49345     16449  TIP3      OH2            12.6134233595      -26.5012122861       12.5188703535  W2        16449           0.0000000000
     49346     16449  TIP3      H1             12.5751733595      -27.1475822861       13.2238303535  W2        16449           0.0000000000
     49347     16449  TIP3      H2             12.2910733595      -26.9677722861       11.7477403535  W2        16449           0.0000000000
     49348     16450  TIP3      OH2             4.9819233595      -26.8870022861       14.1118603535  W2        16450           0.0000000000
     49349     16450  TIP3      H1              5.0231333595      -27.5126722861       14.8351003535  W2        16450           0.0000000000
     49350     16450  TIP3      H2              5.6846933595      -26.2631422861       14.2939003535  W2        16450           0.0000000000
     49351     16451  TIP3      OH2            16.3194433595      -23.5621722861       10.8203803535  W2        16451           0.0000000000
     49352     16451  TIP3      H1             15.8787133595      -24.2825722861       11.2709403535  W2        16451           0.0000000000
     49353     16451  TIP3      H2             16.3064133595      -22.8414522861       11.4501503535  W2        16451           0.0000000000
     49354     16452  TIP3      OH2             5.9052333595      -22.4371122861       12.6467703535  W2        16452           0.0000000000
     49355     16452  TIP3      H1              5.5357533595      -23.2390622861       12.2772003535  W2        16452           0.0000000000
     49356     16452  TIP3      H2              6.8463433595      -22.6056222861       12.6931103535  W2        16452           0.0000000000
     49357     16453  TIP3      OH2             2.5152833595      -28.7768522861        8.0396503535  W2        16453           0.0000000000
     49358     16453  TIP3      H1              2.0676233595      -27.9309822861        8.0213003535  W2        16453           0.0000000000
     49359     16453  TIP3      H2              1.9544033595      -29.3564322861        7.5241603535  W2        16453           0.0000000000
     49360     16454  TIP3      OH2             3.2258933595      -26.6148922861       10.1654503535  W2        16454           0.0000000000
     49361     16454  TIP3      H1              3.4392433595      -27.3847322861       10.6927503535  W2        16454           0.0000000000
     49362     16454  TIP3      H2              3.9636533595      -26.5252222861        9.5622103535  W2        16454           0.0000000000
     49363     16455  TIP3      OH2            13.4309933595      -18.4580022861       11.0324203535  W2        16455           0.0000000000
     49364     16455  TIP3      H1             14.0506333595      -19.1345322861       10.7593403535  W2        16455           0.0000000000
     49365     16455  TIP3      H2             13.2227333595      -18.6759222861       11.9409103535  W2        16455           0.0000000000
     49366     16456  TIP3      OH2            11.0028633595      -24.0690722861       12.9249703535  W2        16456           0.0000000000
     49367     16456  TIP3      H1             11.3066533595      -24.7549322861       12.3303803535  W2        16456           0.0000000000
     49368     16456  TIP3      H2             11.7242633595      -23.9502022861       13.5427703535  W2        16456           0.0000000000
     49369     16457  TIP3      OH2            19.6658433595      -32.4675422861       13.7855903535  W2        16457           0.0000000000
     49370     16457  TIP3      H1             19.7150633595      -31.8574222861       14.5215003535  W2        16457           0.0000000000
     49371     16457  TIP3      H2             20.0913533595      -32.0064522861       13.0627003535  W2        16457           0.0000000000
     49372     16458  TIP3      OH2            14.1435633595      -29.6748322861       13.2524503535  W2        16458           0.0000000000
     49373     16458  TIP3      H1             14.2861533595      -30.6211322861       13.2726103535  W2        16458           0.0000000000
     49374     16458  TIP3      H2             14.0374633595      -29.4678522861       12.3239403535  W2        16458           0.0000000000
     49375     16459  TIP3      OH2             7.2983933595      -31.5731922861       10.5249303535  W2        16459           0.0000000000
     49376     16459  TIP3      H1              7.3415033595      -30.7133422861       10.1065603535  W2        16459           0.0000000000
     49377     16459  TIP3      H2              6.8408033595      -32.1257222861        9.8912503535  W2        16459           0.0000000000
     49378     16460  TIP3      OH2            15.0206633595      -31.4426322861        8.9257603535  W2        16460           0.0000000000
     49379     16460  TIP3      H1             15.6670933595      -31.7713122861        9.5505203535  W2        16460           0.0000000000
     49380     16460  TIP3      H2             15.5306033595      -30.9247322861        8.3029003535  W2        16460           0.0000000000
     49381     16461  TIP3      OH2             3.9185433595      -29.1766122861       11.2870703535  W2        16461           0.0000000000
     49382     16461  TIP3      H1              4.5722033595      -29.7264422861       11.7190803535  W2        16461           0.0000000000
     49383     16461  TIP3      H2              3.9424733595      -29.4507122861       10.3702703535  W2        16461           0.0000000000
     49384     16462  TIP3      OH2             9.0749933595      -27.6264822861       10.5022203535  W2        16462           0.0000000000
     49385     16462  TIP3      H1              9.6910933595      -28.1529422861       11.0116203535  W2        16462           0.0000000000
     49386     16462  TIP3      H2              8.4888733595      -28.2666122861       10.0985803535  W2        16462           0.0000000000
     49387     16463  TIP3      OH2            20.0573033595      -30.9896222861       16.0215703535  W2        16463           0.0000000000
     49388     16463  TIP3      H1             19.3687633595      -30.3315522861       15.9262303535  W2        16463           0.0000000000
     49389     16463  TIP3      H2             20.0727633595      -31.1868322861       16.9581103535  W2        16463           0.0000000000
     49390     16464  TIP3      OH2             6.1085833595      -32.6553522861       14.5990103535  W2        16464           0.0000000000
     49391     16464  TIP3      H1              5.8897533595      -32.1252922861       13.8326103535  W2        16464           0.0000000000
     49392     16464  TIP3      H2              5.4406733595      -32.4288022861       15.2461503535  W2        16464           0.0000000000
     49393     16465  TIP3      OH2            13.4775633595      -23.1552422861        8.1429203535  W2        16465           0.0000000000
     49394     16465  TIP3      H1             13.1820733595      -23.4780122861        7.2916103535  W2        16465           0.0000000000
     49395     16465  TIP3      H2             13.1533433595      -22.2555722861        8.1841803535  W2        16465           0.0000000000
     49396     16466  TIP3      OH2             8.6777233595      -24.9797822861       14.8863803535  W2        16466           0.0000000000
     49397     16466  TIP3      H1              7.9376333595      -24.3816322861       14.9899003535  W2        16466           0.0000000000
     49398     16466  TIP3      H2              9.3916733595      -24.4258222861       14.5707403535  W2        16466           0.0000000000
     49399     16467  TIP3      OH2            16.7845033595      -32.1517022861       10.9063503535  W2        16467           0.0000000000
     49400     16467  TIP3      H1             16.5693033595      -32.9173622861       11.4389503535  W2        16467           0.0000000000
     49401     16467  TIP3      H2             17.4402433595      -31.6792422861       11.4192003535  W2        16467           0.0000000000
     49402     16468  TIP3      OH2             5.7023133595      -30.7631722861       12.5512303535  W2        16468           0.0000000000
     49403     16468  TIP3      H1              6.3159433595      -30.1304122861       12.9244703535  W2        16468           0.0000000000
     49404     16468  TIP3      H2              6.2143833595      -31.2356722861       11.8949203535  W2        16468           0.0000000000
     49405     16469  TIP3      OH2             7.0851533595      -23.0154822861       15.6735303535  W2        16469           0.0000000000
     49406     16469  TIP3      H1              7.0799133595      -22.1361322861       15.2954603535  W2        16469           0.0000000000
     49407     16469  TIP3      H2              6.2315633595      -23.0990722861       16.0985203535  W2        16469           0.0000000000
     49408     16470  TIP3      OH2             3.2062433595      -23.3446922861        6.4554603535  W2        16470           0.0000000000
     49409     16470  TIP3      H1              2.9343333595      -23.1155922861        5.5667503535  W2        16470           0.0000000000
     49410     16470  TIP3      H2              3.2518133595      -22.5068122861        6.9159903535  W2        16470           0.0000000000
     49411     16471  TIP3      OH2            16.8312133595      -21.7231022861       13.1683103535  W2        16471           0.0000000000
     49412     16471  TIP3      H1             15.8895833595      -21.6647122861       13.3300003535  W2        16471           0.0000000000
     49413     16471  TIP3      H2             17.1078233595      -20.8170522861       13.0312803535  W2        16471           0.0000000000
     49414     16472  TIP3      OH2            17.1319133595      -33.4365722861       14.5857003535  W2        16472           0.0000000000
     49415     16472  TIP3      H1             16.3958333595      -32.8258622861       14.5478303535  W2        16472           0.0000000000
     49416     16472  TIP3      H2             17.8153133595      -33.0216722861       14.0593403535  W2        16472           0.0000000000
     49417     16473  TIP3      OH2            10.1350533595      -35.3498422861       12.0515003535  W2        16473           0.0000000000
     49418     16473  TIP3      H1             10.0174733595      -36.2982422861       11.9973303535  W2        16473           0.0000000000
     49419     16473  TIP3      H2              9.2800633595      -35.0172322861       12.3246103535  W2        16473           0.0000000000
     49420     16474  TIP3      OH2            15.0833333595      -19.9417522861        9.7934703535  W2        16474           0.0000000000
     49421     16474  TIP3      H1             15.5085633595      -20.6489622861        9.3084303535  W2        16474           0.0000000000
     49422     16474  TIP3      H2             15.4003333595      -19.1404822861        9.3766903535  W2        16474           0.0000000000
     49423     16475  TIP3      OH2            16.2429833595      -22.0409022861        8.3021303535  W2        16475           0.0000000000
     49424     16475  TIP3      H1             15.9854633595      -22.7308922861        7.6907203535  W2        16475           0.0000000000
     49425     16475  TIP3      H2             16.3140633595      -22.4837822861        9.1477203535  W2        16475           0.0000000000
     49426     16476  TIP3      OH2            17.9290033595      -23.4742322861       16.7794803535  W2        16476           0.0000000000
     49427     16476  TIP3      H1             18.0686333595      -24.0659822861       16.0401803535  W2        16476           0.0000000000
     49428     16476  TIP3      H2             18.0962833595      -22.6016422861       16.4233603535  W2        16476           0.0000000000
     49429     16477  TIP3      OH2            12.4015433595      -26.5122822861        6.5520803535  W2        16477           0.0000000000
     49430     16477  TIP3      H1             11.6900933595      -25.9773122861        6.2001303535  W2        16477           0.0000000000
     49431     16477  TIP3      H2             13.0925033595      -26.4570722861        5.8919703535  W2        16477           0.0000000000
     49432     16478  TIP3      OH2            12.4554633595      -28.0548522861        3.5905803535  W2        16478           0.0000000000
     49433     16478  TIP3      H1             13.1564533595      -28.0321622861        4.2419803535  W2        16478           0.0000000000
     49434     16478  TIP3      H2             12.7577533595      -28.6828822861        2.9345103535  W2        16478           0.0000000000
     49435     16479  TIP3      OH2            19.7709333595      -27.1344322861       14.8455203535  W2        16479           0.0000000000
     49436     16479  TIP3      H1             19.1183433595      -26.4398722861       14.9346103535  W2        16479           0.0000000000
     49437     16479  TIP3      H2             20.2359633595      -26.9243422861       14.0356803535  W2        16479           0.0000000000
     49438     16480  TIP3      OH2            15.8073133595      -26.3029522861        7.5036703535  W2        16480           0.0000000000
     49439     16480  TIP3      H1             15.0754133595      -26.0745822861        8.0767303535  W2        16480           0.0000000000
     49440     16480  TIP3      H2             16.2545333595      -27.0166822861        7.9584203535  W2        16480           0.0000000000
     49441     16481  TIP3      OH2            15.7046633595      -28.1286922861       16.5713703535  W2        16481           0.0000000000
     49442     16481  TIP3      H1             15.7845733595      -27.3652522861       17.1432203535  W2        16481           0.0000000000
     49443     16481  TIP3      H2             15.1034333595      -27.8494522861       15.8808803535  W2        16481           0.0000000000
     49444     16482  TIP3      OH2             7.4526833595      -25.6723322861        9.3861703535  W2        16482           0.0000000000
     49445     16482  TIP3      H1              7.1222033595      -26.0429922861        8.5678703535  W2        16482           0.0000000000
     49446     16482  TIP3      H2              8.0410933595      -26.3429322861        9.7330003535  W2        16482           0.0000000000
     49447     16483  TIP3      OH2             8.8194333595      -22.2442722861       12.0673903535  W2        16483           0.0000000000
     49448     16483  TIP3      H1              8.7245633595      -22.8229622861       11.3108503535  W2        16483           0.0000000000
     49449     16483  TIP3      H2              9.5487933595      -22.6157022861       12.5636703535  W2        16483           0.0000000000
     49450     16484  TIP3      OH2             7.8192333595      -26.9037722861       13.0196703535  W2        16484           0.0000000000
     49451     16484  TIP3      H1              8.3844833595      -26.7823522861       12.2567903535  W2        16484           0.0000000000
     49452     16484  TIP3      H2              8.1381233595      -26.2662722861       13.6585203535  W2        16484           0.0000000000
     49453     16485  TIP3      OH2            14.1284533595      -21.4005822861       13.7537203535  W2        16485           0.0000000000
     49454     16485  TIP3      H1             13.8881133595      -20.7382722861       14.4016403535  W2        16485           0.0000000000
     49455     16485  TIP3      H2             13.9302733595      -22.2350622861       14.1786803535  W2        16485           0.0000000000
     49456     16486  TIP3      OH2             8.6993033595      -22.5045022861       17.7368603535  W2        16486           0.0000000000
     49457     16486  TIP3      H1              8.3880533595      -21.7221822861       18.1921803535  W2        16486           0.0000000000
     49458     16486  TIP3      H2              8.0493233595      -22.6575922861       17.0510603535  W2        16486           0.0000000000
     49459     16487  TIP3      OH2            14.6782633595      -27.1406622861        5.1887903535  W2        16487           0.0000000000
     49460     16487  TIP3      H1             15.2578133595      -26.9906322861        5.9356803535  W2        16487           0.0000000000
     49461     16487  TIP3      H2             15.0922633595      -26.6699222861        4.4654303535  W2        16487           0.0000000000
     49462     16488  TIP3      OH2             5.6192933595      -26.3063922861       16.9654303535  W2        16488           0.0000000000
     49463     16488  TIP3      H1              5.6896133595      -25.6557122861       17.6639303535  W2        16488           0.0000000000
     49464     16488  TIP3      H2              4.7285133595      -26.2036422861       16.6305203535  W2        16488           0.0000000000
     49465     16489  TIP3      OH2            12.4047533595      -20.4038122861        8.6241003535  W2        16489           0.0000000000
     49466     16489  TIP3      H1             12.8785133595      -20.1081822861        9.4015203535  W2        16489           0.0000000000
     49467     16489  TIP3      H2             11.8416833595      -19.6656522861        8.3910603535  W2        16489           0.0000000000
     49468     16490  TIP3      OH2             6.9388933595      -20.4330022861       18.5002403535  W2        16490           0.0000000000
     49469     16490  TIP3      H1              6.9464233595      -20.5690322861       17.5527903535  W2        16490           0.0000000000
     49470     16490  TIP3      H2              6.0229333595      -20.5501922861       18.7522403535  W2        16490           0.0000000000
     49471     16491  TIP3      OH2            18.3771033595      -35.3906222861        5.0017603535  W2        16491           0.0000000000
     49472     16491  TIP3      H1             17.4771733595      -35.2517222861        5.2968203535  W2        16491           0.0000000000
     49473     16491  TIP3      H2             18.6289433595      -34.5591622861        4.5999303535  W2        16491           0.0000000000
     49474     16492  TIP3      OH2             6.4429533595      -26.6029022861        6.9754503535  W2        16492           0.0000000000
     49475     16492  TIP3      H1              6.1510833595      -25.8347322861        6.4845803535  W2        16492           0.0000000000
     49476     16492  TIP3      H2              5.7684733595      -27.2622822861        6.8125903535  W2        16492           0.0000000000
     49477     16493  TIP3      OH2            19.5662433595      -21.0243822861        3.3781503535  W2        16493           0.0000000000
     49478     16493  TIP3      H1             19.6395933595      -20.0853622861        3.5486803535  W2        16493           0.0000000000
     49479     16493  TIP3      H2             20.4717533595      -21.3295222861        3.3218803535  W2        16493           0.0000000000
     49480     16494  TIP3      OH2             2.5359633595      -24.2399822861       15.7904303535  W2        16494           0.0000000000
     49481     16494  TIP3      H1              2.0348033595      -24.2680422861       14.9754003535  W2        16494           0.0000000000
     49482     16494  TIP3      H2              2.5413333595      -25.1456622861       16.1001603535  W2        16494           0.0000000000
     49483     16495  TIP3      OH2             2.2862333595      -21.4596022861       12.6744503535  W2        16495           0.0000000000
     49484     16495  TIP3      H1              3.2322933595      -21.6039022861       12.6554003535  W2        16495           0.0000000000
     49485     16495  TIP3      H2              2.1738633595      -20.6753222861       13.2115703535  W2        16495           0.0000000000
     49486     16496  TIP3      OH2            20.4840833595      -20.7936322861       18.3568203535  W2        16496           0.0000000000
     49487     16496  TIP3      H1             20.4347633595      -21.7488222861       18.3195803535  W2        16496           0.0000000000
     49488     16496  TIP3      H2             19.6573133595      -20.5261022861       18.7582003535  W2        16496           0.0000000000
     49489     16497  TIP3      OH2            11.4624833595      -21.2197122861       17.2329603535  W2        16497           0.0000000000
     49490     16497  TIP3      H1             11.5499433595      -20.3932522861       17.7078703535  W2        16497           0.0000000000
     49491     16497  TIP3      H2             10.5989933595      -21.5493322861       17.4818903535  W2        16497           0.0000000000
     49492     16498  TIP3      OH2            11.8770633595      -17.4473422861        7.0390203535  W2        16498           0.0000000000
     49493     16498  TIP3      H1             11.8016633595      -17.5686222861        6.0925403535  W2        16498           0.0000000000
     49494     16498  TIP3      H2             11.9099333595      -16.4980722861        7.1574803535  W2        16498           0.0000000000
     49495     16499  TIP3      OH2             5.5304433595      -18.6586422861        8.8199203535  W2        16499           0.0000000000
     49496     16499  TIP3      H1              5.6824833595      -19.0066022861        9.6985703535  W2        16499           0.0000000000
     49497     16499  TIP3      H2              4.6794833595      -19.0149122861        8.5646403535  W2        16499           0.0000000000
     49498     16500  TIP3      OH2            14.9786633595      -18.2933222861        4.0412603535  W2        16500           0.0000000000
     49499     16500  TIP3      H1             15.3535033595      -19.0377122861        3.5705203535  W2        16500           0.0000000000
     49500     16500  TIP3      H2             14.9830333595      -18.5632622861        4.9595903535  W2        16500           0.0000000000
     49501     16501  TIP3      OH2            14.6474733595      -18.3676122861        6.7904803535  W2        16501           0.0000000000
     49502     16501  TIP3      H1             13.7124533595      -18.2674222861        6.9691803535  W2        16501           0.0000000000
     49503     16501  TIP3      H2             14.9276633595      -19.0770122861        7.3688003535  W2        16501           0.0000000000
     49504     16502  TIP3      OH2            17.6360633595      -29.3003822861       18.8370403535  W2        16502           0.0000000000
     49505     16502  TIP3      H1             17.2287433595      -28.8198222861       18.1163703535  W2        16502           0.0000000000
     49506     16502  TIP3      H2             17.6766333595      -30.2057822861       18.5291203535  W2        16502           0.0000000000
     49507     16503  TIP3      OH2             4.7850133595      -22.9164422861       16.8337103535  W2        16503           0.0000000000
     49508     16503  TIP3      H1              5.0011433595      -23.2778822861       17.6932903535  W2        16503           0.0000000000
     49509     16503  TIP3      H2              3.9294833595      -23.2910622861       16.6240603535  W2        16503           0.0000000000
     49510     16504  TIP3      OH2             7.4038133595      -34.4463922861       12.8291303535  W2        16504           0.0000000000
     49511     16504  TIP3      H1              6.5421833595      -34.5335722861       12.4214203535  W2        16504           0.0000000000
     49512     16504  TIP3      H2              7.3813833595      -33.5903822861       13.2568903535  W2        16504           0.0000000000
     49513     16505  TIP3      OH2            12.0665933595      -34.7243522861       16.2038303535  W2        16505           0.0000000000
     49514     16505  TIP3      H1             12.4869033595      -35.1396422861       16.9568903535  W2        16505           0.0000000000
     49515     16505  TIP3      H2             11.1335533595      -34.9030222861       16.3210303535  W2        16505           0.0000000000
     49516     16506  TIP3      OH2            15.3930833595      -30.9688322861       17.0572803535  W2        16506           0.0000000000
     49517     16506  TIP3      H1             14.8790333595      -31.0946122861       17.8548803535  W2        16506           0.0000000000
     49518     16506  TIP3      H2             15.2375533595      -30.0565222861       16.8129003535  W2        16506           0.0000000000
     49519     16507  TIP3      OH2            16.1555733595      -26.1078322861        2.8185803535  W2        16507           0.0000000000
     49520     16507  TIP3      H1             16.1976533595      -26.3304422861        1.8885803535  W2        16507           0.0000000000
     49521     16507  TIP3      H2             17.0047833595      -25.7091222861        3.0085703535  W2        16507           0.0000000000
     49522     16508  TIP3      OH2            11.7283233595      -32.2320122861        3.4889103535  W2        16508           0.0000000000
     49523     16508  TIP3      H1             11.4748033595      -32.2128522861        4.4117203535  W2        16508           0.0000000000
     49524     16508  TIP3      H2             11.4715333595      -33.1034722861        3.1875303535  W2        16508           0.0000000000
     49525     16509  TIP3      OH2             7.4948233595      -29.4809422861       13.9241503535  W2        16509           0.0000000000
     49526     16509  TIP3      H1              6.8530333595      -29.5212122861       14.6331603535  W2        16509           0.0000000000
     49527     16509  TIP3      H2              7.5320233595      -28.5544722861       13.6864503535  W2        16509           0.0000000000
     49528     16510  TIP3      OH2             7.4917333595      -29.2599322861        8.8361503535  W2        16510           0.0000000000
     49529     16510  TIP3      H1              6.5990233595      -29.6003222861        8.7775303535  W2        16510           0.0000000000
     49530     16510  TIP3      H2              7.9423933595      -29.6368422861        8.0804703535  W2        16510           0.0000000000
     49531     16511  TIP3      OH2            13.0272833595      -28.8439022861        7.6532303535  W2        16511           0.0000000000
     49532     16511  TIP3      H1             12.6183133595      -28.0290422861        7.3617103535  W2        16511           0.0000000000
     49533     16511  TIP3      H2             13.7479033595      -28.9838922861        7.0389403535  W2        16511           0.0000000000
     49534     16512  TIP3      OH2            12.1294433595      -28.6682622861       19.1413003535  W2        16512           0.0000000000
     49535     16512  TIP3      H1             11.5668233595      -29.3731022861       19.4620803535  W2        16512           0.0000000000
     49536     16512  TIP3      H2             12.9557833595      -28.7890722861       19.6090603535  W2        16512           0.0000000000
     49537     16513  TIP3      OH2            14.0320533595      -29.3978622861       10.4672003535  W2        16513           0.0000000000
     49538     16513  TIP3      H1             13.8365033595      -28.7921822861        9.7522603535  W2        16513           0.0000000000
     49539     16513  TIP3      H2             14.2133133595      -30.2313422861       10.0328303535  W2        16513           0.0000000000
     49540     16514  TIP3      OH2             5.2448733595      -29.1605922861       15.7913503535  W2        16514           0.0000000000
     49541     16514  TIP3      H1              5.2068133595      -28.7604322861       16.6600603535  W2        16514           0.0000000000
     49542     16514  TIP3      H2              4.7539833595      -29.9773522861       15.8816403535  W2        16514           0.0000000000
     49543     16515  TIP3      OH2             8.6106133595      -31.7863622861        2.5899503535  W2        16515           0.0000000000
     49544     16515  TIP3      H1              8.1796833595      -32.2313522861        3.3196903535  W2        16515           0.0000000000
     49545     16515  TIP3      H2              7.8924833595      -31.4147322861        2.0777003535  W2        16515           0.0000000000
     49546     16516  TIP3      OH2             1.8529533595      -32.0444122861        9.6418203535  W2        16516           0.0000000000
     49547     16516  TIP3      H1              2.4837233595      -32.0732022861       10.3612103535  W2        16516           0.0000000000
     49548     16516  TIP3      H2              2.3023833595      -32.4695422861        8.9114103535  W2        16516           0.0000000000
     49549     16517  TIP3      OH2             3.1271633595      -31.2982122861        5.0658603535  W2        16517           0.0000000000
     49550     16517  TIP3      H1              3.6013333595      -30.7072222861        4.4809503535  W2        16517           0.0000000000
     49551     16517  TIP3      H2              2.4098033595      -30.7679222861        5.4128703535  W2        16517           0.0000000000
     49552     16518  TIP3      OH2            13.2959733595      -27.7597322861       15.1384403535  W2        16518           0.0000000000
     49553     16518  TIP3      H1             13.6194533595      -28.3907622861       14.4954903535  W2        16518           0.0000000000
     49554     16518  TIP3      H2             12.8559033595      -28.2945122861       15.7991803535  W2        16518           0.0000000000
     49555     16519  TIP3      OH2            10.0732633595      -31.8321822861        9.9225603535  W2        16519           0.0000000000
     49556     16519  TIP3      H1              9.1623733595      -31.7755022861       10.2111603535  W2        16519           0.0000000000
     49557     16519  TIP3      H2             10.5785533595      -31.8926322861       10.7332803535  W2        16519           0.0000000000
     49558     16520  TIP3      OH2             4.9016033595      -30.2035522861        8.7493203535  W2        16520           0.0000000000
     49559     16520  TIP3      H1              4.0124033595      -30.1040022861        8.4092803535  W2        16520           0.0000000000
     49560     16520  TIP3      H2              5.1980933595      -31.0452522861        8.4031103535  W2        16520           0.0000000000
     49561     16521  TIP3      OH2             8.5547833595      -30.2032922861        6.4057803535  W2        16521           0.0000000000
     49562     16521  TIP3      H1              9.4863333595      -30.0742922861        6.5840903535  W2        16521           0.0000000000
     49563     16521  TIP3      H2              8.3398133595      -29.5338622861        5.7562503535  W2        16521           0.0000000000
     49564     16522  TIP3      OH2            14.4784533595      -32.5975522861       13.1867403535  W2        16522           0.0000000000
     49565     16522  TIP3      H1             13.8016133595      -32.4662422861       13.8507103535  W2        16522           0.0000000000
     49566     16522  TIP3      H2             13.9929433595      -32.7526022861       12.3765103535  W2        16522           0.0000000000
     49567     16523  TIP3      OH2             7.2288033595      -29.0090722861        3.9723903535  W2        16523           0.0000000000
     49568     16523  TIP3      H1              6.6863133595      -29.3886922861        3.2811503535  W2        16523           0.0000000000
     49569     16523  TIP3      H2              8.0622933595      -28.8146022861        3.5438003535  W2        16523           0.0000000000
     49570     16524  TIP3      OH2            17.7659633595      -16.9260122861       19.4635003535  W2        16524           0.0000000000
     49571     16524  TIP3      H1             17.9658333595      -16.5018222861       18.6290303535  W2        16524           0.0000000000
     49572     16524  TIP3      H2             18.4213333595      -16.5821922861       20.0705403535  W2        16524           0.0000000000
     49573     16525  TIP3      OH2             5.3639433595      -24.4518822861       19.0715503535  W2        16525           0.0000000000
     49574     16525  TIP3      H1              6.0961833595      -24.1972922861       19.6330003535  W2        16525           0.0000000000
     49575     16525  TIP3      H2              4.5838133595      -24.2473422861       19.5870903535  W2        16525           0.0000000000
     49576     16526  TIP3      OH2            11.3932333595      -29.0448822861       11.8095203535  W2        16526           0.0000000000
     49577     16526  TIP3      H1             11.9575733595      -29.5912222861       11.2624803535  W2        16526           0.0000000000
     49578     16526  TIP3      H2             11.2455733595      -29.5666922861       12.5982803535  W2        16526           0.0000000000
     49579     16527  TIP3      OH2             6.3952033595      -32.9082722861        8.2280003535  W2        16527           0.0000000000
     49580     16527  TIP3      H1              6.0781533595      -33.8107422861        8.1925403535  W2        16527           0.0000000000
     49581     16527  TIP3      H2              7.1766133595      -32.9065322861        7.6751603535  W2        16527           0.0000000000
     49582     16528  TIP3      OH2            10.0198233595      -30.6562722861       14.2235603535  W2        16528           0.0000000000
     49583     16528  TIP3      H1              9.1843533595      -30.2023222861       14.3338003535  W2        16528           0.0000000000
     49584     16528  TIP3      H2             10.5438833595      -30.3804222861       14.9755503535  W2        16528           0.0000000000
     49585     16529  TIP3      OH2            10.5640833595      -24.4435022861        5.9082003535  W2        16529           0.0000000000
     49586     16529  TIP3      H1              9.8191833595      -24.9509722861        5.5859903535  W2        16529           0.0000000000
     49587     16529  TIP3      H2             10.4298033595      -24.3947022861        6.8546803535  W2        16529           0.0000000000
     49588     16530  TIP3      OH2            17.7139733595      -25.3106822861       14.6949603535  W2        16530           0.0000000000
     49589     16530  TIP3      H1             18.3558533595      -24.8540522861       14.1511803535  W2        16530           0.0000000000
     49590     16530  TIP3      H2             16.8836633595      -25.1974422861       14.2323703535  W2        16530           0.0000000000
     49591     16531  TIP3      OH2            14.4617633595      -31.6295122861        4.1074603535  W2        16531           0.0000000000
     49592     16531  TIP3      H1             13.5231833595      -31.5179522861        3.9563403535  W2        16531           0.0000000000
     49593     16531  TIP3      H2             14.7589733595      -30.7728222861        4.4140303535  W2        16531           0.0000000000
     49594     16532  TIP3      OH2            12.0832933595      -24.2591722861       17.1451103535  W2        16532           0.0000000000
     49595     16532  TIP3      H1             11.7379033595      -24.6409322861       17.9520703535  W2        16532           0.0000000000
     49596     16532  TIP3      H2             11.8833033595      -23.3258122861       17.2164003535  W2        16532           0.0000000000
     49597     16533  TIP3      OH2            15.1801133595      -29.7622422861        5.7682003535  W2        16533           0.0000000000
     49598     16533  TIP3      H1             16.0720133595      -29.8997422861        6.0873203535  W2        16533           0.0000000000
     49599     16533  TIP3      H2             15.2364733595      -28.9716322861        5.2315503535  W2        16533           0.0000000000
     49600     16534  TIP3      OH2             5.6889133595      -25.1485022861       11.6779903535  W2        16534           0.0000000000
     49601     16534  TIP3      H1              6.4336333595      -25.1509322861       11.0766403535  W2        16534           0.0000000000
     49602     16534  TIP3      H2              5.7665733595      -25.9721222861       12.1595003535  W2        16534           0.0000000000
     49603     16535  TIP3      OH2            12.6894933595      -22.9850722861        4.9336603535  W2        16535           0.0000000000
     49604     16535  TIP3      H1             12.3943333595      -22.1582822861        5.3151403535  W2        16535           0.0000000000
     49605     16535  TIP3      H2             11.9864933595      -23.6043822861        5.1298003535  W2        16535           0.0000000000
     49606     16536  TIP3      OH2             2.6968833595      -26.6878122861       16.9928403535  W2        16536           0.0000000000
     49607     16536  TIP3      H1              2.9197433595      -27.1058522861       17.8245903535  W2        16536           0.0000000000
     49608     16536  TIP3      H2              2.0948933595      -27.3003122861       16.5701203535  W2        16536           0.0000000000
     49609     16537  TIP3      OH2             9.7133733595      -27.1708222861       19.2058103535  W2        16537           0.0000000000
     49610     16537  TIP3      H1              9.4174533595      -27.3365222861       18.3107203535  W2        16537           0.0000000000
     49611     16537  TIP3      H2             10.6448933595      -27.3907922861       19.1952003535  W2        16537           0.0000000000
     49612     16538  TIP3      OH2            14.3336533595      -21.7976222861       17.0956103535  W2        16538           0.0000000000
     49613     16538  TIP3      H1             13.4330833595      -21.6143622861       16.8280003535  W2        16538           0.0000000000
     49614     16538  TIP3      H2             14.3677633595      -21.5386922861       18.0164903535  W2        16538           0.0000000000
     49615     16539  TIP3      OH2            20.0649833595      -29.5528322861        5.4628703535  W2        16539           0.0000000000
     49616     16539  TIP3      H1             19.5106133595      -29.9490322861        4.7906203535  W2        16539           0.0000000000
     49617     16539  TIP3      H2             20.1653433595      -28.6423122861        5.1852003535  W2        16539           0.0000000000
     49618     16540  TIP3      OH2            20.0281833595      -23.7526622861       18.3000203535  W2        16540           0.0000000000
     49619     16540  TIP3      H1             19.1770333595      -23.5142822861       17.9326603535  W2        16540           0.0000000000
     49620     16540  TIP3      H2             20.6185233595      -23.7693422861       17.5467303535  W2        16540           0.0000000000
     49621     16541  TIP3      OH2            18.3601533595      -20.7667922861        5.9280803535  W2        16541           0.0000000000
     49622     16541  TIP3      H1             17.9872633595      -21.5924122861        6.2371403535  W2        16541           0.0000000000
     49623     16541  TIP3      H2             18.6375033595      -20.9498522861        5.0304203535  W2        16541           0.0000000000
     49624     16542  TIP3      OH2            15.5205433595      -25.9588422861       12.9492703535  W2        16542           0.0000000000
     49625     16542  TIP3      H1             14.5922333595      -26.1906522861       12.9222003535  W2        16542           0.0000000000
     49626     16542  TIP3      H2             15.9716533595      -26.7358622861       12.6191503535  W2        16542           0.0000000000
     49627     16543  TIP3      OH2             8.0638533595      -21.6306822861        9.0821403535  W2        16543           0.0000000000
     49628     16543  TIP3      H1              8.5910733595      -20.8572422861        8.8820203535  W2        16543           0.0000000000
     49629     16543  TIP3      H2              7.1837033595      -21.4057622861        8.7805403535  W2        16543           0.0000000000
     49630     16544  TIP3      OH2             3.8186233595      -26.7682722861        3.6693803535  W2        16544           0.0000000000
     49631     16544  TIP3      H1              4.4346133595      -26.1415522861        4.0488603535  W2        16544           0.0000000000
     49632     16544  TIP3      H2              2.9568833595      -26.4522922861        3.9410303535  W2        16544           0.0000000000
     49633     16545  TIP3      OH2             9.4910833595      -23.9676922861        8.6585703535  W2        16545           0.0000000000
     49634     16545  TIP3      H1              9.2500833595      -23.0422522861        8.7001003535  W2        16545           0.0000000000
     49635     16545  TIP3      H2              8.7504433595      -24.4265622861        9.0549603535  W2        16545           0.0000000000
     49636     16546  TIP3      OH2            10.0057433595      -19.8183322861       14.9736803535  W2        16546           0.0000000000
     49637     16546  TIP3      H1             10.3682133595      -18.9637722861       14.7401203535  W2        16546           0.0000000000
     49638     16546  TIP3      H2             10.5372633595      -20.1101722861       15.7143103535  W2        16546           0.0000000000
     49639     16547  TIP3      OH2             8.1741633595      -18.9459322861        8.2037903535  W2        16547           0.0000000000
     49640     16547  TIP3      H1              7.2242133595      -18.8401922861        8.2551203535  W2        16547           0.0000000000
     49641     16547  TIP3      H2              8.5259733595      -18.1251922861        8.5485403535  W2        16547           0.0000000000
     49642     16548  TIP3      OH2            13.5498233595      -23.7192622861       14.6742403535  W2        16548           0.0000000000
     49643     16548  TIP3      H1             13.1239533595      -23.9470922861       15.5006403535  W2        16548           0.0000000000
     49644     16548  TIP3      H2             14.1304033595      -24.4580822861       14.4917703535  W2        16548           0.0000000000
     49645     16549  TIP3      OH2            15.7527133595      -22.7902122861        3.7481403535  W2        16549           0.0000000000
     49646     16549  TIP3      H1             16.1060233595      -23.1702322861        4.5524903535  W2        16549           0.0000000000
     49647     16549  TIP3      H2             14.8040633595      -22.8837322861        3.8350703535  W2        16549           0.0000000000
     49648     16550  TIP3      OH2            16.2082433595      -19.1673122861       17.1437203535  W2        16550           0.0000000000
     49649     16550  TIP3      H1             15.6065633595      -19.7230222861       16.6483503535  W2        16550           0.0000000000
     49650     16550  TIP3      H2             16.4896133595      -18.5003322861       16.5174603535  W2        16550           0.0000000000
     49651     16551  TIP3      OH2            20.2561533595      -18.3109622861        3.9491603535  W2        16551           0.0000000000
     49652     16551  TIP3      H1             20.9999433595      -17.7249122861        3.8093203535  W2        16551           0.0000000000
     49653     16551  TIP3      H2             19.5619633595      -17.7423822861        4.2824003535  W2        16551           0.0000000000
     49654     16552  TIP3      OH2             4.3308333595      -31.9345422861       16.5509803535  W2        16552           0.0000000000
     49655     16552  TIP3      H1              3.4380633595      -31.5960022861       16.4833803535  W2        16552           0.0000000000
     49656     16552  TIP3      H2              4.2321133595      -32.7899322861       16.9690603535  W2        16552           0.0000000000
     49657     16553  TIP3      OH2            16.6186433595      -24.1180122861        5.9749303535  W2        16553           0.0000000000
     49658     16553  TIP3      H1             16.3414033595      -24.8460822861        6.5310403535  W2        16553           0.0000000000
     49659     16553  TIP3      H2             17.5459433595      -23.9988122861        6.1801903535  W2        16553           0.0000000000
     49660     16554  TIP3      OH2             3.9820333595      -20.1301022861       14.9859203535  W2        16554           0.0000000000
     49661     16554  TIP3      H1              4.1990633595      -21.0618622861       14.9548903535  W2        16554           0.0000000000
     49662     16554  TIP3      H2              4.2283833595      -19.8556022861       15.8692003535  W2        16554           0.0000000000
     49663     16555  TIP3      OH2             9.8434933595      -21.6786022861        2.1951403535  W2        16555           0.0000000000
     49664     16555  TIP3      H1             10.0824733595      -22.4267922861        1.6480303535  W2        16555           0.0000000000
     49665     16555  TIP3      H2              9.5746233595      -22.0664322861        3.0279203535  W2        16555           0.0000000000
     49666     16556  TIP3      OH2             8.7805533595      -22.1082222861        4.6514003535  W2        16556           0.0000000000
     49667     16556  TIP3      H1              8.9273533595      -22.6282422861        5.4414903535  W2        16556           0.0000000000
     49668     16556  TIP3      H2              8.7777233595      -21.2014622861        4.9579903535  W2        16556           0.0000000000
     49669     16557  TIP3      OH2             5.2336633595      -24.8558922861        5.1619403535  W2        16557           0.0000000000
     49670     16557  TIP3      H1              4.5475933595      -24.5036422861        5.7289103535  W2        16557           0.0000000000
     49671     16557  TIP3      H2              5.7564533595      -24.0929322861        4.9153703535  W2        16557           0.0000000000
     49672     16558  TIP3      OH2            13.0651733595      -32.1935122861       15.4408403535  W2        16558           0.0000000000
     49673     16558  TIP3      H1             13.7639633595      -32.1196422861       16.0908103535  W2        16558           0.0000000000
     49674     16558  TIP3      H2             12.6843133595      -33.0580122861       15.5951303535  W2        16558           0.0000000000
     49675     16559  TIP3      OH2            13.8496633595      -32.5413422861        6.5380703535  W2        16559           0.0000000000
     49676     16559  TIP3      H1             14.0694933595      -32.0698022861        5.7346103535  W2        16559           0.0000000000
     49677     16559  TIP3      H2             14.4080633595      -32.1470822861        7.2081303535  W2        16559           0.0000000000
     49678     16560  TIP3      OH2            11.5182733595      -20.4108622861        5.4008203535  W2        16560           0.0000000000
     49679     16560  TIP3      H1             10.7018833595      -19.9138922861        5.4532503535  W2        16560           0.0000000000
     49680     16560  TIP3      H2             12.0479033595      -19.9355122861        4.7607003535  W2        16560           0.0000000000
     49681     16561  TIP3      OH2            11.0496533595      -30.8134622861        7.3729103535  W2        16561           0.0000000000
     49682     16561  TIP3      H1             11.8619133595      -30.3091422861        7.4190803535  W2        16561           0.0000000000
     49683     16561  TIP3      H2             10.8049533595      -30.9584922861        8.2868703535  W2        16561           0.0000000000
     49684     16562  TIP3      OH2            11.5852933595      -29.8271922861       16.5575703535  W2        16562           0.0000000000
     49685     16562  TIP3      H1             11.7043233595      -29.2536522861       17.3146103535  W2        16562           0.0000000000
     49686     16562  TIP3      H2             12.2407533595      -30.5152522861       16.6723503535  W2        16562           0.0000000000
     49687     16563  TIP3      OH2            11.9333233595      -33.7321622861        8.3110203535  W2        16563           0.0000000000
     49688     16563  TIP3      H1             11.5866733595      -33.1151022861        8.9554503535  W2        16563           0.0000000000
     49689     16563  TIP3      H2             12.5920133595      -33.2315922861        7.8295703535  W2        16563           0.0000000000
     49690     16564  TIP3      OH2             8.8565833595      -19.3671422861        5.3825103535  W2        16564           0.0000000000
     49691     16564  TIP3      H1              9.0174533595      -18.5673922861        4.8817703535  W2        16564           0.0000000000
     49692     16564  TIP3      H2              8.6593633595      -19.0605422861        6.2675703535  W2        16564           0.0000000000
     49693     16565  TIP3      OH2             7.5910233595      -32.6692222861        4.9982703535  W2        16565           0.0000000000
     49694     16565  TIP3      H1              7.5075033595      -31.7809122861        5.3449103535  W2        16565           0.0000000000
     49695     16565  TIP3      H2              8.4810533595      -32.9345522861        5.2299503535  W2        16565           0.0000000000
     49696     16566  TIP3      OH2            17.7898733595      -31.9201622861       17.3925403535  W2        16566           0.0000000000
     49697     16566  TIP3      H1             16.8734533595      -31.6579922861       17.3049103535  W2        16566           0.0000000000
     49698     16566  TIP3      H2             18.1253733595      -31.9232622861       16.4960703535  W2        16566           0.0000000000
     49699     16567  TIP3      OH2            16.3919733595      -28.1700622861       11.4882703535  W2        16567           0.0000000000
     49700     16567  TIP3      H1             15.5944133595      -28.5850422861       11.1597703535  W2        16567           0.0000000000
     49701     16567  TIP3      H2             16.8370833595      -28.8606922861       11.9793203535  W2        16567           0.0000000000
     49702     16568  TIP3      OH2             5.8495533595      -22.2420022861        4.0587203535  W2        16568           0.0000000000
     49703     16568  TIP3      H1              6.4417033595      -21.5425222861        4.3349603535  W2        16568           0.0000000000
     49704     16568  TIP3      H2              6.3088533595      -22.6750522861        3.3391803535  W2        16568           0.0000000000
     49705     16569  TIP3      OH2             4.1654733595      -29.5777022861        3.1746603535  W2        16569           0.0000000000
     49706     16569  TIP3      H1              4.1207333595      -28.6383922861        3.3533603535  W2        16569           0.0000000000
     49707     16569  TIP3      H2              3.2777933595      -29.8132122861        2.9048703535  W2        16569           0.0000000000
     49708     16570  TIP3      OH2            17.4784333595      -18.9138122861       13.1106203535  W2        16570           0.0000000000
     49709     16570  TIP3      H1             17.3228633595      -18.2353722861       12.4535503535  W2        16570           0.0000000000
     49710     16570  TIP3      H2             18.4110733595      -18.8418822861       13.3136803535  W2        16570           0.0000000000
     49711     16571  TIP3      OH2             4.9736733595      -34.7960422861       11.8477603535  W2        16571           0.0000000000
     49712     16571  TIP3      H1              4.7446533595      -34.7367922861       10.9202603535  W2        16571           0.0000000000
     49713     16571  TIP3      H2              4.5310133595      -35.5874922861       12.1541703535  W2        16571           0.0000000000
     49714     16572  TIP3      OH2             3.9040033595      -20.8553322861        8.0083403535  W2        16572           0.0000000000
     49715     16572  TIP3      H1              3.0718633595      -20.3830622861        8.0354803535  W2        16572           0.0000000000
     49716     16572  TIP3      H2              4.4498333595      -20.3455722861        7.4096503535  W2        16572           0.0000000000
     49717     16573  TIP3      OH2             3.1923733595      -18.2429622861       19.3381403535  W2        16573           0.0000000000
     49718     16573  TIP3      H1              3.7325933595      -18.4595622861       20.0980603535  W2        16573           0.0000000000
     49719     16573  TIP3      H2              2.7111733595      -19.0483622861       19.1483903535  W2        16573           0.0000000000
     49720     16574  TIP3      OH2             7.7897133595      -19.3235222861       20.9585603535  W2        16574           0.0000000000
     49721     16574  TIP3      H1              8.5574333595      -19.7824422861       21.2994803535  W2        16574           0.0000000000
     49722     16574  TIP3      H2              7.7683333595      -19.5495422861       20.0286803535  W2        16574           0.0000000000
     49723     16575  TIP3      OH2            11.8816733595      -19.8154622861        2.3337403535  W2        16575           0.0000000000
     49724     16575  TIP3      H1             11.2377733595      -20.4466022861        2.6551103535  W2        16575           0.0000000000
     49725     16575  TIP3      H2             12.6435033595      -20.3466622861        2.1020903535  W2        16575           0.0000000000
     49726     16576  TIP3      OH2            14.3665833595      -20.9434122861       19.6877103535  W2        16576           0.0000000000
     49727     16576  TIP3      H1             14.0155333595      -21.8001122861       19.9307503535  W2        16576           0.0000000000
     49728     16576  TIP3      H2             15.0929033595      -20.8007422861       20.2946103535  W2        16576           0.0000000000
     49729     16577  TIP3      OH2            16.4859633595      -19.9984722861        2.5675403535  W2        16577           0.0000000000
     49730     16577  TIP3      H1             16.7690033595      -20.7929522861        3.0202303535  W2        16577           0.0000000000
     49731     16577  TIP3      H2             17.2257533595      -19.7653722861        2.0066503535  W2        16577           0.0000000000
     49732     16578  TIP3      OH2             3.0993233595      -24.4325522861       20.2925703535  W2        16578           0.0000000000
     49733     16578  TIP3      H1              3.2433733595      -25.3344822861       20.0062403535  W2        16578           0.0000000000
     49734     16578  TIP3      H2              2.3270633595      -24.1463422861       19.8048003535  W2        16578           0.0000000000
     49735     16579  TIP3      OH2             7.4406933595      -24.0889822861        2.4250303535  W2        16579           0.0000000000
     49736     16579  TIP3      H1              7.5051033595      -24.8830222861        2.9556703535  W2        16579           0.0000000000
     49737     16579  TIP3      H2              8.0936133595      -24.2077022861        1.7352303535  W2        16579           0.0000000000
     49738     16580  TIP3      OH2             9.7549333595      -24.4627422861       19.7252103535  W2        16580           0.0000000000
     49739     16580  TIP3      H1              9.4263133595      -24.1919322861       18.8679503535  W2        16580           0.0000000000
     49740     16580  TIP3      H2              9.9067533595      -25.4037622861       19.6377103535  W2        16580           0.0000000000
     49741     16581  TIP3      OH2            12.7930333595      -23.0418122861        2.1608303535  W2        16581           0.0000000000
     49742     16581  TIP3      H1             12.5244433595      -22.8616022861        3.0617203535  W2        16581           0.0000000000
     49743     16581  TIP3      H2             12.5865933595      -23.9671922861        2.0294103535  W2        16581           0.0000000000
     49744     16582  TIP3      OH2            15.4894533595      -24.5470122861       17.1084403535  W2        16582           0.0000000000
     49745     16582  TIP3      H1             16.2349333595      -23.9586422861       16.9888403535  W2        16582           0.0000000000
     49746     16582  TIP3      H2             14.7321333595      -23.9650422861       17.1717503535  W2        16582           0.0000000000
     49747     16583  TIP3      OH2             3.9319733595      -27.2322222861       19.7125003535  W2        16583           0.0000000000
     49748     16583  TIP3      H1              4.3400933595      -28.0895622861       19.5915603535  W2        16583           0.0000000000
     49749     16583  TIP3      H2              3.6717333595      -27.2180922861       20.6335303535  W2        16583           0.0000000000
     49750     16584  TIP3      OH2             8.5900733595      -26.1163622861        4.7308303535  W2        16584           0.0000000000
     49751     16584  TIP3      H1              8.1302733595      -26.6005322861        5.4166803535  W2        16584           0.0000000000
     49752     16584  TIP3      H2              8.8449433595      -26.7848222861        4.0948803535  W2        16584           0.0000000000
     49753     16585  TIP3      OH2             7.8790033595      -28.2236522861       17.0867903535  W2        16585           0.0000000000
     49754     16585  TIP3      H1              7.2606133595      -27.5489922861       17.3672603535  W2        16585           0.0000000000
     49755     16585  TIP3      H2              8.2231233595      -27.9022622861       16.2534103535  W2        16585           0.0000000000
     49756     16586  TIP3      OH2             9.6611133595      -27.8731822861        2.9931503535  W2        16586           0.0000000000
     49757     16586  TIP3      H1              9.4806133595      -28.0280622861        2.0659803535  W2        16586           0.0000000000
     49758     16586  TIP3      H2             10.6111633595      -27.7653122861        3.0379403535  W2        16586           0.0000000000
     49759     16587  TIP3      OH2            12.8988233595      -25.7521222861       20.3642703535  W2        16587           0.0000000000
     49760     16587  TIP3      H1             13.8519433595      -25.6682122861       20.3368703535  W2        16587           0.0000000000
     49761     16587  TIP3      H2             12.7382833595      -26.4639422861       20.9837603535  W2        16587           0.0000000000
     49762     16588  TIP3      OH2            19.0509433595      -25.5187622861        2.4389603535  W2        16588           0.0000000000
     49763     16588  TIP3      H1             18.7774233595      -25.9432122861        1.6257903535  W2        16588           0.0000000000
     49764     16588  TIP3      H2             19.0903533595      -24.5873122861        2.2220003535  W2        16588           0.0000000000
     49765     16589  TIP3      OH2             8.2183733595      -30.8685722861       18.1691003535  W2        16589           0.0000000000
     49766     16589  TIP3      H1              8.3684633595      -31.5974422861       17.5670703535  W2        16589           0.0000000000
     49767     16589  TIP3      H2              8.2206133595      -30.0914022861       17.6103203535  W2        16589           0.0000000000
     49768     16590  TIP3      OH2             8.6309433595      -32.4989922861       15.6618403535  W2        16590           0.0000000000
     49769     16590  TIP3      H1              9.1666933595      -32.0473222861       15.0097703535  W2        16590           0.0000000000
     49770     16590  TIP3      H2              7.7789033595      -32.6070122861       15.2392503535  W2        16590           0.0000000000
     49771     16591  TIP3      OH2            10.2127833595      -27.0593722861       15.9013603535  W2        16591           0.0000000000
     49772     16591  TIP3      H1             10.9632633595      -27.2156222861       15.3281403535  W2        16591           0.0000000000
     49773     16591  TIP3      H2              9.8736133595      -26.2077122861       15.6259103535  W2        16591           0.0000000000
     49774     16592  TIP3      OH2            14.6284033595      -29.2441922861       20.9298903535  W2        16592           0.0000000000
     49775     16592  TIP3      H1             14.8205333595      -30.1752522861       20.8183403535  W2        16592           0.0000000000
     49776     16592  TIP3      H2             15.4860333595      -28.8192422861       20.9194303535  W2        16592           0.0000000000
     49777     16593  TIP3      OH2            15.9451233595      -26.4556722861       19.0071603535  W2        16593           0.0000000000
     49778     16593  TIP3      H1             15.6636233595      -25.7462122861       18.4295403535  W2        16593           0.0000000000
     49779     16593  TIP3      H2             16.8875533595      -26.5283722861       18.8562803535  W2        16593           0.0000000000
     49780     16594  TIP3      OH2             6.6970033595      -29.6702222861       20.0806603535  W2        16594           0.0000000000
     49781     16594  TIP3      H1              5.9299033595      -30.2027422861       19.8704203535  W2        16594           0.0000000000
     49782     16594  TIP3      H2              7.3759033595      -29.9801822861       19.4812903535  W2        16594           0.0000000000
     49783     16595  TIP3      OH2             9.4364933595      -35.0424222861       16.0932003535  W2        16595           0.0000000000
     49784     16595  TIP3      H1              9.3384533595      -34.0961022861       15.9878203535  W2        16595           0.0000000000
     49785     16595  TIP3      H2              8.6941133595      -35.4150422861       15.6175503535  W2        16595           0.0000000000
     49786     16596  TIP3      OH2            10.7005433595      -30.7208822861       19.6570403535  W2        16596           0.0000000000
     49787     16596  TIP3      H1             10.4650833595      -30.9402122861       20.5585303535  W2        16596           0.0000000000
     49788     16596  TIP3      H2              9.9172333595      -30.9277622861       19.1472903535  W2        16596           0.0000000000
     49789     16597  TIP3      OH2            13.4162033595      -31.5935322861       18.7323903535  W2        16597           0.0000000000
     49790     16597  TIP3      H1             12.4687433595      -31.5615622861       18.8647203535  W2        16597           0.0000000000
     49791     16597  TIP3      H2             13.7288733595      -32.2188222861       19.3862103535  W2        16597           0.0000000000
     49792     16598  TIP3      OH2            15.0503533595      -32.9594222861       20.7375803535  W2        16598           0.0000000000
     49793     16598  TIP3      H1             14.9535333595      -33.9116922861       20.7317703535  W2        16598           0.0000000000
     49794     16598  TIP3      H2             14.7286633595      -32.6907422861       21.5981303535  W2        16598           0.0000000000
     49795     16599  TIP3      OH2             4.8772833595      -31.7498422861       19.7851303535  W2        16599           0.0000000000
     49796     16599  TIP3      H1              5.0890233595      -32.4562322861       19.1748803535  W2        16599           0.0000000000
     49797     16599  TIP3      H2              4.7660333595      -32.1872422861       20.6292503535  W2        16599           0.0000000000
     49798     16600  TIP3      OH2             9.6583033595      -35.7486822861       18.7644803535  W2        16600           0.0000000000
     49799     16600  TIP3      H1             10.3701433595      -36.3884622861       18.7503903535  W2        16600           0.0000000000
     49800     16600  TIP3      H2              9.5573433595      -35.4818522861       17.8507903535  W2        16600           0.0000000000
     49801     16601  TIP3      OH2            10.0120533595      -34.0658422861       20.8181103535  W2        16601           0.0000000000
     49802     16601  TIP3      H1              9.8802733595      -34.5414622861       19.9979603535  W2        16601           0.0000000000
     49803     16601  TIP3      H2              9.4127933595      -33.3214822861       20.7628203535  W2        16601           0.0000000000
     49804     16602  TIP3      OH2             9.5582833595      -17.1828122861        3.9945103535  W2        16602           0.0000000000
     49805     16602  TIP3      H1             10.4913533595      -17.0249422861        4.1383503535  W2        16602           0.0000000000
     49806     16602  TIP3      H2              9.2941633595      -16.5075122861        3.3696603535  W2        16602           0.0000000000
     49807     16603  TIP3      OH2             3.1267733595      -22.5464322861        3.4773203535  W2        16603           0.0000000000
     49808     16603  TIP3      H1              4.0406933595      -22.4675422861        3.7507103535  W2        16603           0.0000000000
     49809     16603  TIP3      H2              3.1340833595      -23.2334722861        2.8108803535  W2        16603           0.0000000000
     49810     16604  TIP3      OH2             1.7758333595      -17.1535822861        8.5547103535  W2        16604           0.0000000000
     49811     16604  TIP3      H1              1.1285433595      -17.6154122861        8.0218303535  W2        16604           0.0000000000
     49812     16604  TIP3      H2              2.1302933595      -17.8252522861        9.1373303535  W2        16604           0.0000000000
     49813     16605  TIP3      OH2             2.6457533595      -19.0728822861       10.3593303535  W2        16605           0.0000000000
     49814     16605  TIP3      H1              2.3114333595      -19.9531522861       10.5313503535  W2        16605           0.0000000000
     49815     16605  TIP3      H2              2.8679933595      -18.7273822861       11.2238903535  W2        16605           0.0000000000
     49816     16606  TIP3      OH2            20.1942333595      -18.2632422861       13.3398103535  W2        16606           0.0000000000
     49817     16606  TIP3      H1             20.1729033595      -18.0784022861       14.2787503535  W2        16606           0.0000000000
     49818     16606  TIP3      H2             20.8848533595      -17.6948422861       12.9989503535  W2        16606           0.0000000000
     49819     16607  TIP3      OH2            19.7575233595      -18.6961322861       16.2617203535  W2        16607           0.0000000000
     49820     16607  TIP3      H1             19.2703933595      -19.4317222861       15.8904603535  W2        16607           0.0000000000
     49821     16607  TIP3      H2             20.3067933595      -19.0897422861       16.9396603535  W2        16607           0.0000000000
     49822     16608  TIP3      OH2            18.2082533595      -22.9063222861       20.8997503535  W2        16608           0.0000000000
     49823     16608  TIP3      H1             17.3423633595      -23.0113522861       21.2939803535  W2        16608           0.0000000000
     49824     16608  TIP3      H2             18.5848433595      -22.1479922861       21.3462203535  W2        16608           0.0000000000
     49825     16609  TIP3      OH2            19.5092233595      -24.6499522861        6.4140003535  W2        16609           0.0000000000
     49826     16609  TIP3      H1             20.3593633595      -24.2288622861        6.5411603535  W2        16609           0.0000000000
     49827     16609  TIP3      H2             19.5147333595      -25.3899422861        7.0211403535  W2        16609           0.0000000000
     49828     16610  TIP3      OH2            19.9037833595      -26.5962122861        8.2375703535  W2        16610           0.0000000000
     49829     16610  TIP3      H1             19.1772433595      -27.0759522861        8.6353303535  W2        16610           0.0000000000
     49830     16610  TIP3      H2             20.4851133595      -26.3907422861        8.9697303535  W2        16610           0.0000000000
     49831     16611  TIP3      OH2            19.6629033595      -23.8114622861       13.1853303535  W2        16611           0.0000000000
     49832     16611  TIP3      H1             20.4963233595      -24.1894622861       12.9046903535  W2        16611           0.0000000000
     49833     16611  TIP3      H2             19.7749333595      -22.8683422861       13.0662403535  W2        16611           0.0000000000
     49834     16612  TIP3      OH2            18.1491333595      -20.9337122861       15.4921703535  W2        16612           0.0000000000
     49835     16612  TIP3      H1             17.5016633595      -20.6085622861       16.1176903535  W2        16612           0.0000000000
     49836     16612  TIP3      H2             17.6315333595      -21.3739422861       14.8180003535  W2        16612           0.0000000000
     49837     16613  TIP3      OH2            20.1720933595      -26.6953622861        4.6287003535  W2        16613           0.0000000000
     49838     16613  TIP3      H1             19.6502033595      -26.3389522861        3.9097903535  W2        16613           0.0000000000
     49839     16613  TIP3      H2             20.1390133595      -26.0205822861        5.3067903535  W2        16613           0.0000000000
     49840     16614  TIP3      OH2            18.5209933595      -29.4558022861        3.1794103535  W2        16614           0.0000000000
     49841     16614  TIP3      H1             18.6174333595      -28.7891022861        2.4993803535  W2        16614           0.0000000000
     49842     16614  TIP3      H2             18.3809533595      -30.2711722861        2.6979603535  W2        16614           0.0000000000
     49843     16615  TIP3      OH2            17.6904633595      -28.0755622861        8.8004403535  W2        16615           0.0000000000
     49844     16615  TIP3      H1             17.5403433595      -29.0207022861        8.7802203535  W2        16615           0.0000000000
     49845     16615  TIP3      H2             17.3369133595      -27.7944222861        9.6443503535  W2        16615           0.0000000000
     49846     16616  TIP3      OH2             2.7257033595      -25.9973422861       12.8108203535  W2        16616           0.0000000000
     49847     16616  TIP3      H1              2.9099933595      -26.0791722861       11.8751103535  W2        16616           0.0000000000
     49848     16616  TIP3      H2              3.5749933595      -26.1216422861       13.2344603535  W2        16616           0.0000000000
     49849     16617  TIP3      OH2            18.5467533595      -26.1052322861       18.4392703535  W2        16617           0.0000000000
     49850     16617  TIP3      H1             19.1294833595      -26.8400022861       18.6309903535  W2        16617           0.0000000000
     49851     16617  TIP3      H2             19.1106833595      -25.3332022861       18.4858503535  W2        16617           0.0000000000
     49852     16618  TIP3      OH2            20.0434633595      -28.2026522861       19.1238103535  W2        16618           0.0000000000
     49853     16618  TIP3      H1             19.1801333595      -28.5814422861       18.9582803535  W2        16618           0.0000000000
     49854     16618  TIP3      H2             20.6478333595      -28.9411722861       19.0493903535  W2        16618           0.0000000000
     49855     16619  TIP3      OH2            17.7683733595      -32.0478222861        2.2969603535  W2        16619           0.0000000000
     49856     16619  TIP3      H1             18.3789533595      -32.4191422861        2.9337803535  W2        16619           0.0000000000
     49857     16619  TIP3      H2             16.9315233595      -32.4691322861        2.4929603535  W2        16619           0.0000000000
     49858     16620  TIP3      OH2            17.4009433595      -30.4929822861        7.2629503535  W2        16620           0.0000000000
     49859     16620  TIP3      H1             17.6806533595      -31.3999422861        7.3871203535  W2        16620           0.0000000000
     49860     16620  TIP3      H2             18.1601133595      -30.0588322861        6.8738703535  W2        16620           0.0000000000
     49861     16621  TIP3      OH2            18.0127733595      -29.9112422861       12.6988403535  W2        16621           0.0000000000
     49862     16621  TIP3      H1             18.9455733595      -29.6992522861       12.6644403535  W2        16621           0.0000000000
     49863     16621  TIP3      H2             17.7775233595      -29.8100322861       13.6211403535  W2        16621           0.0000000000
     49864     16622  TIP3      OH2            18.0419633595      -29.1747122861       15.4747803535  W2        16622           0.0000000000
     49865     16622  TIP3      H1             17.1990933595      -28.9066722861       15.8407603535  W2        16622           0.0000000000
     49866     16622  TIP3      H2             18.4843933595      -28.3525222861       15.2638903535  W2        16622           0.0000000000
     49867     16623  TIP3      OH2             2.3231833595      -30.7268422861       18.9517003535  W2        16623           0.0000000000
     49868     16623  TIP3      H1              3.2426733595      -30.8490122861       19.1880103535  W2        16623           0.0000000000
     49869     16623  TIP3      H2              1.8736333595      -31.4768722861       19.3410503535  W2        16623           0.0000000000
     49870     16624  TIP3      OH2            20.3251233595      -35.1946922861       20.8282803535  W2        16624           0.0000000000
     49871     16624  TIP3      H1             20.6748233595      -35.8483422861       20.2227503535  W2        16624           0.0000000000
     49872     16624  TIP3      H2             20.4720733595      -34.3572822861       20.3885403535  W2        16624           0.0000000000
     49873     16625  TIP3      OH2            18.0144233595      -33.2300522861        7.3111503535  W2        16625           0.0000000000
     49874     16625  TIP3      H1             18.1969233595      -33.6789022861        8.1366503535  W2        16625           0.0000000000
     49875     16625  TIP3      H2             17.4147133595      -33.8146122861        6.8476103535  W2        16625           0.0000000000
     49876     16626  TIP3      OH2             3.5444333595      -32.4146822861       11.8429903535  W2        16626           0.0000000000
     49877     16626  TIP3      H1              3.9895933595      -33.2064322861       12.1449603535  W2        16626           0.0000000000
     49878     16626  TIP3      H2              4.0107333595      -31.6981622861       12.2735503535  W2        16626           0.0000000000
     49879     16627  TIP3      OH2             1.8484633595      -29.4153822861       12.9120103535  W2        16627           0.0000000000
     49880     16627  TIP3      H1              2.3404433595      -29.6363322861       12.1212103535  W2        16627           0.0000000000
     49881     16627  TIP3      H2              2.2105533595      -28.5750422861       13.1929603535  W2        16627           0.0000000000
     49882     16628  TIP3      OH2            19.8448433595      -33.0852322861       19.1774103535  W2        16628           0.0000000000
     49883     16628  TIP3      H1             18.9274133595      -32.8145222861       19.1417603535  W2        16628           0.0000000000
     49884     16628  TIP3      H2             19.9677833595      -33.6203922861       18.3933803535  W2        16628           0.0000000000
     49885     16629  TIP3      OH2            19.8810433595      -33.1622422861        3.8391803535  W2        16629           0.0000000000
     49886     16629  TIP3      H1             20.2933033595      -33.8836722861        3.3639803535  W2        16629           0.0000000000
     49887     16629  TIP3      H2             20.5626933595      -32.4927822861        3.8976103535  W2        16629           0.0000000000
     49888     16630  TIP3      OH2             2.1621133595      -33.1574722861        6.9662503535  W2        16630           0.0000000000
     49889     16630  TIP3      H1              1.2369533595      -32.9488122861        6.8368003535  W2        16630           0.0000000000
     49890     16630  TIP3      H2              2.6161033595      -32.6733922861        6.2764803535  W2        16630           0.0000000000
     49891     16631  TIP3      OH2            16.9328333595      -18.1733022861        8.9119903535  W2        16631           0.0000000000
     49892     16631  TIP3      H1             17.5851233595      -18.5210922861        8.3039003535  W2        16631           0.0000000000
     49893     16631  TIP3      H2             17.4432133595      -17.6849822861        9.5579603535  W2        16631           0.0000000000
     49894     16632  TIP3      OH2             2.1256533595      -34.4195722861       15.3105003535  W2        16632           0.0000000000
     49895     16632  TIP3      H1              1.4607033595      -34.6655422861       15.9535903535  W2        16632           0.0000000000
     49896     16632  TIP3      H2              1.6827833595      -33.7975322861       14.7333003535  W2        16632           0.0000000000
     49897     16633  TIP3      OH2             4.3175833595      -21.2441622861       19.4550803535  W2        16633           0.0000000000
     49898     16633  TIP3      H1              3.4968333595      -21.0695122861       18.9945503535  W2        16633           0.0000000000
     49899     16633  TIP3      H2              4.0653633595      -21.3176922861       20.3755203535  W2        16633           0.0000000000
     49900     16634  TIP3      OH2             7.2718733595      -20.2700422861       15.7134803535  W2        16634           0.0000000000
     49901     16634  TIP3      H1              6.8469833595      -19.4601922861       15.4309403535  W2        16634           0.0000000000
     49902     16634  TIP3      H2              8.1761533595      -20.1846322861       15.4114603535  W2        16634           0.0000000000
     49903     16635  TIP3      OH2            11.5830133595      -18.8710422861       18.6728503535  W2        16635           0.0000000000
     49904     16635  TIP3      H1             11.7677633595      -19.2044322861       19.5508803535  W2        16635           0.0000000000
     49905     16635  TIP3      H2             12.4294633595      -18.5611822861       18.3507703535  W2        16635           0.0000000000
     49906     16636  TIP3      OH2            13.9280533595      -17.5851522861       17.9169903535  W2        16636           0.0000000000
     49907     16636  TIP3      H1             14.6049433595      -18.2179222861       17.6769103535  W2        16636           0.0000000000
     49908     16636  TIP3      H2             14.2499333595      -17.1841022861       18.7243203535  W2        16636           0.0000000000
     49909     16637  TIP3      OH2            18.8454333595      -34.9956022861       16.9964903535  W2        16637           0.0000000000
     49910     16637  TIP3      H1             18.0327833595      -34.6705722861       16.6089603535  W2        16637           0.0000000000
     49911     16637  TIP3      H2             19.0782833595      -35.7557522861       16.4634003535  W2        16637           0.0000000000
     49912     16638  TIP3      OH2             4.6735433595      -17.0136522861       15.7610103535  W2        16638           0.0000000000
     49913     16638  TIP3      H1              3.9531833595      -16.5735522861       15.3097803535  W2        16638           0.0000000000
     49914     16638  TIP3      H2              4.3079433595      -17.2641822861       16.6094103535  W2        16638           0.0000000000
     49915     16639  TIP3      OH2             7.1408033595      -17.4132622861       14.7907303535  W2        16639           0.0000000000
     49916     16639  TIP3      H1              6.2760233595      -17.3414122861       15.1947403535  W2        16639           0.0000000000
     49917     16639  TIP3      H2              7.0857033595      -16.8665322861       14.0069803535  W2        16639           0.0000000000
     49918     16640  TIP3      OH2            11.8513633595      -17.5253722861       13.9663303535  W2        16640           0.0000000000
     49919     16640  TIP3      H1             11.3947633595      -16.9964022861       13.3121703535  W2        16640           0.0000000000
     49920     16640  TIP3      H2             12.0141633595      -16.9222322861       14.6915603535  W2        16640           0.0000000000
     49921     16641  TIP3      OH2            14.1789933595      -18.6474122861       14.9113603535  W2        16641           0.0000000000
     49922     16641  TIP3      H1             13.2743633595      -18.4823922861       14.6455703535  W2        16641           0.0000000000
     49923     16641  TIP3      H2             14.6078533595      -17.7941922861       14.8457003535  W2        16641           0.0000000000
     49924     16642  TIP3      OH2            16.7831833595      -17.0775022861       15.2061403535  W2        16642           0.0000000000
     49925     16642  TIP3      H1             16.6013833595      -16.1616122861       14.9956303535  W2        16642           0.0000000000
     49926     16642  TIP3      H2             16.9599633595      -17.4877922861       14.3596003535  W2        16642           0.0000000000
     49927     16643  TIP3      OH2             4.0883533595      -18.3904022861       12.6711903535  W2        16643           0.0000000000
     49928     16643  TIP3      H1              4.0699533595      -18.8158922861       13.5284203535  W2        16643           0.0000000000
     49929     16643  TIP3      H2              4.8931433595      -18.7089022861       12.2624103535  W2        16643           0.0000000000
     49930     16644  TIP3      OH2             6.2296633595      -19.6805322861       11.3261803535  W2        16644           0.0000000000
     49931     16644  TIP3      H1              6.0107333595      -20.5967922861       11.4957803535  W2        16644           0.0000000000
     49932     16644  TIP3      H2              7.0538833595      -19.5404922861       11.7923203535  W2        16644           0.0000000000
     49933     16645  TIP3      OH2             8.7669133595      -19.2106022861       12.1749803535  W2        16645           0.0000000000
     49934     16645  TIP3      H1              8.9794833595      -20.0987022861       11.8880703535  W2        16645           0.0000000000
     49935     16645  TIP3      H2              8.8314233595      -19.2448322861       13.1293803535  W2        16645           0.0000000000
     49936     16646  TIP3      OH2            12.2752833595      -33.5465422861       11.3193103535  W2        16646           0.0000000000
     49937     16646  TIP3      H1             11.6009633595      -34.1759822861       11.5748903535  W2        16646           0.0000000000
     49938     16646  TIP3      H2             12.8392033595      -34.0306522861       10.7161003535  W2        16646           0.0000000000
     49939     16647  TIP3      OH2            17.4180033595      -35.4391422861       11.4320203535  W2        16647           0.0000000000
     49940     16647  TIP3      H1             18.0217633595      -34.8916022861       10.9301203535  W2        16647           0.0000000000
     49941     16647  TIP3      H2             16.5482033595      -35.1201022861       11.1914303535  W2        16647           0.0000000000
     49942     16648  TIP3      OH2            19.1450433595      -34.3002722861        9.7651103535  W2        16648           0.0000000000
     49943     16648  TIP3      H1             19.7567933595      -34.8147022861        9.2384703535  W2        16648           0.0000000000
     49944     16648  TIP3      H2             19.5273833595      -33.4230622861        9.7885503535  W2        16648           0.0000000000
     49945     16649  TIP3      OH2             4.6020333595      -34.9125122861        9.1413003535  W2        16649           0.0000000000
     49946     16649  TIP3      H1              3.8250133595      -35.1470222861        8.6338903535  W2        16649           0.0000000000
     49947     16649  TIP3      H2              5.1323933595      -35.7093022861        9.1501003535  W2        16649           0.0000000000
     49948     16650  TIP3      OH2             3.4383733595      -35.1147022861        4.9449103535  W2        16650           0.0000000000
     49949     16650  TIP3      H1              3.8774433595      -34.5036522861        4.3532603535  W2        16650           0.0000000000
     49950     16650  TIP3      H2              2.8046133595      -34.5762922861        5.4189103535  W2        16650           0.0000000000
     49951     16651  TIP3      OH2             9.1812933595      -34.9858022861        8.9546103535  W2        16651           0.0000000000
     49952     16651  TIP3      H1             10.0556333595      -34.5973722861        8.9250403535  W2        16651           0.0000000000
     49953     16651  TIP3      H2              9.0453733595      -35.2010222861        9.8773303535  W2        16651           0.0000000000
     49954     16652  TIP3      OH2            14.7381333595      -34.9558222861       10.6037803535  W2        16652           0.0000000000
     49955     16652  TIP3      H1             14.8142933595      -34.8606622861        9.6543803535  W2        16652           0.0000000000
     49956     16652  TIP3      H2             14.4630533595      -35.8635322861       10.7326903535  W2        16652           0.0000000000
     49957     16653  TIP3      OH2            16.0913933595      -34.9300422861        6.2962803535  W2        16653           0.0000000000
     49958     16653  TIP3      H1             15.3885033595      -34.3151222861        6.0864203535  W2        16653           0.0000000000
     49959     16653  TIP3      H2             15.6465333595      -35.7673722861        6.4273703535  W2        16653           0.0000000000
     49960     16654  TIP3      OH2             3.3393233595      -19.1664822861        5.8424203535  W2        16654           0.0000000000
     49961     16654  TIP3      H1              2.6543133595      -19.2045922861        5.1749303535  W2        16654           0.0000000000
     49962     16654  TIP3      H2              3.3430433595      -18.2537222861        6.1306303535  W2        16654           0.0000000000
     49963     16655  TIP3      OH2             5.2992833595      -33.1985522861        3.3873203535  W2        16655           0.0000000000
     49964     16655  TIP3      H1              5.7906233595      -33.8283122861        2.8598703535  W2        16655           0.0000000000
     49965     16655  TIP3      H2              5.9229133595      -32.9026122861        4.0504403535  W2        16655           0.0000000000
     49966     16656  TIP3      OH2            10.3252933595      -32.9054022861        5.8443703535  W2        16656           0.0000000000
     49967     16656  TIP3      H1             10.5034233595      -33.5520822861        6.5272303535  W2        16656           0.0000000000
     49968     16656  TIP3      H2             10.2719133595      -32.0716322861        6.3114803535  W2        16656           0.0000000000
     49969     16657  TIP3      OH2            12.2036733595      -17.9569922861        4.2400403535  W2        16657           0.0000000000
     49970     16657  TIP3      H1             13.0696933595      -17.5902522861        4.0618603535  W2        16657           0.0000000000
     49971     16657  TIP3      H2             11.9569533595      -18.3961922861        3.4261203535  W2        16657           0.0000000000
     49972     16658  TIP3      OH2            18.9126333595      -18.3939622861        6.9191503535  W2        16658           0.0000000000
     49973     16658  TIP3      H1             18.7183433595      -19.1417522861        6.3541103535  W2        16658           0.0000000000
     49974     16658  TIP3      H2             18.8736433595      -17.6359522861        6.3359403535  W2        16658           0.0000000000
     49975     16659  TIP3      OH2             4.5598333595      -34.3983222861       18.6589203535  W2        16659           0.0000000000
     49976     16659  TIP3      H1              4.1936533595      -35.1640622861       19.1013903535  W2        16659           0.0000000000
     49977     16659  TIP3      H2              5.4726833595      -34.3693022861       18.9454303535  W2        16659           0.0000000000
     49978     16660  TIP3      OH2             6.5329133595      -35.0478822861       20.1946303535  W2        16660           0.0000000000
     49979     16660  TIP3      H1              7.4312733595      -35.3218622861       20.0099703535  W2        16660           0.0000000000
     49980     16660  TIP3      H2              6.1462233595      -35.7902822861       20.6588903535  W2        16660           0.0000000000
     49981     16661  TIP3      OH2             5.1574433595      -18.2464022861        2.8676303535  W2        16661           0.0000000000
     49982     16661  TIP3      H1              4.8899033595      -17.9601122861        3.7409403535  W2        16661           0.0000000000
     49983     16661  TIP3      H2              5.9287033595      -18.7924822861        3.0198803535  W2        16661           0.0000000000
     49984     16662  TIP3      OH2            14.9541433595      -35.7153522861       20.3769103535  W2        16662           0.0000000000
     49985     16662  TIP3      H1             15.0308633595      -36.1412822861       21.2306803535  W2        16662           0.0000000000
     49986     16662  TIP3      H2             15.8478033595      -35.7018822861       20.0342603535  W2        16662           0.0000000000
     49987     16663  TIP3      OH2            18.1302533595      -19.6427222861       19.0693303535  W2        16663           0.0000000000
     49988     16663  TIP3      H1             17.3484433595      -19.8289222861       18.5493903535  W2        16663           0.0000000000
     49989     16663  TIP3      H2             18.0582433595      -18.7132922861       19.2865803535  W2        16663           0.0000000000
     49990     16664  TIP3      OH2            32.5362933595      -25.7562822861        9.1000503535  W2        16664           0.0000000000
     49991     16664  TIP3      H1             32.6254033595      -24.8124622861        8.9677603535  W2        16664           0.0000000000
     49992     16664  TIP3      H2             31.8980533595      -26.0316422861        8.4419903535  W2        16664           0.0000000000
     49993     16665  TIP3      OH2            31.4694233595      -26.5012122861       12.5188703535  W2        16665           0.0000000000
     49994     16665  TIP3      H1             31.4311733595      -27.1475822861       13.2238303535  W2        16665           0.0000000000
     49995     16665  TIP3      H2             31.1470733595      -26.9677722861       11.7477403535  W2        16665           0.0000000000
     49996     16666  TIP3      OH2            23.8379233595      -26.8870022861       14.1118603535  W2        16666           0.0000000000
     49997     16666  TIP3      H1             23.8791333595      -27.5126722861       14.8351003535  W2        16666           0.0000000000
     49998     16666  TIP3      H2             24.5406933595      -26.2631422861       14.2939003535  W2        16666           0.0000000000
     49999     16667  TIP3      OH2            35.1754433595      -23.5621722861       10.8203803535  W2        16667           0.0000000000
     50000     16667  TIP3      H1             34.7347133595      -24.2825722861       11.2709403535  W2        16667           0.0000000000
     50001     16667  TIP3      H2             35.1624133595      -22.8414522861       11.4501503535  W2        16667           0.0000000000
     50002     16668  TIP3      OH2            24.7612333595      -22.4371122861       12.6467703535  W2        16668           0.0000000000
     50003     16668  TIP3      H1             24.3917533595      -23.2390622861       12.2772003535  W2        16668           0.0000000000
     50004     16668  TIP3      H2             25.7023433595      -22.6056222861       12.6931103535  W2        16668           0.0000000000
     50005     16669  TIP3      OH2            21.3712833595      -28.7768522861        8.0396503535  W2        16669           0.0000000000
     50006     16669  TIP3      H1             20.9236233595      -27.9309822861        8.0213003535  W2        16669           0.0000000000
     50007     16669  TIP3      H2             20.8104033595      -29.3564322861        7.5241603535  W2        16669           0.0000000000
     50008     16670  TIP3      OH2            22.0818933595      -26.6148922861       10.1654503535  W2        16670           0.0000000000
     50009     16670  TIP3      H1             22.2952433595      -27.3847322861       10.6927503535  W2        16670           0.0000000000
     50010     16670  TIP3      H2             22.8196533595      -26.5252222861        9.5622103535  W2        16670           0.0000000000
     50011     16671  TIP3      OH2            32.2869933595      -18.4580022861       11.0324203535  W2        16671           0.0000000000
     50012     16671  TIP3      H1             32.9066333595      -19.1345322861       10.7593403535  W2        16671           0.0000000000
     50013     16671  TIP3      H2             32.0787333595      -18.6759222861       11.9409103535  W2        16671           0.0000000000
     50014     16672  TIP3      OH2            29.8588633595      -24.0690722861       12.9249703535  W2        16672           0.0000000000
     50015     16672  TIP3      H1             30.1626533595      -24.7549322861       12.3303803535  W2        16672           0.0000000000
     50016     16672  TIP3      H2             30.5802633595      -23.9502022861       13.5427703535  W2        16672           0.0000000000
     50017     16673  TIP3      OH2            38.5218433595      -32.4675422861       13.7855903535  W2        16673           0.0000000000
     50018     16673  TIP3      H1             38.5710633595      -31.8574222861       14.5215003535  W2        16673           0.0000000000
     50019     16673  TIP3      H2             38.9473533595      -32.0064522861       13.0627003535  W2        16673           0.0000000000
     50020     16674  TIP3      OH2            32.9995633595      -29.6748322861       13.2524503535  W2        16674           0.0000000000
     50021     16674  TIP3      H1             33.1421533595      -30.6211322861       13.2726103535  W2        16674           0.0000000000
     50022     16674  TIP3      H2             32.8934633595      -29.4678522861       12.3239403535  W2        16674           0.0000000000
     50023     16675  TIP3      OH2            26.1543933595      -31.5731922861       10.5249303535  W2        16675           0.0000000000
     50024     16675  TIP3      H1             26.1975033595      -30.7133422861       10.1065603535  W2        16675           0.0000000000
     50025     16675  TIP3      H2             25.6968033595      -32.1257222861        9.8912503535  W2        16675           0.0000000000
     50026     16676  TIP3      OH2            33.8766633595      -31.4426322861        8.9257603535  W2        16676           0.0000000000
     50027     16676  TIP3      H1             34.5230933595      -31.7713122861        9.5505203535  W2        16676           0.0000000000
     50028     16676  TIP3      H2             34.3866033595      -30.9247322861        8.3029003535  W2        16676           0.0000000000
     50029     16677  TIP3      OH2            22.7745433595      -29.1766122861       11.2870703535  W2        16677           0.0000000000
     50030     16677  TIP3      H1             23.4282033595      -29.7264422861       11.7190803535  W2        16677           0.0000000000
     50031     16677  TIP3      H2             22.7984733595      -29.4507122861       10.3702703535  W2        16677           0.0000000000
     50032     16678  TIP3      OH2            27.9309933595      -27.6264822861       10.5022203535  W2        16678           0.0000000000
     50033     16678  TIP3      H1             28.5470933595      -28.1529422861       11.0116203535  W2        16678           0.0000000000
     50034     16678  TIP3      H2             27.3448733595      -28.2666122861       10.0985803535  W2        16678           0.0000000000
     50035     16679  TIP3      OH2            38.9133033595      -30.9896222861       16.0215703535  W2        16679           0.0000000000
     50036     16679  TIP3      H1             38.2247633595      -30.3315522861       15.9262303535  W2        16679           0.0000000000
     50037     16679  TIP3      H2             38.9287633595      -31.1868322861       16.9581103535  W2        16679           0.0000000000
     50038     16680  TIP3      OH2            24.9645833595      -32.6553522861       14.5990103535  W2        16680           0.0000000000
     50039     16680  TIP3      H1             24.7457533595      -32.1252922861       13.8326103535  W2        16680           0.0000000000
     50040     16680  TIP3      H2             24.2966733595      -32.4288022861       15.2461503535  W2        16680           0.0000000000
     50041     16681  TIP3      OH2            32.3335633595      -23.1552422861        8.1429203535  W2        16681           0.0000000000
     50042     16681  TIP3      H1             32.0380733595      -23.4780122861        7.2916103535  W2        16681           0.0000000000
     50043     16681  TIP3      H2             32.0093433595      -22.2555722861        8.1841803535  W2        16681           0.0000000000
     50044     16682  TIP3      OH2            27.5337233595      -24.9797822861       14.8863803535  W2        16682           0.0000000000
     50045     16682  TIP3      H1             26.7936333595      -24.3816322861       14.9899003535  W2        16682           0.0000000000
     50046     16682  TIP3      H2             28.2476733595      -24.4258222861       14.5707403535  W2        16682           0.0000000000
     50047     16683  TIP3      OH2            35.6405033595      -32.1517022861       10.9063503535  W2        16683           0.0000000000
     50048     16683  TIP3      H1             35.4253033595      -32.9173622861       11.4389503535  W2        16683           0.0000000000
     50049     16683  TIP3      H2             36.2962433595      -31.6792422861       11.4192003535  W2        16683           0.0000000000
     50050     16684  TIP3      OH2            24.5583133595      -30.7631722861       12.5512303535  W2        16684           0.0000000000
     50051     16684  TIP3      H1             25.1719433595      -30.1304122861       12.9244703535  W2        16684           0.0000000000
     50052     16684  TIP3      H2             25.0703833595      -31.2356722861       11.8949203535  W2        16684           0.0000000000
     50053     16685  TIP3      OH2            25.9411533595      -23.0154822861       15.6735303535  W2        16685           0.0000000000
     50054     16685  TIP3      H1             25.9359133595      -22.1361322861       15.2954603535  W2        16685           0.0000000000
     50055     16685  TIP3      H2             25.0875633595      -23.0990722861       16.0985203535  W2        16685           0.0000000000
     50056     16686  TIP3      OH2            22.0622433595      -23.3446922861        6.4554603535  W2        16686           0.0000000000
     50057     16686  TIP3      H1             21.7903333595      -23.1155922861        5.5667503535  W2        16686           0.0000000000
     50058     16686  TIP3      H2             22.1078133595      -22.5068122861        6.9159903535  W2        16686           0.0000000000
     50059     16687  TIP3      OH2            35.6872133595      -21.7231022861       13.1683103535  W2        16687           0.0000000000
     50060     16687  TIP3      H1             34.7455833595      -21.6647122861       13.3300003535  W2        16687           0.0000000000
     50061     16687  TIP3      H2             35.9638233595      -20.8170522861       13.0312803535  W2        16687           0.0000000000
     50062     16688  TIP3      OH2            35.9879133595      -33.4365722861       14.5857003535  W2        16688           0.0000000000
     50063     16688  TIP3      H1             35.2518333595      -32.8258622861       14.5478303535  W2        16688           0.0000000000
     50064     16688  TIP3      H2             36.6713133595      -33.0216722861       14.0593403535  W2        16688           0.0000000000
     50065     16689  TIP3      OH2            28.9910533595      -35.3498422861       12.0515003535  W2        16689           0.0000000000
     50066     16689  TIP3      H1             28.8734733595      -36.2982422861       11.9973303535  W2        16689           0.0000000000
     50067     16689  TIP3      H2             28.1360633595      -35.0172322861       12.3246103535  W2        16689           0.0000000000
     50068     16690  TIP3      OH2            33.9393333595      -19.9417522861        9.7934703535  W2        16690           0.0000000000
     50069     16690  TIP3      H1             34.3645633595      -20.6489622861        9.3084303535  W2        16690           0.0000000000
     50070     16690  TIP3      H2             34.2563333595      -19.1404822861        9.3766903535  W2        16690           0.0000000000
     50071     16691  TIP3      OH2            35.0989833595      -22.0409022861        8.3021303535  W2        16691           0.0000000000
     50072     16691  TIP3      H1             34.8414633595      -22.7308922861        7.6907203535  W2        16691           0.0000000000
     50073     16691  TIP3      H2             35.1700633595      -22.4837822861        9.1477203535  W2        16691           0.0000000000
     50074     16692  TIP3      OH2            36.7850033595      -23.4742322861       16.7794803535  W2        16692           0.0000000000
     50075     16692  TIP3      H1             36.9246333595      -24.0659822861       16.0401803535  W2        16692           0.0000000000
     50076     16692  TIP3      H2             36.9522833595      -22.6016422861       16.4233603535  W2        16692           0.0000000000
     50077     16693  TIP3      OH2            31.2575433595      -26.5122822861        6.5520803535  W2        16693           0.0000000000
     50078     16693  TIP3      H1             30.5460933595      -25.9773122861        6.2001303535  W2        16693           0.0000000000
     50079     16693  TIP3      H2             31.9485033595      -26.4570722861        5.8919703535  W2        16693           0.0000000000
     50080     16694  TIP3      OH2            31.3114633595      -28.0548522861        3.5905803535  W2        16694           0.0000000000
     50081     16694  TIP3      H1             32.0124533595      -28.0321622861        4.2419803535  W2        16694           0.0000000000
     50082     16694  TIP3      H2             31.6137533595      -28.6828822861        2.9345103535  W2        16694           0.0000000000
     50083     16695  TIP3      OH2            38.6269333595      -27.1344322861       14.8455203535  W2        16695           0.0000000000
     50084     16695  TIP3      H1             37.9743433595      -26.4398722861       14.9346103535  W2        16695           0.0000000000
     50085     16695  TIP3      H2             39.0919633595      -26.9243422861       14.0356803535  W2        16695           0.0000000000
     50086     16696  TIP3      OH2            34.6633133595      -26.3029522861        7.5036703535  W2        16696           0.0000000000
     50087     16696  TIP3      H1             33.9314133595      -26.0745822861        8.0767303535  W2        16696           0.0000000000
     50088     16696  TIP3      H2             35.1105333595      -27.0166822861        7.9584203535  W2        16696           0.0000000000
     50089     16697  TIP3      OH2            34.5606633595      -28.1286922861       16.5713703535  W2        16697           0.0000000000
     50090     16697  TIP3      H1             34.6405733595      -27.3652522861       17.1432203535  W2        16697           0.0000000000
     50091     16697  TIP3      H2             33.9594333595      -27.8494522861       15.8808803535  W2        16697           0.0000000000
     50092     16698  TIP3      OH2            26.3086833595      -25.6723322861        9.3861703535  W2        16698           0.0000000000
     50093     16698  TIP3      H1             25.9782033595      -26.0429922861        8.5678703535  W2        16698           0.0000000000
     50094     16698  TIP3      H2             26.8970933595      -26.3429322861        9.7330003535  W2        16698           0.0000000000
     50095     16699  TIP3      OH2            27.6754333595      -22.2442722861       12.0673903535  W2        16699           0.0000000000
     50096     16699  TIP3      H1             27.5805633595      -22.8229622861       11.3108503535  W2        16699           0.0000000000
     50097     16699  TIP3      H2             28.4047933595      -22.6157022861       12.5636703535  W2        16699           0.0000000000
     50098     16700  TIP3      OH2            26.6752333595      -26.9037722861       13.0196703535  W2        16700           0.0000000000
     50099     16700  TIP3      H1             27.2404833595      -26.7823522861       12.2567903535  W2        16700           0.0000000000
     50100     16700  TIP3      H2             26.9941233595      -26.2662722861       13.6585203535  W2        16700           0.0000000000
     50101     16701  TIP3      OH2            32.9844533595      -21.4005822861       13.7537203535  W2        16701           0.0000000000
     50102     16701  TIP3      H1             32.7441133595      -20.7382722861       14.4016403535  W2        16701           0.0000000000
     50103     16701  TIP3      H2             32.7862733595      -22.2350622861       14.1786803535  W2        16701           0.0000000000
     50104     16702  TIP3      OH2            27.5553033595      -22.5045022861       17.7368603535  W2        16702           0.0000000000
     50105     16702  TIP3      H1             27.2440533595      -21.7221822861       18.1921803535  W2        16702           0.0000000000
     50106     16702  TIP3      H2             26.9053233595      -22.6575922861       17.0510603535  W2        16702           0.0000000000
     50107     16703  TIP3      OH2            33.5342633595      -27.1406622861        5.1887903535  W2        16703           0.0000000000
     50108     16703  TIP3      H1             34.1138133595      -26.9906322861        5.9356803535  W2        16703           0.0000000000
     50109     16703  TIP3      H2             33.9482633595      -26.6699222861        4.4654303535  W2        16703           0.0000000000
     50110     16704  TIP3      OH2            24.4752933595      -26.3063922861       16.9654303535  W2        16704           0.0000000000
     50111     16704  TIP3      H1             24.5456133595      -25.6557122861       17.6639303535  W2        16704           0.0000000000
     50112     16704  TIP3      H2             23.5845133595      -26.2036422861       16.6305203535  W2        16704           0.0000000000
     50113     16705  TIP3      OH2            31.2607533595      -20.4038122861        8.6241003535  W2        16705           0.0000000000
     50114     16705  TIP3      H1             31.7345133595      -20.1081822861        9.4015203535  W2        16705           0.0000000000
     50115     16705  TIP3      H2             30.6976833595      -19.6656522861        8.3910603535  W2        16705           0.0000000000
     50116     16706  TIP3      OH2            25.7948933595      -20.4330022861       18.5002403535  W2        16706           0.0000000000
     50117     16706  TIP3      H1             25.8024233595      -20.5690322861       17.5527903535  W2        16706           0.0000000000
     50118     16706  TIP3      H2             24.8789333595      -20.5501922861       18.7522403535  W2        16706           0.0000000000
     50119     16707  TIP3      OH2            37.2331033595      -35.3906222861        5.0017603535  W2        16707           0.0000000000
     50120     16707  TIP3      H1             36.3331733595      -35.2517222861        5.2968203535  W2        16707           0.0000000000
     50121     16707  TIP3      H2             37.4849433595      -34.5591622861        4.5999303535  W2        16707           0.0000000000
     50122     16708  TIP3      OH2            25.2989533595      -26.6029022861        6.9754503535  W2        16708           0.0000000000
     50123     16708  TIP3      H1             25.0070833595      -25.8347322861        6.4845803535  W2        16708           0.0000000000
     50124     16708  TIP3      H2             24.6244733595      -27.2622822861        6.8125903535  W2        16708           0.0000000000
     50125     16709  TIP3      OH2            38.4222433595      -21.0243822861        3.3781503535  W2        16709           0.0000000000
     50126     16709  TIP3      H1             38.4955933595      -20.0853622861        3.5486803535  W2        16709           0.0000000000
     50127     16709  TIP3      H2             39.3277533595      -21.3295222861        3.3218803535  W2        16709           0.0000000000
     50128     16710  TIP3      OH2            21.3919633595      -24.2399822861       15.7904303535  W2        16710           0.0000000000
     50129     16710  TIP3      H1             20.8908033595      -24.2680422861       14.9754003535  W2        16710           0.0000000000
     50130     16710  TIP3      H2             21.3973333595      -25.1456622861       16.1001603535  W2        16710           0.0000000000
     50131     16711  TIP3      OH2            21.1422333595      -21.4596022861       12.6744503535  W2        16711           0.0000000000
     50132     16711  TIP3      H1             22.0882933595      -21.6039022861       12.6554003535  W2        16711           0.0000000000
     50133     16711  TIP3      H2             21.0298633595      -20.6753222861       13.2115703535  W2        16711           0.0000000000
     50134     16712  TIP3      OH2            39.3400833595      -20.7936322861       18.3568203535  W2        16712           0.0000000000
     50135     16712  TIP3      H1             39.2907633595      -21.7488222861       18.3195803535  W2        16712           0.0000000000
     50136     16712  TIP3      H2             38.5133133595      -20.5261022861       18.7582003535  W2        16712           0.0000000000
     50137     16713  TIP3      OH2            30.3184833595      -21.2197122861       17.2329603535  W2        16713           0.0000000000
     50138     16713  TIP3      H1             30.4059433595      -20.3932522861       17.7078703535  W2        16713           0.0000000000
     50139     16713  TIP3      H2             29.4549933595      -21.5493322861       17.4818903535  W2        16713           0.0000000000
     50140     16714  TIP3      OH2            30.7330633595      -17.4473422861        7.0390203535  W2        16714           0.0000000000
     50141     16714  TIP3      H1             30.6576633595      -17.5686222861        6.0925403535  W2        16714           0.0000000000
     50142     16714  TIP3      H2             30.7659333595      -16.4980722861        7.1574803535  W2        16714           0.0000000000
     50143     16715  TIP3      OH2            24.3864433595      -18.6586422861        8.8199203535  W2        16715           0.0000000000
     50144     16715  TIP3      H1             24.5384833595      -19.0066022861        9.6985703535  W2        16715           0.0000000000
     50145     16715  TIP3      H2             23.5354833595      -19.0149122861        8.5646403535  W2        16715           0.0000000000
     50146     16716  TIP3      OH2            33.8346633595      -18.2933222861        4.0412603535  W2        16716           0.0000000000
     50147     16716  TIP3      H1             34.2095033595      -19.0377122861        3.5705203535  W2        16716           0.0000000000
     50148     16716  TIP3      H2             33.8390333595      -18.5632622861        4.9595903535  W2        16716           0.0000000000
     50149     16717  TIP3      OH2            33.5034733595      -18.3676122861        6.7904803535  W2        16717           0.0000000000
     50150     16717  TIP3      H1             32.5684533595      -18.2674222861        6.9691803535  W2        16717           0.0000000000
     50151     16717  TIP3      H2             33.7836633595      -19.0770122861        7.3688003535  W2        16717           0.0000000000
     50152     16718  TIP3      OH2            36.4920633595      -29.3003822861       18.8370403535  W2        16718           0.0000000000
     50153     16718  TIP3      H1             36.0847433595      -28.8198222861       18.1163703535  W2        16718           0.0000000000
     50154     16718  TIP3      H2             36.5326333595      -30.2057822861       18.5291203535  W2        16718           0.0000000000
     50155     16719  TIP3      OH2            23.6410133595      -22.9164422861       16.8337103535  W2        16719           0.0000000000
     50156     16719  TIP3      H1             23.8571433595      -23.2778822861       17.6932903535  W2        16719           0.0000000000
     50157     16719  TIP3      H2             22.7854833595      -23.2910622861       16.6240603535  W2        16719           0.0000000000
     50158     16720  TIP3      OH2            26.2598133595      -34.4463922861       12.8291303535  W2        16720           0.0000000000
     50159     16720  TIP3      H1             25.3981833595      -34.5335722861       12.4214203535  W2        16720           0.0000000000
     50160     16720  TIP3      H2             26.2373833595      -33.5903822861       13.2568903535  W2        16720           0.0000000000
     50161     16721  TIP3      OH2            30.9225933595      -34.7243522861       16.2038303535  W2        16721           0.0000000000
     50162     16721  TIP3      H1             31.3429033595      -35.1396422861       16.9568903535  W2        16721           0.0000000000
     50163     16721  TIP3      H2             29.9895533595      -34.9030222861       16.3210303535  W2        16721           0.0000000000
     50164     16722  TIP3      OH2            34.2490833595      -30.9688322861       17.0572803535  W2        16722           0.0000000000
     50165     16722  TIP3      H1             33.7350333595      -31.0946122861       17.8548803535  W2        16722           0.0000000000
     50166     16722  TIP3      H2             34.0935533595      -30.0565222861       16.8129003535  W2        16722           0.0000000000
     50167     16723  TIP3      OH2            35.0115733595      -26.1078322861        2.8185803535  W2        16723           0.0000000000
     50168     16723  TIP3      H1             35.0536533595      -26.3304422861        1.8885803535  W2        16723           0.0000000000
     50169     16723  TIP3      H2             35.8607833595      -25.7091222861        3.0085703535  W2        16723           0.0000000000
     50170     16724  TIP3      OH2            30.5843233595      -32.2320122861        3.4889103535  W2        16724           0.0000000000
     50171     16724  TIP3      H1             30.3308033595      -32.2128522861        4.4117203535  W2        16724           0.0000000000
     50172     16724  TIP3      H2             30.3275333595      -33.1034722861        3.1875303535  W2        16724           0.0000000000
     50173     16725  TIP3      OH2            26.3508233595      -29.4809422861       13.9241503535  W2        16725           0.0000000000
     50174     16725  TIP3      H1             25.7090333595      -29.5212122861       14.6331603535  W2        16725           0.0000000000
     50175     16725  TIP3      H2             26.3880233595      -28.5544722861       13.6864503535  W2        16725           0.0000000000
     50176     16726  TIP3      OH2            26.3477333595      -29.2599322861        8.8361503535  W2        16726           0.0000000000
     50177     16726  TIP3      H1             25.4550233595      -29.6003222861        8.7775303535  W2        16726           0.0000000000
     50178     16726  TIP3      H2             26.7983933595      -29.6368422861        8.0804703535  W2        16726           0.0000000000
     50179     16727  TIP3      OH2            31.8832833595      -28.8439022861        7.6532303535  W2        16727           0.0000000000
     50180     16727  TIP3      H1             31.4743133595      -28.0290422861        7.3617103535  W2        16727           0.0000000000
     50181     16727  TIP3      H2             32.6039033595      -28.9838922861        7.0389403535  W2        16727           0.0000000000
     50182     16728  TIP3      OH2            30.9854433595      -28.6682622861       19.1413003535  W2        16728           0.0000000000
     50183     16728  TIP3      H1             30.4228233595      -29.3731022861       19.4620803535  W2        16728           0.0000000000
     50184     16728  TIP3      H2             31.8117833595      -28.7890722861       19.6090603535  W2        16728           0.0000000000
     50185     16729  TIP3      OH2            32.8880533595      -29.3978622861       10.4672003535  W2        16729           0.0000000000
     50186     16729  TIP3      H1             32.6925033595      -28.7921822861        9.7522603535  W2        16729           0.0000000000
     50187     16729  TIP3      H2             33.0693133595      -30.2313422861       10.0328303535  W2        16729           0.0000000000
     50188     16730  TIP3      OH2            24.1008733595      -29.1605922861       15.7913503535  W2        16730           0.0000000000
     50189     16730  TIP3      H1             24.0628133595      -28.7604322861       16.6600603535  W2        16730           0.0000000000
     50190     16730  TIP3      H2             23.6099833595      -29.9773522861       15.8816403535  W2        16730           0.0000000000
     50191     16731  TIP3      OH2            27.4666133595      -31.7863622861        2.5899503535  W2        16731           0.0000000000
     50192     16731  TIP3      H1             27.0356833595      -32.2313522861        3.3196903535  W2        16731           0.0000000000
     50193     16731  TIP3      H2             26.7484833595      -31.4147322861        2.0777003535  W2        16731           0.0000000000
     50194     16732  TIP3      OH2            20.7089533595      -32.0444122861        9.6418203535  W2        16732           0.0000000000
     50195     16732  TIP3      H1             21.3397233595      -32.0732022861       10.3612103535  W2        16732           0.0000000000
     50196     16732  TIP3      H2             21.1583833595      -32.4695422861        8.9114103535  W2        16732           0.0000000000
     50197     16733  TIP3      OH2            21.9831633595      -31.2982122861        5.0658603535  W2        16733           0.0000000000
     50198     16733  TIP3      H1             22.4573333595      -30.7072222861        4.4809503535  W2        16733           0.0000000000
     50199     16733  TIP3      H2             21.2658033595      -30.7679222861        5.4128703535  W2        16733           0.0000000000
     50200     16734  TIP3      OH2            32.1519733595      -27.7597322861       15.1384403535  W2        16734           0.0000000000
     50201     16734  TIP3      H1             32.4754533595      -28.3907622861       14.4954903535  W2        16734           0.0000000000
     50202     16734  TIP3      H2             31.7119033595      -28.2945122861       15.7991803535  W2        16734           0.0000000000
     50203     16735  TIP3      OH2            28.9292633595      -31.8321822861        9.9225603535  W2        16735           0.0000000000
     50204     16735  TIP3      H1             28.0183733595      -31.7755022861       10.2111603535  W2        16735           0.0000000000
     50205     16735  TIP3      H2             29.4345533595      -31.8926322861       10.7332803535  W2        16735           0.0000000000
     50206     16736  TIP3      OH2            23.7576033595      -30.2035522861        8.7493203535  W2        16736           0.0000000000
     50207     16736  TIP3      H1             22.8684033595      -30.1040022861        8.4092803535  W2        16736           0.0000000000
     50208     16736  TIP3      H2             24.0540933595      -31.0452522861        8.4031103535  W2        16736           0.0000000000
     50209     16737  TIP3      OH2            27.4107833595      -30.2032922861        6.4057803535  W2        16737           0.0000000000
     50210     16737  TIP3      H1             28.3423333595      -30.0742922861        6.5840903535  W2        16737           0.0000000000
     50211     16737  TIP3      H2             27.1958133595      -29.5338622861        5.7562503535  W2        16737           0.0000000000
     50212     16738  TIP3      OH2            33.3344533595      -32.5975522861       13.1867403535  W2        16738           0.0000000000
     50213     16738  TIP3      H1             32.6576133595      -32.4662422861       13.8507103535  W2        16738           0.0000000000
     50214     16738  TIP3      H2             32.8489433595      -32.7526022861       12.3765103535  W2        16738           0.0000000000
     50215     16739  TIP3      OH2            26.0848033595      -29.0090722861        3.9723903535  W2        16739           0.0000000000
     50216     16739  TIP3      H1             25.5423133595      -29.3886922861        3.2811503535  W2        16739           0.0000000000
     50217     16739  TIP3      H2             26.9182933595      -28.8146022861        3.5438003535  W2        16739           0.0000000000
     50218     16740  TIP3      OH2            36.6219633595      -16.9260122861       19.4635003535  W2        16740           0.0000000000
     50219     16740  TIP3      H1             36.8218333595      -16.5018222861       18.6290303535  W2        16740           0.0000000000
     50220     16740  TIP3      H2             37.2773333595      -16.5821922861       20.0705403535  W2        16740           0.0000000000
     50221     16741  TIP3      OH2            24.2199433595      -24.4518822861       19.0715503535  W2        16741           0.0000000000
     50222     16741  TIP3      H1             24.9521833595      -24.1972922861       19.6330003535  W2        16741           0.0000000000
     50223     16741  TIP3      H2             23.4398133595      -24.2473422861       19.5870903535  W2        16741           0.0000000000
     50224     16742  TIP3      OH2            30.2492333595      -29.0448822861       11.8095203535  W2        16742           0.0000000000
     50225     16742  TIP3      H1             30.8135733595      -29.5912222861       11.2624803535  W2        16742           0.0000000000
     50226     16742  TIP3      H2             30.1015733595      -29.5666922861       12.5982803535  W2        16742           0.0000000000
     50227     16743  TIP3      OH2            25.2512033595      -32.9082722861        8.2280003535  W2        16743           0.0000000000
     50228     16743  TIP3      H1             24.9341533595      -33.8107422861        8.1925403535  W2        16743           0.0000000000
     50229     16743  TIP3      H2             26.0326133595      -32.9065322861        7.6751603535  W2        16743           0.0000000000
     50230     16744  TIP3      OH2            28.8758233595      -30.6562722861       14.2235603535  W2        16744           0.0000000000
     50231     16744  TIP3      H1             28.0403533595      -30.2023222861       14.3338003535  W2        16744           0.0000000000
     50232     16744  TIP3      H2             29.3998833595      -30.3804222861       14.9755503535  W2        16744           0.0000000000
     50233     16745  TIP3      OH2            29.4200833595      -24.4435022861        5.9082003535  W2        16745           0.0000000000
     50234     16745  TIP3      H1             28.6751833595      -24.9509722861        5.5859903535  W2        16745           0.0000000000
     50235     16745  TIP3      H2             29.2858033595      -24.3947022861        6.8546803535  W2        16745           0.0000000000
     50236     16746  TIP3      OH2            36.5699733595      -25.3106822861       14.6949603535  W2        16746           0.0000000000
     50237     16746  TIP3      H1             37.2118533595      -24.8540522861       14.1511803535  W2        16746           0.0000000000
     50238     16746  TIP3      H2             35.7396633595      -25.1974422861       14.2323703535  W2        16746           0.0000000000
     50239     16747  TIP3      OH2            33.3177633595      -31.6295122861        4.1074603535  W2        16747           0.0000000000
     50240     16747  TIP3      H1             32.3791833595      -31.5179522861        3.9563403535  W2        16747           0.0000000000
     50241     16747  TIP3      H2             33.6149733595      -30.7728222861        4.4140303535  W2        16747           0.0000000000
     50242     16748  TIP3      OH2            30.9392933595      -24.2591722861       17.1451103535  W2        16748           0.0000000000
     50243     16748  TIP3      H1             30.5939033595      -24.6409322861       17.9520703535  W2        16748           0.0000000000
     50244     16748  TIP3      H2             30.7393033595      -23.3258122861       17.2164003535  W2        16748           0.0000000000
     50245     16749  TIP3      OH2            34.0361133595      -29.7622422861        5.7682003535  W2        16749           0.0000000000
     50246     16749  TIP3      H1             34.9280133595      -29.8997422861        6.0873203535  W2        16749           0.0000000000
     50247     16749  TIP3      H2             34.0924733595      -28.9716322861        5.2315503535  W2        16749           0.0000000000
     50248     16750  TIP3      OH2            24.5449133595      -25.1485022861       11.6779903535  W2        16750           0.0000000000
     50249     16750  TIP3      H1             25.2896333595      -25.1509322861       11.0766403535  W2        16750           0.0000000000
     50250     16750  TIP3      H2             24.6225733595      -25.9721222861       12.1595003535  W2        16750           0.0000000000
     50251     16751  TIP3      OH2            31.5454933595      -22.9850722861        4.9336603535  W2        16751           0.0000000000
     50252     16751  TIP3      H1             31.2503333595      -22.1582822861        5.3151403535  W2        16751           0.0000000000
     50253     16751  TIP3      H2             30.8424933595      -23.6043822861        5.1298003535  W2        16751           0.0000000000
     50254     16752  TIP3      OH2            21.5528833595      -26.6878122861       16.9928403535  W2        16752           0.0000000000
     50255     16752  TIP3      H1             21.7757433595      -27.1058522861       17.8245903535  W2        16752           0.0000000000
     50256     16752  TIP3      H2             20.9508933595      -27.3003122861       16.5701203535  W2        16752           0.0000000000
     50257     16753  TIP3      OH2            28.5693733595      -27.1708222861       19.2058103535  W2        16753           0.0000000000
     50258     16753  TIP3      H1             28.2734533595      -27.3365222861       18.3107203535  W2        16753           0.0000000000
     50259     16753  TIP3      H2             29.5008933595      -27.3907922861       19.1952003535  W2        16753           0.0000000000
     50260     16754  TIP3      OH2            33.1896533595      -21.7976222861       17.0956103535  W2        16754           0.0000000000
     50261     16754  TIP3      H1             32.2890833595      -21.6143622861       16.8280003535  W2        16754           0.0000000000
     50262     16754  TIP3      H2             33.2237633595      -21.5386922861       18.0164903535  W2        16754           0.0000000000
     50263     16755  TIP3      OH2            38.9209833595      -29.5528322861        5.4628703535  W2        16755           0.0000000000
     50264     16755  TIP3      H1             38.3666133595      -29.9490322861        4.7906203535  W2        16755           0.0000000000
     50265     16755  TIP3      H2             39.0213433595      -28.6423122861        5.1852003535  W2        16755           0.0000000000
     50266     16756  TIP3      OH2            38.8841833595      -23.7526622861       18.3000203535  W2        16756           0.0000000000
     50267     16756  TIP3      H1             38.0330333595      -23.5142822861       17.9326603535  W2        16756           0.0000000000
     50268     16756  TIP3      H2             39.4745233595      -23.7693422861       17.5467303535  W2        16756           0.0000000000
     50269     16757  TIP3      OH2            37.2161533595      -20.7667922861        5.9280803535  W2        16757           0.0000000000
     50270     16757  TIP3      H1             36.8432633595      -21.5924122861        6.2371403535  W2        16757           0.0000000000
     50271     16757  TIP3      H2             37.4935033595      -20.9498522861        5.0304203535  W2        16757           0.0000000000
     50272     16758  TIP3      OH2            34.3765433595      -25.9588422861       12.9492703535  W2        16758           0.0000000000
     50273     16758  TIP3      H1             33.4482333595      -26.1906522861       12.9222003535  W2        16758           0.0000000000
     50274     16758  TIP3      H2             34.8276533595      -26.7358622861       12.6191503535  W2        16758           0.0000000000
     50275     16759  TIP3      OH2            26.9198533595      -21.6306822861        9.0821403535  W2        16759           0.0000000000
     50276     16759  TIP3      H1             27.4470733595      -20.8572422861        8.8820203535  W2        16759           0.0000000000
     50277     16759  TIP3      H2             26.0397033595      -21.4057622861        8.7805403535  W2        16759           0.0000000000
     50278     16760  TIP3      OH2            22.6746233595      -26.7682722861        3.6693803535  W2        16760           0.0000000000
     50279     16760  TIP3      H1             23.2906133595      -26.1415522861        4.0488603535  W2        16760           0.0000000000
     50280     16760  TIP3      H2             21.8128833595      -26.4522922861        3.9410303535  W2        16760           0.0000000000
     50281     16761  TIP3      OH2            28.3470833595      -23.9676922861        8.6585703535  W2        16761           0.0000000000
     50282     16761  TIP3      H1             28.1060833595      -23.0422522861        8.7001003535  W2        16761           0.0000000000
     50283     16761  TIP3      H2             27.6064433595      -24.4265622861        9.0549603535  W2        16761           0.0000000000
     50284     16762  TIP3      OH2            28.8617433595      -19.8183322861       14.9736803535  W2        16762           0.0000000000
     50285     16762  TIP3      H1             29.2242133595      -18.9637722861       14.7401203535  W2        16762           0.0000000000
     50286     16762  TIP3      H2             29.3932633595      -20.1101722861       15.7143103535  W2        16762           0.0000000000
     50287     16763  TIP3      OH2            27.0301633595      -18.9459322861        8.2037903535  W2        16763           0.0000000000
     50288     16763  TIP3      H1             26.0802133595      -18.8401922861        8.2551203535  W2        16763           0.0000000000
     50289     16763  TIP3      H2             27.3819733595      -18.1251922861        8.5485403535  W2        16763           0.0000000000
     50290     16764  TIP3      OH2            32.4058233595      -23.7192622861       14.6742403535  W2        16764           0.0000000000
     50291     16764  TIP3      H1             31.9799533595      -23.9470922861       15.5006403535  W2        16764           0.0000000000
     50292     16764  TIP3      H2             32.9864033595      -24.4580822861       14.4917703535  W2        16764           0.0000000000
     50293     16765  TIP3      OH2            34.6087133595      -22.7902122861        3.7481403535  W2        16765           0.0000000000
     50294     16765  TIP3      H1             34.9620233595      -23.1702322861        4.5524903535  W2        16765           0.0000000000
     50295     16765  TIP3      H2             33.6600633595      -22.8837322861        3.8350703535  W2        16765           0.0000000000
     50296     16766  TIP3      OH2            35.0642433595      -19.1673122861       17.1437203535  W2        16766           0.0000000000
     50297     16766  TIP3      H1             34.4625633595      -19.7230222861       16.6483503535  W2        16766           0.0000000000
     50298     16766  TIP3      H2             35.3456133595      -18.5003322861       16.5174603535  W2        16766           0.0000000000
     50299     16767  TIP3      OH2            39.1121533595      -18.3109622861        3.9491603535  W2        16767           0.0000000000
     50300     16767  TIP3      H1             39.8559433595      -17.7249122861        3.8093203535  W2        16767           0.0000000000
     50301     16767  TIP3      H2             38.4179633595      -17.7423822861        4.2824003535  W2        16767           0.0000000000
     50302     16768  TIP3      OH2            23.1868333595      -31.9345422861       16.5509803535  W2        16768           0.0000000000
     50303     16768  TIP3      H1             22.2940633595      -31.5960022861       16.4833803535  W2        16768           0.0000000000
     50304     16768  TIP3      H2             23.0881133595      -32.7899322861       16.9690603535  W2        16768           0.0000000000
     50305     16769  TIP3      OH2            35.4746433595      -24.1180122861        5.9749303535  W2        16769           0.0000000000
     50306     16769  TIP3      H1             35.1974033595      -24.8460822861        6.5310403535  W2        16769           0.0000000000
     50307     16769  TIP3      H2             36.4019433595      -23.9988122861        6.1801903535  W2        16769           0.0000000000
     50308     16770  TIP3      OH2            22.8380333595      -20.1301022861       14.9859203535  W2        16770           0.0000000000
     50309     16770  TIP3      H1             23.0550633595      -21.0618622861       14.9548903535  W2        16770           0.0000000000
     50310     16770  TIP3      H2             23.0843833595      -19.8556022861       15.8692003535  W2        16770           0.0000000000
     50311     16771  TIP3      OH2            28.6994933595      -21.6786022861        2.1951403535  W2        16771           0.0000000000
     50312     16771  TIP3      H1             28.9384733595      -22.4267922861        1.6480303535  W2        16771           0.0000000000
     50313     16771  TIP3      H2             28.4306233595      -22.0664322861        3.0279203535  W2        16771           0.0000000000
     50314     16772  TIP3      OH2            27.6365533595      -22.1082222861        4.6514003535  W2        16772           0.0000000000
     50315     16772  TIP3      H1             27.7833533595      -22.6282422861        5.4414903535  W2        16772           0.0000000000
     50316     16772  TIP3      H2             27.6337233595      -21.2014622861        4.9579903535  W2        16772           0.0000000000
     50317     16773  TIP3      OH2            24.0896633595      -24.8558922861        5.1619403535  W2        16773           0.0000000000
     50318     16773  TIP3      H1             23.4035933595      -24.5036422861        5.7289103535  W2        16773           0.0000000000
     50319     16773  TIP3      H2             24.6124533595      -24.0929322861        4.9153703535  W2        16773           0.0000000000
     50320     16774  TIP3      OH2            31.9211733595      -32.1935122861       15.4408403535  W2        16774           0.0000000000
     50321     16774  TIP3      H1             32.6199633595      -32.1196422861       16.0908103535  W2        16774           0.0000000000
     50322     16774  TIP3      H2             31.5403133595      -33.0580122861       15.5951303535  W2        16774           0.0000000000
     50323     16775  TIP3      OH2            32.7056633595      -32.5413422861        6.5380703535  W2        16775           0.0000000000
     50324     16775  TIP3      H1             32.9254933595      -32.0698022861        5.7346103535  W2        16775           0.0000000000
     50325     16775  TIP3      H2             33.2640633595      -32.1470822861        7.2081303535  W2        16775           0.0000000000
     50326     16776  TIP3      OH2            30.3742733595      -20.4108622861        5.4008203535  W2        16776           0.0000000000
     50327     16776  TIP3      H1             29.5578833595      -19.9138922861        5.4532503535  W2        16776           0.0000000000
     50328     16776  TIP3      H2             30.9039033595      -19.9355122861        4.7607003535  W2        16776           0.0000000000
     50329     16777  TIP3      OH2            29.9056533595      -30.8134622861        7.3729103535  W2        16777           0.0000000000
     50330     16777  TIP3      H1             30.7179133595      -30.3091422861        7.4190803535  W2        16777           0.0000000000
     50331     16777  TIP3      H2             29.6609533595      -30.9584922861        8.2868703535  W2        16777           0.0000000000
     50332     16778  TIP3      OH2            30.4412933595      -29.8271922861       16.5575703535  W2        16778           0.0000000000
     50333     16778  TIP3      H1             30.5603233595      -29.2536522861       17.3146103535  W2        16778           0.0000000000
     50334     16778  TIP3      H2             31.0967533595      -30.5152522861       16.6723503535  W2        16778           0.0000000000
     50335     16779  TIP3      OH2            30.7893233595      -33.7321622861        8.3110203535  W2        16779           0.0000000000
     50336     16779  TIP3      H1             30.4426733595      -33.1151022861        8.9554503535  W2        16779           0.0000000000
     50337     16779  TIP3      H2             31.4480133595      -33.2315922861        7.8295703535  W2        16779           0.0000000000
     50338     16780  TIP3      OH2            27.7125833595      -19.3671422861        5.3825103535  W2        16780           0.0000000000
     50339     16780  TIP3      H1             27.8734533595      -18.5673922861        4.8817703535  W2        16780           0.0000000000
     50340     16780  TIP3      H2             27.5153633595      -19.0605422861        6.2675703535  W2        16780           0.0000000000
     50341     16781  TIP3      OH2            26.4470233595      -32.6692222861        4.9982703535  W2        16781           0.0000000000
     50342     16781  TIP3      H1             26.3635033595      -31.7809122861        5.3449103535  W2        16781           0.0000000000
     50343     16781  TIP3      H2             27.3370533595      -32.9345522861        5.2299503535  W2        16781           0.0000000000
     50344     16782  TIP3      OH2            36.6458733595      -31.9201622861       17.3925403535  W2        16782           0.0000000000
     50345     16782  TIP3      H1             35.7294533595      -31.6579922861       17.3049103535  W2        16782           0.0000000000
     50346     16782  TIP3      H2             36.9813733595      -31.9232622861       16.4960703535  W2        16782           0.0000000000
     50347     16783  TIP3      OH2            35.2479733595      -28.1700622861       11.4882703535  W2        16783           0.0000000000
     50348     16783  TIP3      H1             34.4504133595      -28.5850422861       11.1597703535  W2        16783           0.0000000000
     50349     16783  TIP3      H2             35.6930833595      -28.8606922861       11.9793203535  W2        16783           0.0000000000
     50350     16784  TIP3      OH2            24.7055533595      -22.2420022861        4.0587203535  W2        16784           0.0000000000
     50351     16784  TIP3      H1             25.2977033595      -21.5425222861        4.3349603535  W2        16784           0.0000000000
     50352     16784  TIP3      H2             25.1648533595      -22.6750522861        3.3391803535  W2        16784           0.0000000000
     50353     16785  TIP3      OH2            23.0214733595      -29.5777022861        3.1746603535  W2        16785           0.0000000000
     50354     16785  TIP3      H1             22.9767333595      -28.6383922861        3.3533603535  W2        16785           0.0000000000
     50355     16785  TIP3      H2             22.1337933595      -29.8132122861        2.9048703535  W2        16785           0.0000000000
     50356     16786  TIP3      OH2            36.3344333595      -18.9138122861       13.1106203535  W2        16786           0.0000000000
     50357     16786  TIP3      H1             36.1788633595      -18.2353722861       12.4535503535  W2        16786           0.0000000000
     50358     16786  TIP3      H2             37.2670733595      -18.8418822861       13.3136803535  W2        16786           0.0000000000
     50359     16787  TIP3      OH2            23.8296733595      -34.7960422861       11.8477603535  W2        16787           0.0000000000
     50360     16787  TIP3      H1             23.6006533595      -34.7367922861       10.9202603535  W2        16787           0.0000000000
     50361     16787  TIP3      H2             23.3870133595      -35.5874922861       12.1541703535  W2        16787           0.0000000000
     50362     16788  TIP3      OH2            22.7600033595      -20.8553322861        8.0083403535  W2        16788           0.0000000000
     50363     16788  TIP3      H1             21.9278633595      -20.3830622861        8.0354803535  W2        16788           0.0000000000
     50364     16788  TIP3      H2             23.3058333595      -20.3455722861        7.4096503535  W2        16788           0.0000000000
     50365     16789  TIP3      OH2            22.0483733595      -18.2429622861       19.3381403535  W2        16789           0.0000000000
     50366     16789  TIP3      H1             22.5885933595      -18.4595622861       20.0980603535  W2        16789           0.0000000000
     50367     16789  TIP3      H2             21.5671733595      -19.0483622861       19.1483903535  W2        16789           0.0000000000
     50368     16790  TIP3      OH2            26.6457133595      -19.3235222861       20.9585603535  W2        16790           0.0000000000
     50369     16790  TIP3      H1             27.4134333595      -19.7824422861       21.2994803535  W2        16790           0.0000000000
     50370     16790  TIP3      H2             26.6243333595      -19.5495422861       20.0286803535  W2        16790           0.0000000000
     50371     16791  TIP3      OH2            30.7376733595      -19.8154622861        2.3337403535  W2        16791           0.0000000000
     50372     16791  TIP3      H1             30.0937733595      -20.4466022861        2.6551103535  W2        16791           0.0000000000
     50373     16791  TIP3      H2             31.4995033595      -20.3466622861        2.1020903535  W2        16791           0.0000000000
     50374     16792  TIP3      OH2            33.2225833595      -20.9434122861       19.6877103535  W2        16792           0.0000000000
     50375     16792  TIP3      H1             32.8715333595      -21.8001122861       19.9307503535  W2        16792           0.0000000000
     50376     16792  TIP3      H2             33.9489033595      -20.8007422861       20.2946103535  W2        16792           0.0000000000
     50377     16793  TIP3      OH2            35.3419633595      -19.9984722861        2.5675403535  W2        16793           0.0000000000
     50378     16793  TIP3      H1             35.6250033595      -20.7929522861        3.0202303535  W2        16793           0.0000000000
     50379     16793  TIP3      H2             36.0817533595      -19.7653722861        2.0066503535  W2        16793           0.0000000000
     50380     16794  TIP3      OH2            21.9553233595      -24.4325522861       20.2925703535  W2        16794           0.0000000000
     50381     16794  TIP3      H1             22.0993733595      -25.3344822861       20.0062403535  W2        16794           0.0000000000
     50382     16794  TIP3      H2             21.1830633595      -24.1463422861       19.8048003535  W2        16794           0.0000000000
     50383     16795  TIP3      OH2            26.2966933595      -24.0889822861        2.4250303535  W2        16795           0.0000000000
     50384     16795  TIP3      H1             26.3611033595      -24.8830222861        2.9556703535  W2        16795           0.0000000000
     50385     16795  TIP3      H2             26.9496133595      -24.2077022861        1.7352303535  W2        16795           0.0000000000
     50386     16796  TIP3      OH2            28.6109333595      -24.4627422861       19.7252103535  W2        16796           0.0000000000
     50387     16796  TIP3      H1             28.2823133595      -24.1919322861       18.8679503535  W2        16796           0.0000000000
     50388     16796  TIP3      H2             28.7627533595      -25.4037622861       19.6377103535  W2        16796           0.0000000000
     50389     16797  TIP3      OH2            31.6490333595      -23.0418122861        2.1608303535  W2        16797           0.0000000000
     50390     16797  TIP3      H1             31.3804433595      -22.8616022861        3.0617203535  W2        16797           0.0000000000
     50391     16797  TIP3      H2             31.4425933595      -23.9671922861        2.0294103535  W2        16797           0.0000000000
     50392     16798  TIP3      OH2            34.3454533595      -24.5470122861       17.1084403535  W2        16798           0.0000000000
     50393     16798  TIP3      H1             35.0909333595      -23.9586422861       16.9888403535  W2        16798           0.0000000000
     50394     16798  TIP3      H2             33.5881333595      -23.9650422861       17.1717503535  W2        16798           0.0000000000
     50395     16799  TIP3      OH2            22.7879733595      -27.2322222861       19.7125003535  W2        16799           0.0000000000
     50396     16799  TIP3      H1             23.1960933595      -28.0895622861       19.5915603535  W2        16799           0.0000000000
     50397     16799  TIP3      H2             22.5277333595      -27.2180922861       20.6335303535  W2        16799           0.0000000000
     50398     16800  TIP3      OH2            27.4460733595      -26.1163622861        4.7308303535  W2        16800           0.0000000000
     50399     16800  TIP3      H1             26.9862733595      -26.6005322861        5.4166803535  W2        16800           0.0000000000
     50400     16800  TIP3      H2             27.7009433595      -26.7848222861        4.0948803535  W2        16800           0.0000000000
     50401     16801  TIP3      OH2            26.7350033595      -28.2236522861       17.0867903535  W2        16801           0.0000000000
     50402     16801  TIP3      H1             26.1166133595      -27.5489922861       17.3672603535  W2        16801           0.0000000000
     50403     16801  TIP3      H2             27.0791233595      -27.9022622861       16.2534103535  W2        16801           0.0000000000
     50404     16802  TIP3      OH2            28.5171133595      -27.8731822861        2.9931503535  W2        16802           0.0000000000
     50405     16802  TIP3      H1             28.3366133595      -28.0280622861        2.0659803535  W2        16802           0.0000000000
     50406     16802  TIP3      H2             29.4671633595      -27.7653122861        3.0379403535  W2        16802           0.0000000000
     50407     16803  TIP3      OH2            31.7548233595      -25.7521222861       20.3642703535  W2        16803           0.0000000000
     50408     16803  TIP3      H1             32.7079433595      -25.6682122861       20.3368703535  W2        16803           0.0000000000
     50409     16803  TIP3      H2             31.5942833595      -26.4639422861       20.9837603535  W2        16803           0.0000000000
     50410     16804  TIP3      OH2            37.9069433595      -25.5187622861        2.4389603535  W2        16804           0.0000000000
     50411     16804  TIP3      H1             37.6334233595      -25.9432122861        1.6257903535  W2        16804           0.0000000000
     50412     16804  TIP3      H2             37.9463533595      -24.5873122861        2.2220003535  W2        16804           0.0000000000
     50413     16805  TIP3      OH2            27.0743733595      -30.8685722861       18.1691003535  W2        16805           0.0000000000
     50414     16805  TIP3      H1             27.2244633595      -31.5974422861       17.5670703535  W2        16805           0.0000000000
     50415     16805  TIP3      H2             27.0766133595      -30.0914022861       17.6103203535  W2        16805           0.0000000000
     50416     16806  TIP3      OH2            27.4869433595      -32.4989922861       15.6618403535  W2        16806           0.0000000000
     50417     16806  TIP3      H1             28.0226933595      -32.0473222861       15.0097703535  W2        16806           0.0000000000
     50418     16806  TIP3      H2             26.6349033595      -32.6070122861       15.2392503535  W2        16806           0.0000000000
     50419     16807  TIP3      OH2            29.0687833595      -27.0593722861       15.9013603535  W2        16807           0.0000000000
     50420     16807  TIP3      H1             29.8192633595      -27.2156222861       15.3281403535  W2        16807           0.0000000000
     50421     16807  TIP3      H2             28.7296133595      -26.2077122861       15.6259103535  W2        16807           0.0000000000
     50422     16808  TIP3      OH2            33.4844033595      -29.2441922861       20.9298903535  W2        16808           0.0000000000
     50423     16808  TIP3      H1             33.6765333595      -30.1752522861       20.8183403535  W2        16808           0.0000000000
     50424     16808  TIP3      H2             34.3420333595      -28.8192422861       20.9194303535  W2        16808           0.0000000000
     50425     16809  TIP3      OH2            34.8011233595      -26.4556722861       19.0071603535  W2        16809           0.0000000000
     50426     16809  TIP3      H1             34.5196233595      -25.7462122861       18.4295403535  W2        16809           0.0000000000
     50427     16809  TIP3      H2             35.7435533595      -26.5283722861       18.8562803535  W2        16809           0.0000000000
     50428     16810  TIP3      OH2            25.5530033595      -29.6702222861       20.0806603535  W2        16810           0.0000000000
     50429     16810  TIP3      H1             24.7859033595      -30.2027422861       19.8704203535  W2        16810           0.0000000000
     50430     16810  TIP3      H2             26.2319033595      -29.9801822861       19.4812903535  W2        16810           0.0000000000
     50431     16811  TIP3      OH2            28.2924933595      -35.0424222861       16.0932003535  W2        16811           0.0000000000
     50432     16811  TIP3      H1             28.1944533595      -34.0961022861       15.9878203535  W2        16811           0.0000000000
     50433     16811  TIP3      H2             27.5501133595      -35.4150422861       15.6175503535  W2        16811           0.0000000000
     50434     16812  TIP3      OH2            29.5565433595      -30.7208822861       19.6570403535  W2        16812           0.0000000000
     50435     16812  TIP3      H1             29.3210833595      -30.9402122861       20.5585303535  W2        16812           0.0000000000
     50436     16812  TIP3      H2             28.7732333595      -30.9277622861       19.1472903535  W2        16812           0.0000000000
     50437     16813  TIP3      OH2            32.2722033595      -31.5935322861       18.7323903535  W2        16813           0.0000000000
     50438     16813  TIP3      H1             31.3247433595      -31.5615622861       18.8647203535  W2        16813           0.0000000000
     50439     16813  TIP3      H2             32.5848733595      -32.2188222861       19.3862103535  W2        16813           0.0000000000
     50440     16814  TIP3      OH2            33.9063533595      -32.9594222861       20.7375803535  W2        16814           0.0000000000
     50441     16814  TIP3      H1             33.8095333595      -33.9116922861       20.7317703535  W2        16814           0.0000000000
     50442     16814  TIP3      H2             33.5846633595      -32.6907422861       21.5981303535  W2        16814           0.0000000000
     50443     16815  TIP3      OH2            23.7332833595      -31.7498422861       19.7851303535  W2        16815           0.0000000000
     50444     16815  TIP3      H1             23.9450233595      -32.4562322861       19.1748803535  W2        16815           0.0000000000
     50445     16815  TIP3      H2             23.6220333595      -32.1872422861       20.6292503535  W2        16815           0.0000000000
     50446     16816  TIP3      OH2            28.5143033595      -35.7486822861       18.7644803535  W2        16816           0.0000000000
     50447     16816  TIP3      H1             29.2261433595      -36.3884622861       18.7503903535  W2        16816           0.0000000000
     50448     16816  TIP3      H2             28.4133433595      -35.4818522861       17.8507903535  W2        16816           0.0000000000
     50449     16817  TIP3      OH2            28.8680533595      -34.0658422861       20.8181103535  W2        16817           0.0000000000
     50450     16817  TIP3      H1             28.7362733595      -34.5414622861       19.9979603535  W2        16817           0.0000000000
     50451     16817  TIP3      H2             28.2687933595      -33.3214822861       20.7628203535  W2        16817           0.0000000000
     50452     16818  TIP3      OH2            28.4142833595      -17.1828122861        3.9945103535  W2        16818           0.0000000000
     50453     16818  TIP3      H1             29.3473533595      -17.0249422861        4.1383503535  W2        16818           0.0000000000
     50454     16818  TIP3      H2             28.1501633595      -16.5075122861        3.3696603535  W2        16818           0.0000000000
     50455     16819  TIP3      OH2            21.9827733595      -22.5464322861        3.4773203535  W2        16819           0.0000000000
     50456     16819  TIP3      H1             22.8966933595      -22.4675422861        3.7507103535  W2        16819           0.0000000000
     50457     16819  TIP3      H2             21.9900833595      -23.2334722861        2.8108803535  W2        16819           0.0000000000
     50458     16820  TIP3      OH2            20.6318333595      -17.1535822861        8.5547103535  W2        16820           0.0000000000
     50459     16820  TIP3      H1             19.9845433595      -17.6154122861        8.0218303535  W2        16820           0.0000000000
     50460     16820  TIP3      H2             20.9862933595      -17.8252522861        9.1373303535  W2        16820           0.0000000000
     50461     16821  TIP3      OH2            21.5017533595      -19.0728822861       10.3593303535  W2        16821           0.0000000000
     50462     16821  TIP3      H1             21.1674333595      -19.9531522861       10.5313503535  W2        16821           0.0000000000
     50463     16821  TIP3      H2             21.7239933595      -18.7273822861       11.2238903535  W2        16821           0.0000000000
     50464     16822  TIP3      OH2            39.0502333595      -18.2632422861       13.3398103535  W2        16822           0.0000000000
     50465     16822  TIP3      H1             39.0289033595      -18.0784022861       14.2787503535  W2        16822           0.0000000000
     50466     16822  TIP3      H2             39.7408533595      -17.6948422861       12.9989503535  W2        16822           0.0000000000
     50467     16823  TIP3      OH2            38.6135233595      -18.6961322861       16.2617203535  W2        16823           0.0000000000
     50468     16823  TIP3      H1             38.1263933595      -19.4317222861       15.8904603535  W2        16823           0.0000000000
     50469     16823  TIP3      H2             39.1627933595      -19.0897422861       16.9396603535  W2        16823           0.0000000000
     50470     16824  TIP3      OH2            37.0642533595      -22.9063222861       20.8997503535  W2        16824           0.0000000000
     50471     16824  TIP3      H1             36.1983633595      -23.0113522861       21.2939803535  W2        16824           0.0000000000
     50472     16824  TIP3      H2             37.4408433595      -22.1479922861       21.3462203535  W2        16824           0.0000000000
     50473     16825  TIP3      OH2            38.3652233595      -24.6499522861        6.4140003535  W2        16825           0.0000000000
     50474     16825  TIP3      H1             39.2153633595      -24.2288622861        6.5411603535  W2        16825           0.0000000000
     50475     16825  TIP3      H2             38.3707333595      -25.3899422861        7.0211403535  W2        16825           0.0000000000
     50476     16826  TIP3      OH2            38.7597833595      -26.5962122861        8.2375703535  W2        16826           0.0000000000
     50477     16826  TIP3      H1             38.0332433595      -27.0759522861        8.6353303535  W2        16826           0.0000000000
     50478     16826  TIP3      H2             39.3411133595      -26.3907422861        8.9697303535  W2        16826           0.0000000000
     50479     16827  TIP3      OH2            38.5189033595      -23.8114622861       13.1853303535  W2        16827           0.0000000000
     50480     16827  TIP3      H1             39.3523233595      -24.1894622861       12.9046903535  W2        16827           0.0000000000
     50481     16827  TIP3      H2             38.6309333595      -22.8683422861       13.0662403535  W2        16827           0.0000000000
     50482     16828  TIP3      OH2            37.0051333595      -20.9337122861       15.4921703535  W2        16828           0.0000000000
     50483     16828  TIP3      H1             36.3576633595      -20.6085622861       16.1176903535  W2        16828           0.0000000000
     50484     16828  TIP3      H2             36.4875333595      -21.3739422861       14.8180003535  W2        16828           0.0000000000
     50485     16829  TIP3      OH2            39.0280933595      -26.6953622861        4.6287003535  W2        16829           0.0000000000
     50486     16829  TIP3      H1             38.5062033595      -26.3389522861        3.9097903535  W2        16829           0.0000000000
     50487     16829  TIP3      H2             38.9950133595      -26.0205822861        5.3067903535  W2        16829           0.0000000000
     50488     16830  TIP3      OH2            37.3769933595      -29.4558022861        3.1794103535  W2        16830           0.0000000000
     50489     16830  TIP3      H1             37.4734333595      -28.7891022861        2.4993803535  W2        16830           0.0000000000
     50490     16830  TIP3      H2             37.2369533595      -30.2711722861        2.6979603535  W2        16830           0.0000000000
     50491     16831  TIP3      OH2            36.5464633595      -28.0755622861        8.8004403535  W2        16831           0.0000000000
     50492     16831  TIP3      H1             36.3963433595      -29.0207022861        8.7802203535  W2        16831           0.0000000000
     50493     16831  TIP3      H2             36.1929133595      -27.7944222861        9.6443503535  W2        16831           0.0000000000
     50494     16832  TIP3      OH2            21.5817033595      -25.9973422861       12.8108203535  W2        16832           0.0000000000
     50495     16832  TIP3      H1             21.7659933595      -26.0791722861       11.8751103535  W2        16832           0.0000000000
     50496     16832  TIP3      H2             22.4309933595      -26.1216422861       13.2344603535  W2        16832           0.0000000000
     50497     16833  TIP3      OH2            37.4027533595      -26.1052322861       18.4392703535  W2        16833           0.0000000000
     50498     16833  TIP3      H1             37.9854833595      -26.8400022861       18.6309903535  W2        16833           0.0000000000
     50499     16833  TIP3      H2             37.9666833595      -25.3332022861       18.4858503535  W2        16833           0.0000000000
     50500     16834  TIP3      OH2            38.8994633595      -28.2026522861       19.1238103535  W2        16834           0.0000000000
     50501     16834  TIP3      H1             38.0361333595      -28.5814422861       18.9582803535  W2        16834           0.0000000000
     50502     16834  TIP3      H2             39.5038333595      -28.9411722861       19.0493903535  W2        16834           0.0000000000
     50503     16835  TIP3      OH2            36.6243733595      -32.0478222861        2.2969603535  W2        16835           0.0000000000
     50504     16835  TIP3      H1             37.2349533595      -32.4191422861        2.9337803535  W2        16835           0.0000000000
     50505     16835  TIP3      H2             35.7875233595      -32.4691322861        2.4929603535  W2        16835           0.0000000000
     50506     16836  TIP3      OH2            36.2569433595      -30.4929822861        7.2629503535  W2        16836           0.0000000000
     50507     16836  TIP3      H1             36.5366533595      -31.3999422861        7.3871203535  W2        16836           0.0000000000
     50508     16836  TIP3      H2             37.0161133595      -30.0588322861        6.8738703535  W2        16836           0.0000000000
     50509     16837  TIP3      OH2            36.8687733595      -29.9112422861       12.6988403535  W2        16837           0.0000000000
     50510     16837  TIP3      H1             37.8015733595      -29.6992522861       12.6644403535  W2        16837           0.0000000000
     50511     16837  TIP3      H2             36.6335233595      -29.8100322861       13.6211403535  W2        16837           0.0000000000
     50512     16838  TIP3      OH2            36.8979633595      -29.1747122861       15.4747803535  W2        16838           0.0000000000
     50513     16838  TIP3      H1             36.0550933595      -28.9066722861       15.8407603535  W2        16838           0.0000000000
     50514     16838  TIP3      H2             37.3403933595      -28.3525222861       15.2638903535  W2        16838           0.0000000000
     50515     16839  TIP3      OH2            21.1791833595      -30.7268422861       18.9517003535  W2        16839           0.0000000000
     50516     16839  TIP3      H1             22.0986733595      -30.8490122861       19.1880103535  W2        16839           0.0000000000
     50517     16839  TIP3      H2             20.7296333595      -31.4768722861       19.3410503535  W2        16839           0.0000000000
     50518     16840  TIP3      OH2            39.1811233595      -35.1946922861       20.8282803535  W2        16840           0.0000000000
     50519     16840  TIP3      H1             39.5308233595      -35.8483422861       20.2227503535  W2        16840           0.0000000000
     50520     16840  TIP3      H2             39.3280733595      -34.3572822861       20.3885403535  W2        16840           0.0000000000
     50521     16841  TIP3      OH2            36.8704233595      -33.2300522861        7.3111503535  W2        16841           0.0000000000
     50522     16841  TIP3      H1             37.0529233595      -33.6789022861        8.1366503535  W2        16841           0.0000000000
     50523     16841  TIP3      H2             36.2707133595      -33.8146122861        6.8476103535  W2        16841           0.0000000000
     50524     16842  TIP3      OH2            22.4004333595      -32.4146822861       11.8429903535  W2        16842           0.0000000000
     50525     16842  TIP3      H1             22.8455933595      -33.2064322861       12.1449603535  W2        16842           0.0000000000
     50526     16842  TIP3      H2             22.8667333595      -31.6981622861       12.2735503535  W2        16842           0.0000000000
     50527     16843  TIP3      OH2            20.7044633595      -29.4153822861       12.9120103535  W2        16843           0.0000000000
     50528     16843  TIP3      H1             21.1964433595      -29.6363322861       12.1212103535  W2        16843           0.0000000000
     50529     16843  TIP3      H2             21.0665533595      -28.5750422861       13.1929603535  W2        16843           0.0000000000
     50530     16844  TIP3      OH2            38.7008433595      -33.0852322861       19.1774103535  W2        16844           0.0000000000
     50531     16844  TIP3      H1             37.7834133595      -32.8145222861       19.1417603535  W2        16844           0.0000000000
     50532     16844  TIP3      H2             38.8237833595      -33.6203922861       18.3933803535  W2        16844           0.0000000000
     50533     16845  TIP3      OH2            38.7370433595      -33.1622422861        3.8391803535  W2        16845           0.0000000000
     50534     16845  TIP3      H1             39.1493033595      -33.8836722861        3.3639803535  W2        16845           0.0000000000
     50535     16845  TIP3      H2             39.4186933595      -32.4927822861        3.8976103535  W2        16845           0.0000000000
     50536     16846  TIP3      OH2            21.0181133595      -33.1574722861        6.9662503535  W2        16846           0.0000000000
     50537     16846  TIP3      H1             20.0929533595      -32.9488122861        6.8368003535  W2        16846           0.0000000000
     50538     16846  TIP3      H2             21.4721033595      -32.6733922861        6.2764803535  W2        16846           0.0000000000
     50539     16847  TIP3      OH2            35.7888333595      -18.1733022861        8.9119903535  W2        16847           0.0000000000
     50540     16847  TIP3      H1             36.4411233595      -18.5210922861        8.3039003535  W2        16847           0.0000000000
     50541     16847  TIP3      H2             36.2992133595      -17.6849822861        9.5579603535  W2        16847           0.0000000000
     50542     16848  TIP3      OH2            20.9816533595      -34.4195722861       15.3105003535  W2        16848           0.0000000000
     50543     16848  TIP3      H1             20.3167033595      -34.6655422861       15.9535903535  W2        16848           0.0000000000
     50544     16848  TIP3      H2             20.5387833595      -33.7975322861       14.7333003535  W2        16848           0.0000000000
     50545     16849  TIP3      OH2            23.1735833595      -21.2441622861       19.4550803535  W2        16849           0.0000000000
     50546     16849  TIP3      H1             22.3528333595      -21.0695122861       18.9945503535  W2        16849           0.0000000000
     50547     16849  TIP3      H2             22.9213633595      -21.3176922861       20.3755203535  W2        16849           0.0000000000
     50548     16850  TIP3      OH2            26.1278733595      -20.2700422861       15.7134803535  W2        16850           0.0000000000
     50549     16850  TIP3      H1             25.7029833595      -19.4601922861       15.4309403535  W2        16850           0.0000000000
     50550     16850  TIP3      H2             27.0321533595      -20.1846322861       15.4114603535  W2        16850           0.0000000000
     50551     16851  TIP3      OH2            30.4390133595      -18.8710422861       18.6728503535  W2        16851           0.0000000000
     50552     16851  TIP3      H1             30.6237633595      -19.2044322861       19.5508803535  W2        16851           0.0000000000
     50553     16851  TIP3      H2             31.2854633595      -18.5611822861       18.3507703535  W2        16851           0.0000000000
     50554     16852  TIP3      OH2            32.7840533595      -17.5851522861       17.9169903535  W2        16852           0.0000000000
     50555     16852  TIP3      H1             33.4609433595      -18.2179222861       17.6769103535  W2        16852           0.0000000000
     50556     16852  TIP3      H2             33.1059333595      -17.1841022861       18.7243203535  W2        16852           0.0000000000
     50557     16853  TIP3      OH2            37.7014333595      -34.9956022861       16.9964903535  W2        16853           0.0000000000
     50558     16853  TIP3      H1             36.8887833595      -34.6705722861       16.6089603535  W2        16853           0.0000000000
     50559     16853  TIP3      H2             37.9342833595      -35.7557522861       16.4634003535  W2        16853           0.0000000000
     50560     16854  TIP3      OH2            23.5295433595      -17.0136522861       15.7610103535  W2        16854           0.0000000000
     50561     16854  TIP3      H1             22.8091833595      -16.5735522861       15.3097803535  W2        16854           0.0000000000
     50562     16854  TIP3      H2             23.1639433595      -17.2641822861       16.6094103535  W2        16854           0.0000000000
     50563     16855  TIP3      OH2            25.9968033595      -17.4132622861       14.7907303535  W2        16855           0.0000000000
     50564     16855  TIP3      H1             25.1320233595      -17.3414122861       15.1947403535  W2        16855           0.0000000000
     50565     16855  TIP3      H2             25.9417033595      -16.8665322861       14.0069803535  W2        16855           0.0000000000
     50566     16856  TIP3      OH2            30.7073633595      -17.5253722861       13.9663303535  W2        16856           0.0000000000
     50567     16856  TIP3      H1             30.2507633595      -16.9964022861       13.3121703535  W2        16856           0.0000000000
     50568     16856  TIP3      H2             30.8701633595      -16.9222322861       14.6915603535  W2        16856           0.0000000000
     50569     16857  TIP3      OH2            33.0349933595      -18.6474122861       14.9113603535  W2        16857           0.0000000000
     50570     16857  TIP3      H1             32.1303633595      -18.4823922861       14.6455703535  W2        16857           0.0000000000
     50571     16857  TIP3      H2             33.4638533595      -17.7941922861       14.8457003535  W2        16857           0.0000000000
     50572     16858  TIP3      OH2            35.6391833595      -17.0775022861       15.2061403535  W2        16858           0.0000000000
     50573     16858  TIP3      H1             35.4573833595      -16.1616122861       14.9956303535  W2        16858           0.0000000000
     50574     16858  TIP3      H2             35.8159633595      -17.4877922861       14.3596003535  W2        16858           0.0000000000
     50575     16859  TIP3      OH2            22.9443533595      -18.3904022861       12.6711903535  W2        16859           0.0000000000
     50576     16859  TIP3      H1             22.9259533595      -18.8158922861       13.5284203535  W2        16859           0.0000000000
     50577     16859  TIP3      H2             23.7491433595      -18.7089022861       12.2624103535  W2        16859           0.0000000000
     50578     16860  TIP3      OH2            25.0856633595      -19.6805322861       11.3261803535  W2        16860           0.0000000000
     50579     16860  TIP3      H1             24.8667333595      -20.5967922861       11.4957803535  W2        16860           0.0000000000
     50580     16860  TIP3      H2             25.9098833595      -19.5404922861       11.7923203535  W2        16860           0.0000000000
     50581     16861  TIP3      OH2            27.6229133595      -19.2106022861       12.1749803535  W2        16861           0.0000000000
     50582     16861  TIP3      H1             27.8354833595      -20.0987022861       11.8880703535  W2        16861           0.0000000000
     50583     16861  TIP3      H2             27.6874233595      -19.2448322861       13.1293803535  W2        16861           0.0000000000
     50584     16862  TIP3      OH2            31.1312833595      -33.5465422861       11.3193103535  W2        16862           0.0000000000
     50585     16862  TIP3      H1             30.4569633595      -34.1759822861       11.5748903535  W2        16862           0.0000000000
     50586     16862  TIP3      H2             31.6952033595      -34.0306522861       10.7161003535  W2        16862           0.0000000000
     50587     16863  TIP3      OH2            36.2740033595      -35.4391422861       11.4320203535  W2        16863           0.0000000000
     50588     16863  TIP3      H1             36.8777633595      -34.8916022861       10.9301203535  W2        16863           0.0000000000
     50589     16863  TIP3      H2             35.4042033595      -35.1201022861       11.1914303535  W2        16863           0.0000000000
     50590     16864  TIP3      OH2            38.0010433595      -34.3002722861        9.7651103535  W2        16864           0.0000000000
     50591     16864  TIP3      H1             38.6127933595      -34.8147022861        9.2384703535  W2        16864           0.0000000000
     50592     16864  TIP3      H2             38.3833833595      -33.4230622861        9.7885503535  W2        16864           0.0000000000
     50593     16865  TIP3      OH2            23.4580333595      -34.9125122861        9.1413003535  W2        16865           0.0000000000
     50594     16865  TIP3      H1             22.6810133595      -35.1470222861        8.6338903535  W2        16865           0.0000000000
     50595     16865  TIP3      H2             23.9883933595      -35.7093022861        9.1501003535  W2        16865           0.0000000000
     50596     16866  TIP3      OH2            22.2943733595      -35.1147022861        4.9449103535  W2        16866           0.0000000000
     50597     16866  TIP3      H1             22.7334433595      -34.5036522861        4.3532603535  W2        16866           0.0000000000
     50598     16866  TIP3      H2             21.6606133595      -34.5762922861        5.4189103535  W2        16866           0.0000000000
     50599     16867  TIP3      OH2            28.0372933595      -34.9858022861        8.9546103535  W2        16867           0.0000000000
     50600     16867  TIP3      H1             28.9116333595      -34.5973722861        8.9250403535  W2        16867           0.0000000000
     50601     16867  TIP3      H2             27.9013733595      -35.2010222861        9.8773303535  W2        16867           0.0000000000
     50602     16868  TIP3      OH2            33.5941333595      -34.9558222861       10.6037803535  W2        16868           0.0000000000
     50603     16868  TIP3      H1             33.6702933595      -34.8606622861        9.6543803535  W2        16868           0.0000000000
     50604     16868  TIP3      H2             33.3190533595      -35.8635322861       10.7326903535  W2        16868           0.0000000000
     50605     16869  TIP3      OH2            34.9473933595      -34.9300422861        6.2962803535  W2        16869           0.0000000000
     50606     16869  TIP3      H1             34.2445033595      -34.3151222861        6.0864203535  W2        16869           0.0000000000
     50607     16869  TIP3      H2             34.5025333595      -35.7673722861        6.4273703535  W2        16869           0.0000000000
     50608     16870  TIP3      OH2            22.1953233595      -19.1664822861        5.8424203535  W2        16870           0.0000000000
     50609     16870  TIP3      H1             21.5103133595      -19.2045922861        5.1749303535  W2        16870           0.0000000000
     50610     16870  TIP3      H2             22.1990433595      -18.2537222861        6.1306303535  W2        16870           0.0000000000
     50611     16871  TIP3      OH2            24.1552833595      -33.1985522861        3.3873203535  W2        16871           0.0000000000
     50612     16871  TIP3      H1             24.6466233595      -33.8283122861        2.8598703535  W2        16871           0.0000000000
     50613     16871  TIP3      H2             24.7789133595      -32.9026122861        4.0504403535  W2        16871           0.0000000000
     50614     16872  TIP3      OH2            29.1812933595      -32.9054022861        5.8443703535  W2        16872           0.0000000000
     50615     16872  TIP3      H1             29.3594233595      -33.5520822861        6.5272303535  W2        16872           0.0000000000
     50616     16872  TIP3      H2             29.1279133595      -32.0716322861        6.3114803535  W2        16872           0.0000000000
     50617     16873  TIP3      OH2            31.0596733595      -17.9569922861        4.2400403535  W2        16873           0.0000000000
     50618     16873  TIP3      H1             31.9256933595      -17.5902522861        4.0618603535  W2        16873           0.0000000000
     50619     16873  TIP3      H2             30.8129533595      -18.3961922861        3.4261203535  W2        16873           0.0000000000
     50620     16874  TIP3      OH2            37.7686333595      -18.3939622861        6.9191503535  W2        16874           0.0000000000
     50621     16874  TIP3      H1             37.5743433595      -19.1417522861        6.3541103535  W2        16874           0.0000000000
     50622     16874  TIP3      H2             37.7296433595      -17.6359522861        6.3359403535  W2        16874           0.0000000000
     50623     16875  TIP3      OH2            23.4158333595      -34.3983222861       18.6589203535  W2        16875           0.0000000000
     50624     16875  TIP3      H1             23.0496533595      -35.1640622861       19.1013903535  W2        16875           0.0000000000
     50625     16875  TIP3      H2             24.3286833595      -34.3693022861       18.9454303535  W2        16875           0.0000000000
     50626     16876  TIP3      OH2            25.3889133595      -35.0478822861       20.1946303535  W2        16876           0.0000000000
     50627     16876  TIP3      H1             26.2872733595      -35.3218622861       20.0099703535  W2        16876           0.0000000000
     50628     16876  TIP3      H2             25.0022233595      -35.7902822861       20.6588903535  W2        16876           0.0000000000
     50629     16877  TIP3      OH2            24.0134433595      -18.2464022861        2.8676303535  W2        16877           0.0000000000
     50630     16877  TIP3      H1             23.7459033595      -17.9601122861        3.7409403535  W2        16877           0.0000000000
     50631     16877  TIP3      H2             24.7847033595      -18.7924822861        3.0198803535  W2        16877           0.0000000000
     50632     16878  TIP3      OH2            33.8101433595      -35.7153522861       20.3769103535  W2        16878           0.0000000000
     50633     16878  TIP3      H1             33.8868633595      -36.1412822861       21.2306803535  W2        16878           0.0000000000
     50634     16878  TIP3      H2             34.7038033595      -35.7018822861       20.0342603535  W2        16878           0.0000000000
     50635     16879  TIP3      OH2            36.9862533595      -19.6427222861       19.0693303535  W2        16879           0.0000000000
     50636     16879  TIP3      H1             36.2044433595      -19.8289222861       18.5493903535  W2        16879           0.0000000000
     50637     16879  TIP3      H2             36.9142433595      -18.7132922861       19.2865803535  W2        16879           0.0000000000
     50638     16880  TIP3      OH2            51.3922933595      -25.7562822861        9.1000503535  W2        16880           0.0000000000
     50639     16880  TIP3      H1             51.4814033595      -24.8124622861        8.9677603535  W2        16880           0.0000000000
     50640     16880  TIP3      H2             50.7540533595      -26.0316422861        8.4419903535  W2        16880           0.0000000000
     50641     16881  TIP3      OH2            50.3254233595      -26.5012122861       12.5188703535  W2        16881           0.0000000000
     50642     16881  TIP3      H1             50.2871733595      -27.1475822861       13.2238303535  W2        16881           0.0000000000
     50643     16881  TIP3      H2             50.0030733595      -26.9677722861       11.7477403535  W2        16881           0.0000000000
     50644     16882  TIP3      OH2            42.6939233595      -26.8870022861       14.1118603535  W2        16882           0.0000000000
     50645     16882  TIP3      H1             42.7351333595      -27.5126722861       14.8351003535  W2        16882           0.0000000000
     50646     16882  TIP3      H2             43.3966933595      -26.2631422861       14.2939003535  W2        16882           0.0000000000
     50647     16883  TIP3      OH2            54.0314433595      -23.5621722861       10.8203803535  W2        16883           0.0000000000
     50648     16883  TIP3      H1             53.5907133595      -24.2825722861       11.2709403535  W2        16883           0.0000000000
     50649     16883  TIP3      H2             54.0184133595      -22.8414522861       11.4501503535  W2        16883           0.0000000000
     50650     16884  TIP3      OH2            43.6172333595      -22.4371122861       12.6467703535  W2        16884           0.0000000000
     50651     16884  TIP3      H1             43.2477533595      -23.2390622861       12.2772003535  W2        16884           0.0000000000
     50652     16884  TIP3      H2             44.5583433595      -22.6056222861       12.6931103535  W2        16884           0.0000000000
     50653     16885  TIP3      OH2            40.2272833595      -28.7768522861        8.0396503535  W2        16885           0.0000000000
     50654     16885  TIP3      H1             39.7796233595      -27.9309822861        8.0213003535  W2        16885           0.0000000000
     50655     16885  TIP3      H2             39.6664033595      -29.3564322861        7.5241603535  W2        16885           0.0000000000
     50656     16886  TIP3      OH2            40.9378933595      -26.6148922861       10.1654503535  W2        16886           0.0000000000
     50657     16886  TIP3      H1             41.1512433595      -27.3847322861       10.6927503535  W2        16886           0.0000000000
     50658     16886  TIP3      H2             41.6756533595      -26.5252222861        9.5622103535  W2        16886           0.0000000000
     50659     16887  TIP3      OH2            51.1429933595      -18.4580022861       11.0324203535  W2        16887           0.0000000000
     50660     16887  TIP3      H1             51.7626333595      -19.1345322861       10.7593403535  W2        16887           0.0000000000
     50661     16887  TIP3      H2             50.9347333595      -18.6759222861       11.9409103535  W2        16887           0.0000000000
     50662     16888  TIP3      OH2            48.7148633595      -24.0690722861       12.9249703535  W2        16888           0.0000000000
     50663     16888  TIP3      H1             49.0186533595      -24.7549322861       12.3303803535  W2        16888           0.0000000000
     50664     16888  TIP3      H2             49.4362633595      -23.9502022861       13.5427703535  W2        16888           0.0000000000
     50665     16889  TIP3      OH2            51.8555633595      -29.6748322861       13.2524503535  W2        16889           0.0000000000
     50666     16889  TIP3      H1             51.9981533595      -30.6211322861       13.2726103535  W2        16889           0.0000000000
     50667     16889  TIP3      H2             51.7494633595      -29.4678522861       12.3239403535  W2        16889           0.0000000000
     50668     16890  TIP3      OH2            45.0103933595      -31.5731922861       10.5249303535  W2        16890           0.0000000000
     50669     16890  TIP3      H1             45.0535033595      -30.7133422861       10.1065603535  W2        16890           0.0000000000
     50670     16890  TIP3      H2             44.5528033595      -32.1257222861        9.8912503535  W2        16890           0.0000000000
     50671     16891  TIP3      OH2            52.7326633595      -31.4426322861        8.9257603535  W2        16891           0.0000000000
     50672     16891  TIP3      H1             53.3790933595      -31.7713122861        9.5505203535  W2        16891           0.0000000000
     50673     16891  TIP3      H2             53.2426033595      -30.9247322861        8.3029003535  W2        16891           0.0000000000
     50674     16892  TIP3      OH2            41.6305433595      -29.1766122861       11.2870703535  W2        16892           0.0000000000
     50675     16892  TIP3      H1             42.2842033595      -29.7264422861       11.7190803535  W2        16892           0.0000000000
     50676     16892  TIP3      H2             41.6544733595      -29.4507122861       10.3702703535  W2        16892           0.0000000000
     50677     16893  TIP3      OH2            46.7869933595      -27.6264822861       10.5022203535  W2        16893           0.0000000000
     50678     16893  TIP3      H1             47.4030933595      -28.1529422861       11.0116203535  W2        16893           0.0000000000
     50679     16893  TIP3      H2             46.2008733595      -28.2666122861       10.0985803535  W2        16893           0.0000000000
     50680     16894  TIP3      OH2            43.8205833595      -32.6553522861       14.5990103535  W2        16894           0.0000000000
     50681     16894  TIP3      H1             43.6017533595      -32.1252922861       13.8326103535  W2        16894           0.0000000000
     50682     16894  TIP3      H2             43.1526733595      -32.4288022861       15.2461503535  W2        16894           0.0000000000
     50683     16895  TIP3      OH2            51.1895633595      -23.1552422861        8.1429203535  W2        16895           0.0000000000
     50684     16895  TIP3      H1             50.8940733595      -23.4780122861        7.2916103535  W2        16895           0.0000000000
     50685     16895  TIP3      H2             50.8653433595      -22.2555722861        8.1841803535  W2        16895           0.0000000000
     50686     16896  TIP3      OH2            46.3897233595      -24.9797822861       14.8863803535  W2        16896           0.0000000000
     50687     16896  TIP3      H1             45.6496333595      -24.3816322861       14.9899003535  W2        16896           0.0000000000
     50688     16896  TIP3      H2             47.1036733595      -24.4258222861       14.5707403535  W2        16896           0.0000000000
     50689     16897  TIP3      OH2            54.4965033595      -32.1517022861       10.9063503535  W2        16897           0.0000000000
     50690     16897  TIP3      H1             54.2813033595      -32.9173622861       11.4389503535  W2        16897           0.0000000000
     50691     16897  TIP3      H2             55.1522433595      -31.6792422861       11.4192003535  W2        16897           0.0000000000
     50692     16898  TIP3      OH2            43.4143133595      -30.7631722861       12.5512303535  W2        16898           0.0000000000
     50693     16898  TIP3      H1             44.0279433595      -30.1304122861       12.9244703535  W2        16898           0.0000000000
     50694     16898  TIP3      H2             43.9263833595      -31.2356722861       11.8949203535  W2        16898           0.0000000000
     50695     16899  TIP3      OH2            44.7971533595      -23.0154822861       15.6735303535  W2        16899           0.0000000000
     50696     16899  TIP3      H1             44.7919133595      -22.1361322861       15.2954603535  W2        16899           0.0000000000
     50697     16899  TIP3      H2             43.9435633595      -23.0990722861       16.0985203535  W2        16899           0.0000000000
     50698     16900  TIP3      OH2            40.9182433595      -23.3446922861        6.4554603535  W2        16900           0.0000000000
     50699     16900  TIP3      H1             40.6463333595      -23.1155922861        5.5667503535  W2        16900           0.0000000000
     50700     16900  TIP3      H2             40.9638133595      -22.5068122861        6.9159903535  W2        16900           0.0000000000
     50701     16901  TIP3      OH2            54.5432133595      -21.7231022861       13.1683103535  W2        16901           0.0000000000
     50702     16901  TIP3      H1             53.6015833595      -21.6647122861       13.3300003535  W2        16901           0.0000000000
     50703     16901  TIP3      H2             54.8198233595      -20.8170522861       13.0312803535  W2        16901           0.0000000000
     50704     16902  TIP3      OH2            47.8470533595      -35.3498422861       12.0515003535  W2        16902           0.0000000000
     50705     16902  TIP3      H1             47.7294733595      -36.2982422861       11.9973303535  W2        16902           0.0000000000
     50706     16902  TIP3      H2             46.9920633595      -35.0172322861       12.3246103535  W2        16902           0.0000000000
     50707     16903  TIP3      OH2            52.7953333595      -19.9417522861        9.7934703535  W2        16903           0.0000000000
     50708     16903  TIP3      H1             53.2205633595      -20.6489622861        9.3084303535  W2        16903           0.0000000000
     50709     16903  TIP3      H2             53.1123333595      -19.1404822861        9.3766903535  W2        16903           0.0000000000
     50710     16904  TIP3      OH2            53.9549833595      -22.0409022861        8.3021303535  W2        16904           0.0000000000
     50711     16904  TIP3      H1             53.6974633595      -22.7308922861        7.6907203535  W2        16904           0.0000000000
     50712     16904  TIP3      H2             54.0260633595      -22.4837822861        9.1477203535  W2        16904           0.0000000000
     50713     16905  TIP3      OH2            50.1135433595      -26.5122822861        6.5520803535  W2        16905           0.0000000000
     50714     16905  TIP3      H1             49.4020933595      -25.9773122861        6.2001303535  W2        16905           0.0000000000
     50715     16905  TIP3      H2             50.8045033595      -26.4570722861        5.8919703535  W2        16905           0.0000000000
     50716     16906  TIP3      OH2            50.1674633595      -28.0548522861        3.5905803535  W2        16906           0.0000000000
     50717     16906  TIP3      H1             50.8684533595      -28.0321622861        4.2419803535  W2        16906           0.0000000000
     50718     16906  TIP3      H2             50.4697533595      -28.6828822861        2.9345103535  W2        16906           0.0000000000
     50719     16907  TIP3      OH2            53.5193133595      -26.3029522861        7.5036703535  W2        16907           0.0000000000
     50720     16907  TIP3      H1             52.7874133595      -26.0745822861        8.0767303535  W2        16907           0.0000000000
     50721     16907  TIP3      H2             53.9665333595      -27.0166822861        7.9584203535  W2        16907           0.0000000000
     50722     16908  TIP3      OH2            53.4166633595      -28.1286922861       16.5713703535  W2        16908           0.0000000000
     50723     16908  TIP3      H1             53.4965733595      -27.3652522861       17.1432203535  W2        16908           0.0000000000
     50724     16908  TIP3      H2             52.8154333595      -27.8494522861       15.8808803535  W2        16908           0.0000000000
     50725     16909  TIP3      OH2            45.1646833595      -25.6723322861        9.3861703535  W2        16909           0.0000000000
     50726     16909  TIP3      H1             44.8342033595      -26.0429922861        8.5678703535  W2        16909           0.0000000000
     50727     16909  TIP3      H2             45.7530933595      -26.3429322861        9.7330003535  W2        16909           0.0000000000
     50728     16910  TIP3      OH2            46.5314333595      -22.2442722861       12.0673903535  W2        16910           0.0000000000
     50729     16910  TIP3      H1             46.4365633595      -22.8229622861       11.3108503535  W2        16910           0.0000000000
     50730     16910  TIP3      H2             47.2607933595      -22.6157022861       12.5636703535  W2        16910           0.0000000000
     50731     16911  TIP3      OH2            45.5312333595      -26.9037722861       13.0196703535  W2        16911           0.0000000000
     50732     16911  TIP3      H1             46.0964833595      -26.7823522861       12.2567903535  W2        16911           0.0000000000
     50733     16911  TIP3      H2             45.8501233595      -26.2662722861       13.6585203535  W2        16911           0.0000000000
     50734     16912  TIP3      OH2            51.8404533595      -21.4005822861       13.7537203535  W2        16912           0.0000000000
     50735     16912  TIP3      H1             51.6001133595      -20.7382722861       14.4016403535  W2        16912           0.0000000000
     50736     16912  TIP3      H2             51.6422733595      -22.2350622861       14.1786803535  W2        16912           0.0000000000
     50737     16913  TIP3      OH2            46.4113033595      -22.5045022861       17.7368603535  W2        16913           0.0000000000
     50738     16913  TIP3      H1             46.1000533595      -21.7221822861       18.1921803535  W2        16913           0.0000000000
     50739     16913  TIP3      H2             45.7613233595      -22.6575922861       17.0510603535  W2        16913           0.0000000000
     50740     16914  TIP3      OH2            52.3902633595      -27.1406622861        5.1887903535  W2        16914           0.0000000000
     50741     16914  TIP3      H1             52.9698133595      -26.9906322861        5.9356803535  W2        16914           0.0000000000
     50742     16914  TIP3      H2             52.8042633595      -26.6699222861        4.4654303535  W2        16914           0.0000000000
     50743     16915  TIP3      OH2            43.3312933595      -26.3063922861       16.9654303535  W2        16915           0.0000000000
     50744     16915  TIP3      H1             43.4016133595      -25.6557122861       17.6639303535  W2        16915           0.0000000000
     50745     16915  TIP3      H2             42.4405133595      -26.2036422861       16.6305203535  W2        16915           0.0000000000
     50746     16916  TIP3      OH2            50.1167533595      -20.4038122861        8.6241003535  W2        16916           0.0000000000
     50747     16916  TIP3      H1             50.5905133595      -20.1081822861        9.4015203535  W2        16916           0.0000000000
     50748     16916  TIP3      H2             49.5536833595      -19.6656522861        8.3910603535  W2        16916           0.0000000000
     50749     16917  TIP3      OH2            44.6508933595      -20.4330022861       18.5002403535  W2        16917           0.0000000000
     50750     16917  TIP3      H1             44.6584233595      -20.5690322861       17.5527903535  W2        16917           0.0000000000
     50751     16917  TIP3      H2             43.7349333595      -20.5501922861       18.7522403535  W2        16917           0.0000000000
     50752     16918  TIP3      OH2            44.1549533595      -26.6029022861        6.9754503535  W2        16918           0.0000000000
     50753     16918  TIP3      H1             43.8630833595      -25.8347322861        6.4845803535  W2        16918           0.0000000000
     50754     16918  TIP3      H2             43.4804733595      -27.2622822861        6.8125903535  W2        16918           0.0000000000
     50755     16919  TIP3      OH2            40.2479633595      -24.2399822861       15.7904303535  W2        16919           0.0000000000
     50756     16919  TIP3      H1             39.7468033595      -24.2680422861       14.9754003535  W2        16919           0.0000000000
     50757     16919  TIP3      H2             40.2533333595      -25.1456622861       16.1001603535  W2        16919           0.0000000000
     50758     16920  TIP3      OH2            39.9982333595      -21.4596022861       12.6744503535  W2        16920           0.0000000000
     50759     16920  TIP3      H1             40.9442933595      -21.6039022861       12.6554003535  W2        16920           0.0000000000
     50760     16920  TIP3      H2             39.8858633595      -20.6753222861       13.2115703535  W2        16920           0.0000000000
     50761     16921  TIP3      OH2            49.1744833595      -21.2197122861       17.2329603535  W2        16921           0.0000000000
     50762     16921  TIP3      H1             49.2619433595      -20.3932522861       17.7078703535  W2        16921           0.0000000000
     50763     16921  TIP3      H2             48.3109933595      -21.5493322861       17.4818903535  W2        16921           0.0000000000
     50764     16922  TIP3      OH2            49.5890633595      -17.4473422861        7.0390203535  W2        16922           0.0000000000
     50765     16922  TIP3      H1             49.5136633595      -17.5686222861        6.0925403535  W2        16922           0.0000000000
     50766     16922  TIP3      H2             49.6219333595      -16.4980722861        7.1574803535  W2        16922           0.0000000000
     50767     16923  TIP3      OH2            43.2424433595      -18.6586422861        8.8199203535  W2        16923           0.0000000000
     50768     16923  TIP3      H1             43.3944833595      -19.0066022861        9.6985703535  W2        16923           0.0000000000
     50769     16923  TIP3      H2             42.3914833595      -19.0149122861        8.5646403535  W2        16923           0.0000000000
     50770     16924  TIP3      OH2            52.6906633595      -18.2933222861        4.0412603535  W2        16924           0.0000000000
     50771     16924  TIP3      H1             53.0655033595      -19.0377122861        3.5705203535  W2        16924           0.0000000000
     50772     16924  TIP3      H2             52.6950333595      -18.5632622861        4.9595903535  W2        16924           0.0000000000
     50773     16925  TIP3      OH2            52.3594733595      -18.3676122861        6.7904803535  W2        16925           0.0000000000
     50774     16925  TIP3      H1             51.4244533595      -18.2674222861        6.9691803535  W2        16925           0.0000000000
     50775     16925  TIP3      H2             52.6396633595      -19.0770122861        7.3688003535  W2        16925           0.0000000000
     50776     16926  TIP3      OH2            42.4970133595      -22.9164422861       16.8337103535  W2        16926           0.0000000000
     50777     16926  TIP3      H1             42.7131433595      -23.2778822861       17.6932903535  W2        16926           0.0000000000
     50778     16926  TIP3      H2             41.6414833595      -23.2910622861       16.6240603535  W2        16926           0.0000000000
     50779     16927  TIP3      OH2            45.1158133595      -34.4463922861       12.8291303535  W2        16927           0.0000000000
     50780     16927  TIP3      H1             44.2541833595      -34.5335722861       12.4214203535  W2        16927           0.0000000000
     50781     16927  TIP3      H2             45.0933833595      -33.5903822861       13.2568903535  W2        16927           0.0000000000
     50782     16928  TIP3      OH2            49.7785933595      -34.7243522861       16.2038303535  W2        16928           0.0000000000
     50783     16928  TIP3      H1             50.1989033595      -35.1396422861       16.9568903535  W2        16928           0.0000000000
     50784     16928  TIP3      H2             48.8455533595      -34.9030222861       16.3210303535  W2        16928           0.0000000000
     50785     16929  TIP3      OH2            53.1050833595      -30.9688322861       17.0572803535  W2        16929           0.0000000000
     50786     16929  TIP3      H1             52.5910333595      -31.0946122861       17.8548803535  W2        16929           0.0000000000
     50787     16929  TIP3      H2             52.9495533595      -30.0565222861       16.8129003535  W2        16929           0.0000000000
     50788     16930  TIP3      OH2            53.8675733595      -26.1078322861        2.8185803535  W2        16930           0.0000000000
     50789     16930  TIP3      H1             53.9096533595      -26.3304422861        1.8885803535  W2        16930           0.0000000000
     50790     16930  TIP3      H2             54.7167833595      -25.7091222861        3.0085703535  W2        16930           0.0000000000
     50791     16931  TIP3      OH2            49.4403233595      -32.2320122861        3.4889103535  W2        16931           0.0000000000
     50792     16931  TIP3      H1             49.1868033595      -32.2128522861        4.4117203535  W2        16931           0.0000000000
     50793     16931  TIP3      H2             49.1835333595      -33.1034722861        3.1875303535  W2        16931           0.0000000000
     50794     16932  TIP3      OH2            45.2068233595      -29.4809422861       13.9241503535  W2        16932           0.0000000000
     50795     16932  TIP3      H1             44.5650333595      -29.5212122861       14.6331603535  W2        16932           0.0000000000
     50796     16932  TIP3      H2             45.2440233595      -28.5544722861       13.6864503535  W2        16932           0.0000000000
     50797     16933  TIP3      OH2            45.2037333595      -29.2599322861        8.8361503535  W2        16933           0.0000000000
     50798     16933  TIP3      H1             44.3110233595      -29.6003222861        8.7775303535  W2        16933           0.0000000000
     50799     16933  TIP3      H2             45.6543933595      -29.6368422861        8.0804703535  W2        16933           0.0000000000
     50800     16934  TIP3      OH2            50.7392833595      -28.8439022861        7.6532303535  W2        16934           0.0000000000
     50801     16934  TIP3      H1             50.3303133595      -28.0290422861        7.3617103535  W2        16934           0.0000000000
     50802     16934  TIP3      H2             51.4599033595      -28.9838922861        7.0389403535  W2        16934           0.0000000000
     50803     16935  TIP3      OH2            49.8414433595      -28.6682622861       19.1413003535  W2        16935           0.0000000000
     50804     16935  TIP3      H1             49.2788233595      -29.3731022861       19.4620803535  W2        16935           0.0000000000
     50805     16935  TIP3      H2             50.6677833595      -28.7890722861       19.6090603535  W2        16935           0.0000000000
     50806     16936  TIP3      OH2            51.7440533595      -29.3978622861       10.4672003535  W2        16936           0.0000000000
     50807     16936  TIP3      H1             51.5485033595      -28.7921822861        9.7522603535  W2        16936           0.0000000000
     50808     16936  TIP3      H2             51.9253133595      -30.2313422861       10.0328303535  W2        16936           0.0000000000
     50809     16937  TIP3      OH2            42.9568733595      -29.1605922861       15.7913503535  W2        16937           0.0000000000
     50810     16937  TIP3      H1             42.9188133595      -28.7604322861       16.6600603535  W2        16937           0.0000000000
     50811     16937  TIP3      H2             42.4659833595      -29.9773522861       15.8816403535  W2        16937           0.0000000000
     50812     16938  TIP3      OH2            46.3226133595      -31.7863622861        2.5899503535  W2        16938           0.0000000000
     50813     16938  TIP3      H1             45.8916833595      -32.2313522861        3.3196903535  W2        16938           0.0000000000
     50814     16938  TIP3      H2             45.6044833595      -31.4147322861        2.0777003535  W2        16938           0.0000000000
     50815     16939  TIP3      OH2            39.5649533595      -32.0444122861        9.6418203535  W2        16939           0.0000000000
     50816     16939  TIP3      H1             40.1957233595      -32.0732022861       10.3612103535  W2        16939           0.0000000000
     50817     16939  TIP3      H2             40.0143833595      -32.4695422861        8.9114103535  W2        16939           0.0000000000
     50818     16940  TIP3      OH2            40.8391633595      -31.2982122861        5.0658603535  W2        16940           0.0000000000
     50819     16940  TIP3      H1             41.3133333595      -30.7072222861        4.4809503535  W2        16940           0.0000000000
     50820     16940  TIP3      H2             40.1218033595      -30.7679222861        5.4128703535  W2        16940           0.0000000000
     50821     16941  TIP3      OH2            51.0079733595      -27.7597322861       15.1384403535  W2        16941           0.0000000000
     50822     16941  TIP3      H1             51.3314533595      -28.3907622861       14.4954903535  W2        16941           0.0000000000
     50823     16941  TIP3      H2             50.5679033595      -28.2945122861       15.7991803535  W2        16941           0.0000000000
     50824     16942  TIP3      OH2            47.7852633595      -31.8321822861        9.9225603535  W2        16942           0.0000000000
     50825     16942  TIP3      H1             46.8743733595      -31.7755022861       10.2111603535  W2        16942           0.0000000000
     50826     16942  TIP3      H2             48.2905533595      -31.8926322861       10.7332803535  W2        16942           0.0000000000
     50827     16943  TIP3      OH2            42.6136033595      -30.2035522861        8.7493203535  W2        16943           0.0000000000
     50828     16943  TIP3      H1             41.7244033595      -30.1040022861        8.4092803535  W2        16943           0.0000000000
     50829     16943  TIP3      H2             42.9100933595      -31.0452522861        8.4031103535  W2        16943           0.0000000000
     50830     16944  TIP3      OH2            46.2667833595      -30.2032922861        6.4057803535  W2        16944           0.0000000000
     50831     16944  TIP3      H1             47.1983333595      -30.0742922861        6.5840903535  W2        16944           0.0000000000
     50832     16944  TIP3      H2             46.0518133595      -29.5338622861        5.7562503535  W2        16944           0.0000000000
     50833     16945  TIP3      OH2            52.1904533595      -32.5975522861       13.1867403535  W2        16945           0.0000000000
     50834     16945  TIP3      H1             51.5136133595      -32.4662422861       13.8507103535  W2        16945           0.0000000000
     50835     16945  TIP3      H2             51.7049433595      -32.7526022861       12.3765103535  W2        16945           0.0000000000
     50836     16946  TIP3      OH2            44.9408033595      -29.0090722861        3.9723903535  W2        16946           0.0000000000
     50837     16946  TIP3      H1             44.3983133595      -29.3886922861        3.2811503535  W2        16946           0.0000000000
     50838     16946  TIP3      H2             45.7742933595      -28.8146022861        3.5438003535  W2        16946           0.0000000000
     50839     16947  TIP3      OH2            43.0759433595      -24.4518822861       19.0715503535  W2        16947           0.0000000000
     50840     16947  TIP3      H1             43.8081833595      -24.1972922861       19.6330003535  W2        16947           0.0000000000
     50841     16947  TIP3      H2             42.2958133595      -24.2473422861       19.5870903535  W2        16947           0.0000000000
     50842     16948  TIP3      OH2            49.1052333595      -29.0448822861       11.8095203535  W2        16948           0.0000000000
     50843     16948  TIP3      H1             49.6695733595      -29.5912222861       11.2624803535  W2        16948           0.0000000000
     50844     16948  TIP3      H2             48.9575733595      -29.5666922861       12.5982803535  W2        16948           0.0000000000
     50845     16949  TIP3      OH2            44.1072033595      -32.9082722861        8.2280003535  W2        16949           0.0000000000
     50846     16949  TIP3      H1             43.7901533595      -33.8107422861        8.1925403535  W2        16949           0.0000000000
     50847     16949  TIP3      H2             44.8886133595      -32.9065322861        7.6751603535  W2        16949           0.0000000000
     50848     16950  TIP3      OH2            47.7318233595      -30.6562722861       14.2235603535  W2        16950           0.0000000000
     50849     16950  TIP3      H1             46.8963533595      -30.2023222861       14.3338003535  W2        16950           0.0000000000
     50850     16950  TIP3      H2             48.2558833595      -30.3804222861       14.9755503535  W2        16950           0.0000000000
     50851     16951  TIP3      OH2            48.2760833595      -24.4435022861        5.9082003535  W2        16951           0.0000000000
     50852     16951  TIP3      H1             47.5311833595      -24.9509722861        5.5859903535  W2        16951           0.0000000000
     50853     16951  TIP3      H2             48.1418033595      -24.3947022861        6.8546803535  W2        16951           0.0000000000
     50854     16952  TIP3      OH2            52.1737633595      -31.6295122861        4.1074603535  W2        16952           0.0000000000
     50855     16952  TIP3      H1             51.2351833595      -31.5179522861        3.9563403535  W2        16952           0.0000000000
     50856     16952  TIP3      H2             52.4709733595      -30.7728222861        4.4140303535  W2        16952           0.0000000000
     50857     16953  TIP3      OH2            49.7952933595      -24.2591722861       17.1451103535  W2        16953           0.0000000000
     50858     16953  TIP3      H1             49.4499033595      -24.6409322861       17.9520703535  W2        16953           0.0000000000
     50859     16953  TIP3      H2             49.5953033595      -23.3258122861       17.2164003535  W2        16953           0.0000000000
     50860     16954  TIP3      OH2            52.8921133595      -29.7622422861        5.7682003535  W2        16954           0.0000000000
     50861     16954  TIP3      H1             53.7840133595      -29.8997422861        6.0873203535  W2        16954           0.0000000000
     50862     16954  TIP3      H2             52.9484733595      -28.9716322861        5.2315503535  W2        16954           0.0000000000
     50863     16955  TIP3      OH2            43.4009133595      -25.1485022861       11.6779903535  W2        16955           0.0000000000
     50864     16955  TIP3      H1             44.1456333595      -25.1509322861       11.0766403535  W2        16955           0.0000000000
     50865     16955  TIP3      H2             43.4785733595      -25.9721222861       12.1595003535  W2        16955           0.0000000000
     50866     16956  TIP3      OH2            50.4014933595      -22.9850722861        4.9336603535  W2        16956           0.0000000000
     50867     16956  TIP3      H1             50.1063333595      -22.1582822861        5.3151403535  W2        16956           0.0000000000
     50868     16956  TIP3      H2             49.6984933595      -23.6043822861        5.1298003535  W2        16956           0.0000000000
     50869     16957  TIP3      OH2            40.4088833595      -26.6878122861       16.9928403535  W2        16957           0.0000000000
     50870     16957  TIP3      H1             40.6317433595      -27.1058522861       17.8245903535  W2        16957           0.0000000000
     50871     16957  TIP3      H2             39.8068933595      -27.3003122861       16.5701203535  W2        16957           0.0000000000
     50872     16958  TIP3      OH2            47.4253733595      -27.1708222861       19.2058103535  W2        16958           0.0000000000
     50873     16958  TIP3      H1             47.1294533595      -27.3365222861       18.3107203535  W2        16958           0.0000000000
     50874     16958  TIP3      H2             48.3568933595      -27.3907922861       19.1952003535  W2        16958           0.0000000000
     50875     16959  TIP3      OH2            52.0456533595      -21.7976222861       17.0956103535  W2        16959           0.0000000000
     50876     16959  TIP3      H1             51.1450833595      -21.6143622861       16.8280003535  W2        16959           0.0000000000
     50877     16959  TIP3      H2             52.0797633595      -21.5386922861       18.0164903535  W2        16959           0.0000000000
     50878     16960  TIP3      OH2            53.2325433595      -25.9588422861       12.9492703535  W2        16960           0.0000000000
     50879     16960  TIP3      H1             52.3042333595      -26.1906522861       12.9222003535  W2        16960           0.0000000000
     50880     16960  TIP3      H2             53.6836533595      -26.7358622861       12.6191503535  W2        16960           0.0000000000
     50881     16961  TIP3      OH2            45.7758533595      -21.6306822861        9.0821403535  W2        16961           0.0000000000
     50882     16961  TIP3      H1             46.3030733595      -20.8572422861        8.8820203535  W2        16961           0.0000000000
     50883     16961  TIP3      H2             44.8957033595      -21.4057622861        8.7805403535  W2        16961           0.0000000000
     50884     16962  TIP3      OH2            41.5306233595      -26.7682722861        3.6693803535  W2        16962           0.0000000000
     50885     16962  TIP3      H1             42.1466133595      -26.1415522861        4.0488603535  W2        16962           0.0000000000
     50886     16962  TIP3      H2             40.6688833595      -26.4522922861        3.9410303535  W2        16962           0.0000000000
     50887     16963  TIP3      OH2            47.2030833595      -23.9676922861        8.6585703535  W2        16963           0.0000000000
     50888     16963  TIP3      H1             46.9620833595      -23.0422522861        8.7001003535  W2        16963           0.0000000000
     50889     16963  TIP3      H2             46.4624433595      -24.4265622861        9.0549603535  W2        16963           0.0000000000
     50890     16964  TIP3      OH2            47.7177433595      -19.8183322861       14.9736803535  W2        16964           0.0000000000
     50891     16964  TIP3      H1             48.0802133595      -18.9637722861       14.7401203535  W2        16964           0.0000000000
     50892     16964  TIP3      H2             48.2492633595      -20.1101722861       15.7143103535  W2        16964           0.0000000000
     50893     16965  TIP3      OH2            45.8861633595      -18.9459322861        8.2037903535  W2        16965           0.0000000000
     50894     16965  TIP3      H1             44.9362133595      -18.8401922861        8.2551203535  W2        16965           0.0000000000
     50895     16965  TIP3      H2             46.2379733595      -18.1251922861        8.5485403535  W2        16965           0.0000000000
     50896     16966  TIP3      OH2            51.2618233595      -23.7192622861       14.6742403535  W2        16966           0.0000000000
     50897     16966  TIP3      H1             50.8359533595      -23.9470922861       15.5006403535  W2        16966           0.0000000000
     50898     16966  TIP3      H2             51.8424033595      -24.4580822861       14.4917703535  W2        16966           0.0000000000
     50899     16967  TIP3      OH2            53.4647133595      -22.7902122861        3.7481403535  W2        16967           0.0000000000
     50900     16967  TIP3      H1             53.8180233595      -23.1702322861        4.5524903535  W2        16967           0.0000000000
     50901     16967  TIP3      H2             52.5160633595      -22.8837322861        3.8350703535  W2        16967           0.0000000000
     50902     16968  TIP3      OH2            53.9202433595      -19.1673122861       17.1437203535  W2        16968           0.0000000000
     50903     16968  TIP3      H1             53.3185633595      -19.7230222861       16.6483503535  W2        16968           0.0000000000
     50904     16968  TIP3      H2             54.2016133595      -18.5003322861       16.5174603535  W2        16968           0.0000000000
     50905     16969  TIP3      OH2            42.0428333595      -31.9345422861       16.5509803535  W2        16969           0.0000000000
     50906     16969  TIP3      H1             41.1500633595      -31.5960022861       16.4833803535  W2        16969           0.0000000000
     50907     16969  TIP3      H2             41.9441133595      -32.7899322861       16.9690603535  W2        16969           0.0000000000
     50908     16970  TIP3      OH2            54.3306433595      -24.1180122861        5.9749303535  W2        16970           0.0000000000
     50909     16970  TIP3      H1             54.0534033595      -24.8460822861        6.5310403535  W2        16970           0.0000000000
     50910     16970  TIP3      H2             55.2579433595      -23.9988122861        6.1801903535  W2        16970           0.0000000000
     50911     16971  TIP3      OH2            41.6940333595      -20.1301022861       14.9859203535  W2        16971           0.0000000000
     50912     16971  TIP3      H1             41.9110633595      -21.0618622861       14.9548903535  W2        16971           0.0000000000
     50913     16971  TIP3      H2             41.9403833595      -19.8556022861       15.8692003535  W2        16971           0.0000000000
     50914     16972  TIP3      OH2            47.5554933595      -21.6786022861        2.1951403535  W2        16972           0.0000000000
     50915     16972  TIP3      H1             47.7944733595      -22.4267922861        1.6480303535  W2        16972           0.0000000000
     50916     16972  TIP3      H2             47.2866233595      -22.0664322861        3.0279203535  W2        16972           0.0000000000
     50917     16973  TIP3      OH2            46.4925533595      -22.1082222861        4.6514003535  W2        16973           0.0000000000
     50918     16973  TIP3      H1             46.6393533595      -22.6282422861        5.4414903535  W2        16973           0.0000000000
     50919     16973  TIP3      H2             46.4897233595      -21.2014622861        4.9579903535  W2        16973           0.0000000000
     50920     16974  TIP3      OH2            42.9456633595      -24.8558922861        5.1619403535  W2        16974           0.0000000000
     50921     16974  TIP3      H1             42.2595933595      -24.5036422861        5.7289103535  W2        16974           0.0000000000
     50922     16974  TIP3      H2             43.4684533595      -24.0929322861        4.9153703535  W2        16974           0.0000000000
     50923     16975  TIP3      OH2            50.7771733595      -32.1935122861       15.4408403535  W2        16975           0.0000000000
     50924     16975  TIP3      H1             51.4759633595      -32.1196422861       16.0908103535  W2        16975           0.0000000000
     50925     16975  TIP3      H2             50.3963133595      -33.0580122861       15.5951303535  W2        16975           0.0000000000
     50926     16976  TIP3      OH2            51.5616633595      -32.5413422861        6.5380703535  W2        16976           0.0000000000
     50927     16976  TIP3      H1             51.7814933595      -32.0698022861        5.7346103535  W2        16976           0.0000000000
     50928     16976  TIP3      H2             52.1200633595      -32.1470822861        7.2081303535  W2        16976           0.0000000000
     50929     16977  TIP3      OH2            49.2302733595      -20.4108622861        5.4008203535  W2        16977           0.0000000000
     50930     16977  TIP3      H1             48.4138833595      -19.9138922861        5.4532503535  W2        16977           0.0000000000
     50931     16977  TIP3      H2             49.7599033595      -19.9355122861        4.7607003535  W2        16977           0.0000000000
     50932     16978  TIP3      OH2            48.7616533595      -30.8134622861        7.3729103535  W2        16978           0.0000000000
     50933     16978  TIP3      H1             49.5739133595      -30.3091422861        7.4190803535  W2        16978           0.0000000000
     50934     16978  TIP3      H2             48.5169533595      -30.9584922861        8.2868703535  W2        16978           0.0000000000
     50935     16979  TIP3      OH2            49.2972933595      -29.8271922861       16.5575703535  W2        16979           0.0000000000
     50936     16979  TIP3      H1             49.4163233595      -29.2536522861       17.3146103535  W2        16979           0.0000000000
     50937     16979  TIP3      H2             49.9527533595      -30.5152522861       16.6723503535  W2        16979           0.0000000000
     50938     16980  TIP3      OH2            49.6453233595      -33.7321622861        8.3110203535  W2        16980           0.0000000000
     50939     16980  TIP3      H1             49.2986733595      -33.1151022861        8.9554503535  W2        16980           0.0000000000
     50940     16980  TIP3      H2             50.3040133595      -33.2315922861        7.8295703535  W2        16980           0.0000000000
     50941     16981  TIP3      OH2            46.5685833595      -19.3671422861        5.3825103535  W2        16981           0.0000000000
     50942     16981  TIP3      H1             46.7294533595      -18.5673922861        4.8817703535  W2        16981           0.0000000000
     50943     16981  TIP3      H2             46.3713633595      -19.0605422861        6.2675703535  W2        16981           0.0000000000
     50944     16982  TIP3      OH2            45.3030233595      -32.6692222861        4.9982703535  W2        16982           0.0000000000
     50945     16982  TIP3      H1             45.2195033595      -31.7809122861        5.3449103535  W2        16982           0.0000000000
     50946     16982  TIP3      H2             46.1930533595      -32.9345522861        5.2299503535  W2        16982           0.0000000000
     50947     16983  TIP3      OH2            54.1039733595      -28.1700622861       11.4882703535  W2        16983           0.0000000000
     50948     16983  TIP3      H1             53.3064133595      -28.5850422861       11.1597703535  W2        16983           0.0000000000
     50949     16983  TIP3      H2             54.5490833595      -28.8606922861       11.9793203535  W2        16983           0.0000000000
     50950     16984  TIP3      OH2            43.5615533595      -22.2420022861        4.0587203535  W2        16984           0.0000000000
     50951     16984  TIP3      H1             44.1537033595      -21.5425222861        4.3349603535  W2        16984           0.0000000000
     50952     16984  TIP3      H2             44.0208533595      -22.6750522861        3.3391803535  W2        16984           0.0000000000
     50953     16985  TIP3      OH2            41.8774733595      -29.5777022861        3.1746603535  W2        16985           0.0000000000
     50954     16985  TIP3      H1             41.8327333595      -28.6383922861        3.3533603535  W2        16985           0.0000000000
     50955     16985  TIP3      H2             40.9897933595      -29.8132122861        2.9048703535  W2        16985           0.0000000000
     50956     16986  TIP3      OH2            42.6856733595      -34.7960422861       11.8477603535  W2        16986           0.0000000000
     50957     16986  TIP3      H1             42.4566533595      -34.7367922861       10.9202603535  W2        16986           0.0000000000
     50958     16986  TIP3      H2             42.2430133595      -35.5874922861       12.1541703535  W2        16986           0.0000000000
     50959     16987  TIP3      OH2            41.6160033595      -20.8553322861        8.0083403535  W2        16987           0.0000000000
     50960     16987  TIP3      H1             40.7838633595      -20.3830622861        8.0354803535  W2        16987           0.0000000000
     50961     16987  TIP3      H2             42.1618333595      -20.3455722861        7.4096503535  W2        16987           0.0000000000
     50962     16988  TIP3      OH2            40.9043733595      -18.2429622861       19.3381403535  W2        16988           0.0000000000
     50963     16988  TIP3      H1             41.4445933595      -18.4595622861       20.0980603535  W2        16988           0.0000000000
     50964     16988  TIP3      H2             40.4231733595      -19.0483622861       19.1483903535  W2        16988           0.0000000000
     50965     16989  TIP3      OH2            45.5017133595      -19.3235222861       20.9585603535  W2        16989           0.0000000000
     50966     16989  TIP3      H1             46.2694333595      -19.7824422861       21.2994803535  W2        16989           0.0000000000
     50967     16989  TIP3      H2             45.4803333595      -19.5495422861       20.0286803535  W2        16989           0.0000000000
     50968     16990  TIP3      OH2            49.5936733595      -19.8154622861        2.3337403535  W2        16990           0.0000000000
     50969     16990  TIP3      H1             48.9497733595      -20.4466022861        2.6551103535  W2        16990           0.0000000000
     50970     16990  TIP3      H2             50.3555033595      -20.3466622861        2.1020903535  W2        16990           0.0000000000
     50971     16991  TIP3      OH2            52.0785833595      -20.9434122861       19.6877103535  W2        16991           0.0000000000
     50972     16991  TIP3      H1             51.7275333595      -21.8001122861       19.9307503535  W2        16991           0.0000000000
     50973     16991  TIP3      H2             52.8049033595      -20.8007422861       20.2946103535  W2        16991           0.0000000000
     50974     16992  TIP3      OH2            54.1979633595      -19.9984722861        2.5675403535  W2        16992           0.0000000000
     50975     16992  TIP3      H1             54.4810033595      -20.7929522861        3.0202303535  W2        16992           0.0000000000
     50976     16992  TIP3      H2             54.9377533595      -19.7653722861        2.0066503535  W2        16992           0.0000000000
     50977     16993  TIP3      OH2            40.8113233595      -24.4325522861       20.2925703535  W2        16993           0.0000000000
     50978     16993  TIP3      H1             40.9553733595      -25.3344822861       20.0062403535  W2        16993           0.0000000000
     50979     16993  TIP3      H2             40.0390633595      -24.1463422861       19.8048003535  W2        16993           0.0000000000
     50980     16994  TIP3      OH2            45.1526933595      -24.0889822861        2.4250303535  W2        16994           0.0000000000
     50981     16994  TIP3      H1             45.2171033595      -24.8830222861        2.9556703535  W2        16994           0.0000000000
     50982     16994  TIP3      H2             45.8056133595      -24.2077022861        1.7352303535  W2        16994           0.0000000000
     50983     16995  TIP3      OH2            47.4669333595      -24.4627422861       19.7252103535  W2        16995           0.0000000000
     50984     16995  TIP3      H1             47.1383133595      -24.1919322861       18.8679503535  W2        16995           0.0000000000
     50985     16995  TIP3      H2             47.6187533595      -25.4037622861       19.6377103535  W2        16995           0.0000000000
     50986     16996  TIP3      OH2            50.5050333595      -23.0418122861        2.1608303535  W2        16996           0.0000000000
     50987     16996  TIP3      H1             50.2364433595      -22.8616022861        3.0617203535  W2        16996           0.0000000000
     50988     16996  TIP3      H2             50.2985933595      -23.9671922861        2.0294103535  W2        16996           0.0000000000
     50989     16997  TIP3      OH2            53.2014533595      -24.5470122861       17.1084403535  W2        16997           0.0000000000
     50990     16997  TIP3      H1             53.9469333595      -23.9586422861       16.9888403535  W2        16997           0.0000000000
     50991     16997  TIP3      H2             52.4441333595      -23.9650422861       17.1717503535  W2        16997           0.0000000000
     50992     16998  TIP3      OH2            41.6439733595      -27.2322222861       19.7125003535  W2        16998           0.0000000000
     50993     16998  TIP3      H1             42.0520933595      -28.0895622861       19.5915603535  W2        16998           0.0000000000
     50994     16998  TIP3      H2             41.3837333595      -27.2180922861       20.6335303535  W2        16998           0.0000000000
     50995     16999  TIP3      OH2            46.3020733595      -26.1163622861        4.7308303535  W2        16999           0.0000000000
     50996     16999  TIP3      H1             45.8422733595      -26.6005322861        5.4166803535  W2        16999           0.0000000000
     50997     16999  TIP3      H2             46.5569433595      -26.7848222861        4.0948803535  W2        16999           0.0000000000
     50998     17000  TIP3      OH2            45.5910033595      -28.2236522861       17.0867903535  W2        17000           0.0000000000
     50999     17000  TIP3      H1             44.9726133595      -27.5489922861       17.3672603535  W2        17000           0.0000000000
     51000     17000  TIP3      H2             45.9351233595      -27.9022622861       16.2534103535  W2        17000           0.0000000000
     51001     17001  TIP3      OH2            47.3731133595      -27.8731822861        2.9931503535  W2        17001           0.0000000000
     51002     17001  TIP3      H1             47.1926133595      -28.0280622861        2.0659803535  W2        17001           0.0000000000
     51003     17001  TIP3      H2             48.3231633595      -27.7653122861        3.0379403535  W2        17001           0.0000000000
     51004     17002  TIP3      OH2            50.6108233595      -25.7521222861       20.3642703535  W2        17002           0.0000000000
     51005     17002  TIP3      H1             51.5639433595      -25.6682122861       20.3368703535  W2        17002           0.0000000000
     51006     17002  TIP3      H2             50.4502833595      -26.4639422861       20.9837603535  W2        17002           0.0000000000
     51007     17003  TIP3      OH2            45.9303733595      -30.8685722861       18.1691003535  W2        17003           0.0000000000
     51008     17003  TIP3      H1             46.0804633595      -31.5974422861       17.5670703535  W2        17003           0.0000000000
     51009     17003  TIP3      H2             45.9326133595      -30.0914022861       17.6103203535  W2        17003           0.0000000000
     51010     17004  TIP3      OH2            46.3429433595      -32.4989922861       15.6618403535  W2        17004           0.0000000000
     51011     17004  TIP3      H1             46.8786933595      -32.0473222861       15.0097703535  W2        17004           0.0000000000
     51012     17004  TIP3      H2             45.4909033595      -32.6070122861       15.2392503535  W2        17004           0.0000000000
     51013     17005  TIP3      OH2            47.9247833595      -27.0593722861       15.9013603535  W2        17005           0.0000000000
     51014     17005  TIP3      H1             48.6752633595      -27.2156222861       15.3281403535  W2        17005           0.0000000000
     51015     17005  TIP3      H2             47.5856133595      -26.2077122861       15.6259103535  W2        17005           0.0000000000
     51016     17006  TIP3      OH2            52.3404033595      -29.2441922861       20.9298903535  W2        17006           0.0000000000
     51017     17006  TIP3      H1             52.5325333595      -30.1752522861       20.8183403535  W2        17006           0.0000000000
     51018     17006  TIP3      H2             53.1980333595      -28.8192422861       20.9194303535  W2        17006           0.0000000000
     51019     17007  TIP3      OH2            53.6571233595      -26.4556722861       19.0071603535  W2        17007           0.0000000000
     51020     17007  TIP3      H1             53.3756233595      -25.7462122861       18.4295403535  W2        17007           0.0000000000
     51021     17007  TIP3      H2             54.5995533595      -26.5283722861       18.8562803535  W2        17007           0.0000000000
     51022     17008  TIP3      OH2            44.4090033595      -29.6702222861       20.0806603535  W2        17008           0.0000000000
     51023     17008  TIP3      H1             43.6419033595      -30.2027422861       19.8704203535  W2        17008           0.0000000000
     51024     17008  TIP3      H2             45.0879033595      -29.9801822861       19.4812903535  W2        17008           0.0000000000
     51025     17009  TIP3      OH2            47.1484933595      -35.0424222861       16.0932003535  W2        17009           0.0000000000
     51026     17009  TIP3      H1             47.0504533595      -34.0961022861       15.9878203535  W2        17009           0.0000000000
     51027     17009  TIP3      H2             46.4061133595      -35.4150422861       15.6175503535  W2        17009           0.0000000000
     51028     17010  TIP3      OH2            48.4125433595      -30.7208822861       19.6570403535  W2        17010           0.0000000000
     51029     17010  TIP3      H1             48.1770833595      -30.9402122861       20.5585303535  W2        17010           0.0000000000
     51030     17010  TIP3      H2             47.6292333595      -30.9277622861       19.1472903535  W2        17010           0.0000000000
     51031     17011  TIP3      OH2            51.1282033595      -31.5935322861       18.7323903535  W2        17011           0.0000000000
     51032     17011  TIP3      H1             50.1807433595      -31.5615622861       18.8647203535  W2        17011           0.0000000000
     51033     17011  TIP3      H2             51.4408733595      -32.2188222861       19.3862103535  W2        17011           0.0000000000
     51034     17012  TIP3      OH2            52.7623533595      -32.9594222861       20.7375803535  W2        17012           0.0000000000
     51035     17012  TIP3      H1             52.6655333595      -33.9116922861       20.7317703535  W2        17012           0.0000000000
     51036     17012  TIP3      H2             52.4406633595      -32.6907422861       21.5981303535  W2        17012           0.0000000000
     51037     17013  TIP3      OH2            42.5892833595      -31.7498422861       19.7851303535  W2        17013           0.0000000000
     51038     17013  TIP3      H1             42.8010233595      -32.4562322861       19.1748803535  W2        17013           0.0000000000
     51039     17013  TIP3      H2             42.4780333595      -32.1872422861       20.6292503535  W2        17013           0.0000000000
     51040     17014  TIP3      OH2            47.3703033595      -35.7486822861       18.7644803535  W2        17014           0.0000000000
     51041     17014  TIP3      H1             48.0821433595      -36.3884622861       18.7503903535  W2        17014           0.0000000000
     51042     17014  TIP3      H2             47.2693433595      -35.4818522861       17.8507903535  W2        17014           0.0000000000
     51043     17015  TIP3      OH2            47.7240533595      -34.0658422861       20.8181103535  W2        17015           0.0000000000
     51044     17015  TIP3      H1             47.5922733595      -34.5414622861       19.9979603535  W2        17015           0.0000000000
     51045     17015  TIP3      H2             47.1247933595      -33.3214822861       20.7628203535  W2        17015           0.0000000000
     51046     17016  TIP3      OH2            47.2702833595      -17.1828122861        3.9945103535  W2        17016           0.0000000000
     51047     17016  TIP3      H1             48.2033533595      -17.0249422861        4.1383503535  W2        17016           0.0000000000
     51048     17016  TIP3      H2             47.0061633595      -16.5075122861        3.3696603535  W2        17016           0.0000000000
     51049     17017  TIP3      OH2            40.8387733595      -22.5464322861        3.4773203535  W2        17017           0.0000000000
     51050     17017  TIP3      H1             41.7526933595      -22.4675422861        3.7507103535  W2        17017           0.0000000000
     51051     17017  TIP3      H2             40.8460833595      -23.2334722861        2.8108803535  W2        17017           0.0000000000
     51052     17018  TIP3      OH2            39.4878333595      -17.1535822861        8.5547103535  W2        17018           0.0000000000
     51053     17018  TIP3      H1             38.8405433595      -17.6154122861        8.0218303535  W2        17018           0.0000000000
     51054     17018  TIP3      H2             39.8422933595      -17.8252522861        9.1373303535  W2        17018           0.0000000000
     51055     17019  TIP3      OH2            40.3577533595      -19.0728822861       10.3593303535  W2        17019           0.0000000000
     51056     17019  TIP3      H1             40.0234333595      -19.9531522861       10.5313503535  W2        17019           0.0000000000
     51057     17019  TIP3      H2             40.5799933595      -18.7273822861       11.2238903535  W2        17019           0.0000000000
     51058     17020  TIP3      OH2            40.4377033595      -25.9973422861       12.8108203535  W2        17020           0.0000000000
     51059     17020  TIP3      H1             40.6219933595      -26.0791722861       11.8751103535  W2        17020           0.0000000000
     51060     17020  TIP3      H2             41.2869933595      -26.1216422861       13.2344603535  W2        17020           0.0000000000
     51061     17021  TIP3      OH2            40.0351833595      -30.7268422861       18.9517003535  W2        17021           0.0000000000
     51062     17021  TIP3      H1             40.9546733595      -30.8490122861       19.1880103535  W2        17021           0.0000000000
     51063     17021  TIP3      H2             39.5856333595      -31.4768722861       19.3410503535  W2        17021           0.0000000000
     51064     17022  TIP3      OH2            41.2564333595      -32.4146822861       11.8429903535  W2        17022           0.0000000000
     51065     17022  TIP3      H1             41.7015933595      -33.2064322861       12.1449603535  W2        17022           0.0000000000
     51066     17022  TIP3      H2             41.7227333595      -31.6981622861       12.2735503535  W2        17022           0.0000000000
     51067     17023  TIP3      OH2            39.5604633595      -29.4153822861       12.9120103535  W2        17023           0.0000000000
     51068     17023  TIP3      H1             40.0524433595      -29.6363322861       12.1212103535  W2        17023           0.0000000000
     51069     17023  TIP3      H2             39.9225533595      -28.5750422861       13.1929603535  W2        17023           0.0000000000
     51070     17024  TIP3      OH2            39.8741133595      -33.1574722861        6.9662503535  W2        17024           0.0000000000
     51071     17024  TIP3      H1             38.9489533595      -32.9488122861        6.8368003535  W2        17024           0.0000000000
     51072     17024  TIP3      H2             40.3281033595      -32.6733922861        6.2764803535  W2        17024           0.0000000000
     51073     17025  TIP3      OH2            54.6448333595      -18.1733022861        8.9119903535  W2        17025           0.0000000000
     51074     17025  TIP3      H1             55.2971233595      -18.5210922861        8.3039003535  W2        17025           0.0000000000
     51075     17025  TIP3      H2             55.1552133595      -17.6849822861        9.5579603535  W2        17025           0.0000000000
     51076     17026  TIP3      OH2            39.8376533595      -34.4195722861       15.3105003535  W2        17026           0.0000000000
     51077     17026  TIP3      H1             39.1727033595      -34.6655422861       15.9535903535  W2        17026           0.0000000000
     51078     17026  TIP3      H2             39.3947833595      -33.7975322861       14.7333003535  W2        17026           0.0000000000
     51079     17027  TIP3      OH2            42.0295833595      -21.2441622861       19.4550803535  W2        17027           0.0000000000
     51080     17027  TIP3      H1             41.2088333595      -21.0695122861       18.9945503535  W2        17027           0.0000000000
     51081     17027  TIP3      H2             41.7773633595      -21.3176922861       20.3755203535  W2        17027           0.0000000000
     51082     17028  TIP3      OH2            44.9838733595      -20.2700422861       15.7134803535  W2        17028           0.0000000000
     51083     17028  TIP3      H1             44.5589833595      -19.4601922861       15.4309403535  W2        17028           0.0000000000
     51084     17028  TIP3      H2             45.8881533595      -20.1846322861       15.4114603535  W2        17028           0.0000000000
     51085     17029  TIP3      OH2            49.2950133595      -18.8710422861       18.6728503535  W2        17029           0.0000000000
     51086     17029  TIP3      H1             49.4797633595      -19.2044322861       19.5508803535  W2        17029           0.0000000000
     51087     17029  TIP3      H2             50.1414633595      -18.5611822861       18.3507703535  W2        17029           0.0000000000
     51088     17030  TIP3      OH2            51.6400533595      -17.5851522861       17.9169903535  W2        17030           0.0000000000
     51089     17030  TIP3      H1             52.3169433595      -18.2179222861       17.6769103535  W2        17030           0.0000000000
     51090     17030  TIP3      H2             51.9619333595      -17.1841022861       18.7243203535  W2        17030           0.0000000000
     51091     17031  TIP3      OH2            42.3855433595      -17.0136522861       15.7610103535  W2        17031           0.0000000000
     51092     17031  TIP3      H1             41.6651833595      -16.5735522861       15.3097803535  W2        17031           0.0000000000
     51093     17031  TIP3      H2             42.0199433595      -17.2641822861       16.6094103535  W2        17031           0.0000000000
     51094     17032  TIP3      OH2            44.8528033595      -17.4132622861       14.7907303535  W2        17032           0.0000000000
     51095     17032  TIP3      H1             43.9880233595      -17.3414122861       15.1947403535  W2        17032           0.0000000000
     51096     17032  TIP3      H2             44.7977033595      -16.8665322861       14.0069803535  W2        17032           0.0000000000
     51097     17033  TIP3      OH2            49.5633633595      -17.5253722861       13.9663303535  W2        17033           0.0000000000
     51098     17033  TIP3      H1             49.1067633595      -16.9964022861       13.3121703535  W2        17033           0.0000000000
     51099     17033  TIP3      H2             49.7261633595      -16.9222322861       14.6915603535  W2        17033           0.0000000000
     51100     17034  TIP3      OH2            51.8909933595      -18.6474122861       14.9113603535  W2        17034           0.0000000000
     51101     17034  TIP3      H1             50.9863633595      -18.4823922861       14.6455703535  W2        17034           0.0000000000
     51102     17034  TIP3      H2             52.3198533595      -17.7941922861       14.8457003535  W2        17034           0.0000000000
     51103     17035  TIP3      OH2            54.4951833595      -17.0775022861       15.2061403535  W2        17035           0.0000000000
     51104     17035  TIP3      H1             54.3133833595      -16.1616122861       14.9956303535  W2        17035           0.0000000000
     51105     17035  TIP3      H2             54.6719633595      -17.4877922861       14.3596003535  W2        17035           0.0000000000
     51106     17036  TIP3      OH2            41.8003533595      -18.3904022861       12.6711903535  W2        17036           0.0000000000
     51107     17036  TIP3      H1             41.7819533595      -18.8158922861       13.5284203535  W2        17036           0.0000000000
     51108     17036  TIP3      H2             42.6051433595      -18.7089022861       12.2624103535  W2        17036           0.0000000000
     51109     17037  TIP3      OH2            43.9416633595      -19.6805322861       11.3261803535  W2        17037           0.0000000000
     51110     17037  TIP3      H1             43.7227333595      -20.5967922861       11.4957803535  W2        17037           0.0000000000
     51111     17037  TIP3      H2             44.7658833595      -19.5404922861       11.7923203535  W2        17037           0.0000000000
     51112     17038  TIP3      OH2            46.4789133595      -19.2106022861       12.1749803535  W2        17038           0.0000000000
     51113     17038  TIP3      H1             46.6914833595      -20.0987022861       11.8880703535  W2        17038           0.0000000000
     51114     17038  TIP3      H2             46.5434233595      -19.2448322861       13.1293803535  W2        17038           0.0000000000
     51115     17039  TIP3      OH2            49.9872833595      -33.5465422861       11.3193103535  W2        17039           0.0000000000
     51116     17039  TIP3      H1             49.3129633595      -34.1759822861       11.5748903535  W2        17039           0.0000000000
     51117     17039  TIP3      H2             50.5512033595      -34.0306522861       10.7161003535  W2        17039           0.0000000000
     51118     17040  TIP3      OH2            42.3140333595      -34.9125122861        9.1413003535  W2        17040           0.0000000000
     51119     17040  TIP3      H1             41.5370133595      -35.1470222861        8.6338903535  W2        17040           0.0000000000
     51120     17040  TIP3      H2             42.8443933595      -35.7093022861        9.1501003535  W2        17040           0.0000000000
     51121     17041  TIP3      OH2            41.1503733595      -35.1147022861        4.9449103535  W2        17041           0.0000000000
     51122     17041  TIP3      H1             41.5894433595      -34.5036522861        4.3532603535  W2        17041           0.0000000000
     51123     17041  TIP3      H2             40.5166133595      -34.5762922861        5.4189103535  W2        17041           0.0000000000
     51124     17042  TIP3      OH2            46.8932933595      -34.9858022861        8.9546103535  W2        17042           0.0000000000
     51125     17042  TIP3      H1             47.7676333595      -34.5973722861        8.9250403535  W2        17042           0.0000000000
     51126     17042  TIP3      H2             46.7573733595      -35.2010222861        9.8773303535  W2        17042           0.0000000000
     51127     17043  TIP3      OH2            52.4501333595      -34.9558222861       10.6037803535  W2        17043           0.0000000000
     51128     17043  TIP3      H1             52.5262933595      -34.8606622861        9.6543803535  W2        17043           0.0000000000
     51129     17043  TIP3      H2             52.1750533595      -35.8635322861       10.7326903535  W2        17043           0.0000000000
     51130     17044  TIP3      OH2            53.8033933595      -34.9300422861        6.2962803535  W2        17044           0.0000000000
     51131     17044  TIP3      H1             53.1005033595      -34.3151222861        6.0864203535  W2        17044           0.0000000000
     51132     17044  TIP3      H2             53.3585333595      -35.7673722861        6.4273703535  W2        17044           0.0000000000
     51133     17045  TIP3      OH2            41.0513233595      -19.1664822861        5.8424203535  W2        17045           0.0000000000
     51134     17045  TIP3      H1             40.3663133595      -19.2045922861        5.1749303535  W2        17045           0.0000000000
     51135     17045  TIP3      H2             41.0550433595      -18.2537222861        6.1306303535  W2        17045           0.0000000000
     51136     17046  TIP3      OH2            43.0112833595      -33.1985522861        3.3873203535  W2        17046           0.0000000000
     51137     17046  TIP3      H1             43.5026233595      -33.8283122861        2.8598703535  W2        17046           0.0000000000
     51138     17046  TIP3      H2             43.6349133595      -32.9026122861        4.0504403535  W2        17046           0.0000000000
     51139     17047  TIP3      OH2            48.0372933595      -32.9054022861        5.8443703535  W2        17047           0.0000000000
     51140     17047  TIP3      H1             48.2154233595      -33.5520822861        6.5272303535  W2        17047           0.0000000000
     51141     17047  TIP3      H2             47.9839133595      -32.0716322861        6.3114803535  W2        17047           0.0000000000
     51142     17048  TIP3      OH2            49.9156733595      -17.9569922861        4.2400403535  W2        17048           0.0000000000
     51143     17048  TIP3      H1             50.7816933595      -17.5902522861        4.0618603535  W2        17048           0.0000000000
     51144     17048  TIP3      H2             49.6689533595      -18.3961922861        3.4261203535  W2        17048           0.0000000000
     51145     17049  TIP3      OH2            42.2718333595      -34.3983222861       18.6589203535  W2        17049           0.0000000000
     51146     17049  TIP3      H1             41.9056533595      -35.1640622861       19.1013903535  W2        17049           0.0000000000
     51147     17049  TIP3      H2             43.1846833595      -34.3693022861       18.9454303535  W2        17049           0.0000000000
     51148     17050  TIP3      OH2            44.2449133595      -35.0478822861       20.1946303535  W2        17050           0.0000000000
     51149     17050  TIP3      H1             45.1432733595      -35.3218622861       20.0099703535  W2        17050           0.0000000000
     51150     17050  TIP3      H2             43.8582233595      -35.7902822861       20.6588903535  W2        17050           0.0000000000
     51151     17051  TIP3      OH2            42.8694433595      -18.2464022861        2.8676303535  W2        17051           0.0000000000
     51152     17051  TIP3      H1             42.6019033595      -17.9601122861        3.7409403535  W2        17051           0.0000000000
     51153     17051  TIP3      H2             43.6407033595      -18.7924822861        3.0198803535  W2        17051           0.0000000000
     51154     17052  TIP3      OH2            52.6661433595      -35.7153522861       20.3769103535  W2        17052           0.0000000000
     51155     17052  TIP3      H1             52.7428633595      -36.1412822861       21.2306803535  W2        17052           0.0000000000
     51156     17052  TIP3      H2             53.5598033595      -35.7018822861       20.0342603535  W2        17052           0.0000000000
     51157     17053  TIP3      OH2           -42.8877066405       -6.9002822861        9.1000503535  W2        17053           0.0000000000
     51158     17053  TIP3      H1            -42.7985966405       -5.9564622861        8.9677603535  W2        17053           0.0000000000
     51159     17053  TIP3      H2            -43.5259466405       -7.1756422861        8.4419903535  W2        17053           0.0000000000
     51160     17054  TIP3      OH2           -43.9545766405       -7.6452122861       12.5188703535  W2        17054           0.0000000000
     51161     17054  TIP3      H1            -43.9928266405       -8.2915822861       13.2238303535  W2        17054           0.0000000000
     51162     17054  TIP3      H2            -44.2769266405       -8.1117722861       11.7477403535  W2        17054           0.0000000000
     51163     17055  TIP3      OH2           -51.5860766405       -8.0310022861       14.1118603535  W2        17055           0.0000000000
     51164     17055  TIP3      H1            -51.5448666405       -8.6566722861       14.8351003535  W2        17055           0.0000000000
     51165     17055  TIP3      H2            -50.8833066405       -7.4071422861       14.2939003535  W2        17055           0.0000000000
     51166     17056  TIP3      OH2           -40.2485566405       -4.7061722861       10.8203803535  W2        17056           0.0000000000
     51167     17056  TIP3      H1            -40.6892866405       -5.4265722861       11.2709403535  W2        17056           0.0000000000
     51168     17056  TIP3      H2            -40.2615866405       -3.9854522861       11.4501503535  W2        17056           0.0000000000
     51169     17057  TIP3      OH2           -50.6627666405       -3.5811122861       12.6467703535  W2        17057           0.0000000000
     51170     17057  TIP3      H1            -51.0322466405       -4.3830622861       12.2772003535  W2        17057           0.0000000000
     51171     17057  TIP3      H2            -49.7216566405       -3.7496222861       12.6931103535  W2        17057           0.0000000000
     51172     17058  TIP3      OH2           -54.0527166405       -9.9208522861        8.0396503535  W2        17058           0.0000000000
     51173     17058  TIP3      H1            -54.5003766405       -9.0749822861        8.0213003535  W2        17058           0.0000000000
     51174     17058  TIP3      H2            -54.6135966405      -10.5004322861        7.5241603535  W2        17058           0.0000000000
     51175     17059  TIP3      OH2           -53.3421066405       -7.7588922861       10.1654503535  W2        17059           0.0000000000
     51176     17059  TIP3      H1            -53.1287566405       -8.5287322861       10.6927503535  W2        17059           0.0000000000
     51177     17059  TIP3      H2            -52.6043466405       -7.6692222861        9.5622103535  W2        17059           0.0000000000
     51178     17060  TIP3      OH2           -43.1370066405        0.3979977139       11.0324203535  W2        17060           0.0000000000
     51179     17060  TIP3      H1            -42.5173666405       -0.2785322861       10.7593403535  W2        17060           0.0000000000
     51180     17060  TIP3      H2            -43.3452666405        0.1800777139       11.9409103535  W2        17060           0.0000000000
     51181     17061  TIP3      OH2           -45.5651366405       -5.2130722861       12.9249703535  W2        17061           0.0000000000
     51182     17061  TIP3      H1            -45.2613466405       -5.8989322861       12.3303803535  W2        17061           0.0000000000
     51183     17061  TIP3      H2            -44.8437366405       -5.0942022861       13.5427703535  W2        17061           0.0000000000
     51184     17062  TIP3      OH2           -36.9021566405      -13.6115422861       13.7855903535  W2        17062           0.0000000000
     51185     17062  TIP3      H1            -36.8529366405      -13.0014222861       14.5215003535  W2        17062           0.0000000000
     51186     17062  TIP3      H2            -36.4766466405      -13.1504522861       13.0627003535  W2        17062           0.0000000000
     51187     17063  TIP3      OH2           -42.4244366405      -10.8188322861       13.2524503535  W2        17063           0.0000000000
     51188     17063  TIP3      H1            -42.2818466405      -11.7651322861       13.2726103535  W2        17063           0.0000000000
     51189     17063  TIP3      H2            -42.5305366405      -10.6118522861       12.3239403535  W2        17063           0.0000000000
     51190     17064  TIP3      OH2           -49.2696066405      -12.7171922861       10.5249303535  W2        17064           0.0000000000
     51191     17064  TIP3      H1            -49.2264966405      -11.8573422861       10.1065603535  W2        17064           0.0000000000
     51192     17064  TIP3      H2            -49.7271966405      -13.2697222861        9.8912503535  W2        17064           0.0000000000
     51193     17065  TIP3      OH2           -41.5473366405      -12.5866322861        8.9257603535  W2        17065           0.0000000000
     51194     17065  TIP3      H1            -40.9009066405      -12.9153122861        9.5505203535  W2        17065           0.0000000000
     51195     17065  TIP3      H2            -41.0373966405      -12.0687322861        8.3029003535  W2        17065           0.0000000000
     51196     17066  TIP3      OH2           -52.6494566405      -10.3206122861       11.2870703535  W2        17066           0.0000000000
     51197     17066  TIP3      H1            -51.9957966405      -10.8704422861       11.7190803535  W2        17066           0.0000000000
     51198     17066  TIP3      H2            -52.6255266405      -10.5947122861       10.3702703535  W2        17066           0.0000000000
     51199     17067  TIP3      OH2           -47.4930066405       -8.7704822861       10.5022203535  W2        17067           0.0000000000
     51200     17067  TIP3      H1            -46.8769066405       -9.2969422861       11.0116203535  W2        17067           0.0000000000
     51201     17067  TIP3      H2            -48.0791266405       -9.4106122861       10.0985803535  W2        17067           0.0000000000
     51202     17068  TIP3      OH2           -36.5106966405      -12.1336222861       16.0215703535  W2        17068           0.0000000000
     51203     17068  TIP3      H1            -37.1992366405      -11.4755522861       15.9262303535  W2        17068           0.0000000000
     51204     17068  TIP3      H2            -36.4952366405      -12.3308322861       16.9581103535  W2        17068           0.0000000000
     51205     17069  TIP3      OH2           -50.4594166405      -13.7993522861       14.5990103535  W2        17069           0.0000000000
     51206     17069  TIP3      H1            -50.6782466405      -13.2692922861       13.8326103535  W2        17069           0.0000000000
     51207     17069  TIP3      H2            -51.1273266405      -13.5728022861       15.2461503535  W2        17069           0.0000000000
     51208     17070  TIP3      OH2           -43.0904366405       -4.2992422861        8.1429203535  W2        17070           0.0000000000
     51209     17070  TIP3      H1            -43.3859266405       -4.6220122861        7.2916103535  W2        17070           0.0000000000
     51210     17070  TIP3      H2            -43.4146566405       -3.3995722861        8.1841803535  W2        17070           0.0000000000
     51211     17071  TIP3      OH2           -47.8902766405       -6.1237822861       14.8863803535  W2        17071           0.0000000000
     51212     17071  TIP3      H1            -48.6303666405       -5.5256322861       14.9899003535  W2        17071           0.0000000000
     51213     17071  TIP3      H2            -47.1763266405       -5.5698222861       14.5707403535  W2        17071           0.0000000000
     51214     17072  TIP3      OH2           -39.7834966405      -13.2957022861       10.9063503535  W2        17072           0.0000000000
     51215     17072  TIP3      H1            -39.9986966405      -14.0613622861       11.4389503535  W2        17072           0.0000000000
     51216     17072  TIP3      H2            -39.1277566405      -12.8232422861       11.4192003535  W2        17072           0.0000000000
     51217     17073  TIP3      OH2           -50.8656866405      -11.9071722861       12.5512303535  W2        17073           0.0000000000
     51218     17073  TIP3      H1            -50.2520566405      -11.2744122861       12.9244703535  W2        17073           0.0000000000
     51219     17073  TIP3      H2            -50.3536166405      -12.3796722861       11.8949203535  W2        17073           0.0000000000
     51220     17074  TIP3      OH2           -49.4828466405       -4.1594822861       15.6735303535  W2        17074           0.0000000000
     51221     17074  TIP3      H1            -49.4880866405       -3.2801322861       15.2954603535  W2        17074           0.0000000000
     51222     17074  TIP3      H2            -50.3364366405       -4.2430722861       16.0985203535  W2        17074           0.0000000000
     51223     17075  TIP3      OH2           -53.3617566405       -4.4886922861        6.4554603535  W2        17075           0.0000000000
     51224     17075  TIP3      H1            -53.6336666405       -4.2595922861        5.5667503535  W2        17075           0.0000000000
     51225     17075  TIP3      H2            -53.3161866405       -3.6508122861        6.9159903535  W2        17075           0.0000000000
     51226     17076  TIP3      OH2           -39.7367866405       -2.8671022861       13.1683103535  W2        17076           0.0000000000
     51227     17076  TIP3      H1            -40.6784166405       -2.8087122861       13.3300003535  W2        17076           0.0000000000
     51228     17076  TIP3      H2            -39.4601766405       -1.9610522861       13.0312803535  W2        17076           0.0000000000
     51229     17077  TIP3      OH2           -39.4360866405      -14.5805722861       14.5857003535  W2        17077           0.0000000000
     51230     17077  TIP3      H1            -40.1721666405      -13.9698622861       14.5478303535  W2        17077           0.0000000000
     51231     17077  TIP3      H2            -38.7526866405      -14.1656722861       14.0593403535  W2        17077           0.0000000000
     51232     17078  TIP3      OH2           -46.4329466405      -16.4938422861       12.0515003535  W2        17078           0.0000000000
     51233     17078  TIP3      H1            -46.5505266405      -17.4422422861       11.9973303535  W2        17078           0.0000000000
     51234     17078  TIP3      H2            -47.2879366405      -16.1612322861       12.3246103535  W2        17078           0.0000000000
     51235     17079  TIP3      OH2           -41.4846666405       -1.0857522861        9.7934703535  W2        17079           0.0000000000
     51236     17079  TIP3      H1            -41.0594366405       -1.7929622861        9.3084303535  W2        17079           0.0000000000
     51237     17079  TIP3      H2            -41.1676666405       -0.2844822861        9.3766903535  W2        17079           0.0000000000
     51238     17080  TIP3      OH2           -40.3250166405       -3.1849022861        8.3021303535  W2        17080           0.0000000000
     51239     17080  TIP3      H1            -40.5825366405       -3.8748922861        7.6907203535  W2        17080           0.0000000000
     51240     17080  TIP3      H2            -40.2539366405       -3.6277822861        9.1477203535  W2        17080           0.0000000000
     51241     17081  TIP3      OH2           -38.6389966405       -4.6182322861       16.7794803535  W2        17081           0.0000000000
     51242     17081  TIP3      H1            -38.4993666405       -5.2099822861       16.0401803535  W2        17081           0.0000000000
     51243     17081  TIP3      H2            -38.4717166405       -3.7456422861       16.4233603535  W2        17081           0.0000000000
     51244     17082  TIP3      OH2           -44.1664566405       -7.6562822861        6.5520803535  W2        17082           0.0000000000
     51245     17082  TIP3      H1            -44.8779066405       -7.1213122861        6.2001303535  W2        17082           0.0000000000
     51246     17082  TIP3      H2            -43.4754966405       -7.6010722861        5.8919703535  W2        17082           0.0000000000
     51247     17083  TIP3      OH2           -44.1125366405       -9.1988522861        3.5905803535  W2        17083           0.0000000000
     51248     17083  TIP3      H1            -43.4115466405       -9.1761622861        4.2419803535  W2        17083           0.0000000000
     51249     17083  TIP3      H2            -43.8102466405       -9.8268822861        2.9345103535  W2        17083           0.0000000000
     51250     17084  TIP3      OH2           -36.7970666405       -8.2784322861       14.8455203535  W2        17084           0.0000000000
     51251     17084  TIP3      H1            -37.4496566405       -7.5838722861       14.9346103535  W2        17084           0.0000000000
     51252     17084  TIP3      H2            -36.3320366405       -8.0683422861       14.0356803535  W2        17084           0.0000000000
     51253     17085  TIP3      OH2           -40.7606866405       -7.4469522861        7.5036703535  W2        17085           0.0000000000
     51254     17085  TIP3      H1            -41.4925866405       -7.2185822861        8.0767303535  W2        17085           0.0000000000
     51255     17085  TIP3      H2            -40.3134666405       -8.1606822861        7.9584203535  W2        17085           0.0000000000
     51256     17086  TIP3      OH2           -40.8633366405       -9.2726922861       16.5713703535  W2        17086           0.0000000000
     51257     17086  TIP3      H1            -40.7834266405       -8.5092522861       17.1432203535  W2        17086           0.0000000000
     51258     17086  TIP3      H2            -41.4645666405       -8.9934522861       15.8808803535  W2        17086           0.0000000000
     51259     17087  TIP3      OH2           -49.1153166405       -6.8163322861        9.3861703535  W2        17087           0.0000000000
     51260     17087  TIP3      H1            -49.4457966405       -7.1869922861        8.5678703535  W2        17087           0.0000000000
     51261     17087  TIP3      H2            -48.5269066405       -7.4869322861        9.7330003535  W2        17087           0.0000000000
     51262     17088  TIP3      OH2           -47.7485666405       -3.3882722861       12.0673903535  W2        17088           0.0000000000
     51263     17088  TIP3      H1            -47.8434366405       -3.9669622861       11.3108503535  W2        17088           0.0000000000
     51264     17088  TIP3      H2            -47.0192066405       -3.7597022861       12.5636703535  W2        17088           0.0000000000
     51265     17089  TIP3      OH2           -48.7487666405       -8.0477722861       13.0196703535  W2        17089           0.0000000000
     51266     17089  TIP3      H1            -48.1835166405       -7.9263522861       12.2567903535  W2        17089           0.0000000000
     51267     17089  TIP3      H2            -48.4298766405       -7.4102722861       13.6585203535  W2        17089           0.0000000000
     51268     17090  TIP3      OH2           -42.4395466405       -2.5445822861       13.7537203535  W2        17090           0.0000000000
     51269     17090  TIP3      H1            -42.6798866405       -1.8822722861       14.4016403535  W2        17090           0.0000000000
     51270     17090  TIP3      H2            -42.6377266405       -3.3790622861       14.1786803535  W2        17090           0.0000000000
     51271     17091  TIP3      OH2           -47.8686966405       -3.6485022861       17.7368603535  W2        17091           0.0000000000
     51272     17091  TIP3      H1            -48.1799466405       -2.8661822861       18.1921803535  W2        17091           0.0000000000
     51273     17091  TIP3      H2            -48.5186766405       -3.8015922861       17.0510603535  W2        17091           0.0000000000
     51274     17092  TIP3      OH2           -41.8897366405       -8.2846622861        5.1887903535  W2        17092           0.0000000000
     51275     17092  TIP3      H1            -41.3101866405       -8.1346322861        5.9356803535  W2        17092           0.0000000000
     51276     17092  TIP3      H2            -41.4757366405       -7.8139222861        4.4654303535  W2        17092           0.0000000000
     51277     17093  TIP3      OH2           -50.9487066405       -7.4503922861       16.9654303535  W2        17093           0.0000000000
     51278     17093  TIP3      H1            -50.8783866405       -6.7997122861       17.6639303535  W2        17093           0.0000000000
     51279     17093  TIP3      H2            -51.8394866405       -7.3476422861       16.6305203535  W2        17093           0.0000000000
     51280     17094  TIP3      OH2           -44.1632466405       -1.5478122861        8.6241003535  W2        17094           0.0000000000
     51281     17094  TIP3      H1            -43.6894866405       -1.2521822861        9.4015203535  W2        17094           0.0000000000
     51282     17094  TIP3      H2            -44.7263166405       -0.8096522861        8.3910603535  W2        17094           0.0000000000
     51283     17095  TIP3      OH2           -49.6291066405       -1.5770022861       18.5002403535  W2        17095           0.0000000000
     51284     17095  TIP3      H1            -49.6215766405       -1.7130322861       17.5527903535  W2        17095           0.0000000000
     51285     17095  TIP3      H2            -50.5450666405       -1.6941922861       18.7522403535  W2        17095           0.0000000000
     51286     17096  TIP3      OH2           -38.1908966405      -16.5346222861        5.0017603535  W2        17096           0.0000000000
     51287     17096  TIP3      H1            -39.0908266405      -16.3957222861        5.2968203535  W2        17096           0.0000000000
     51288     17096  TIP3      H2            -37.9390566405      -15.7031622861        4.5999303535  W2        17096           0.0000000000
     51289     17097  TIP3      OH2           -50.1250466405       -7.7469022861        6.9754503535  W2        17097           0.0000000000
     51290     17097  TIP3      H1            -50.4169166405       -6.9787322861        6.4845803535  W2        17097           0.0000000000
     51291     17097  TIP3      H2            -50.7995266405       -8.4062822861        6.8125903535  W2        17097           0.0000000000
     51292     17098  TIP3      OH2           -37.0017566405       -2.1683822861        3.3781503535  W2        17098           0.0000000000
     51293     17098  TIP3      H1            -36.9284066405       -1.2293622861        3.5486803535  W2        17098           0.0000000000
     51294     17098  TIP3      H2            -36.0962466405       -2.4735222861        3.3218803535  W2        17098           0.0000000000
     51295     17099  TIP3      OH2           -54.0320366405       -5.3839822861       15.7904303535  W2        17099           0.0000000000
     51296     17099  TIP3      H1            -54.5331966405       -5.4120422861       14.9754003535  W2        17099           0.0000000000
     51297     17099  TIP3      H2            -54.0266666405       -6.2896622861       16.1001603535  W2        17099           0.0000000000
     51298     17100  TIP3      OH2           -54.2817666405       -2.6036022861       12.6744503535  W2        17100           0.0000000000
     51299     17100  TIP3      H1            -53.3357066405       -2.7479022861       12.6554003535  W2        17100           0.0000000000
     51300     17100  TIP3      H2            -54.3941366405       -1.8193222861       13.2115703535  W2        17100           0.0000000000
     51301     17101  TIP3      OH2           -36.0839166405       -1.9376322861       18.3568203535  W2        17101           0.0000000000
     51302     17101  TIP3      H1            -36.1332366405       -2.8928222861       18.3195803535  W2        17101           0.0000000000
     51303     17101  TIP3      H2            -36.9106866405       -1.6701022861       18.7582003535  W2        17101           0.0000000000
     51304     17102  TIP3      OH2           -45.1055166405       -2.3637122861       17.2329603535  W2        17102           0.0000000000
     51305     17102  TIP3      H1            -45.0180566405       -1.5372522861       17.7078703535  W2        17102           0.0000000000
     51306     17102  TIP3      H2            -45.9690066405       -2.6933322861       17.4818903535  W2        17102           0.0000000000
     51307     17103  TIP3      OH2           -44.6909366405        1.4086577139        7.0390203535  W2        17103           0.0000000000
     51308     17103  TIP3      H1            -44.7663366405        1.2873777139        6.0925403535  W2        17103           0.0000000000
     51309     17103  TIP3      H2            -44.6580666405        2.3579277139        7.1574803535  W2        17103           0.0000000000
     51310     17104  TIP3      OH2           -51.0375566405        0.1973577139        8.8199203535  W2        17104           0.0000000000
     51311     17104  TIP3      H1            -50.8855166405       -0.1506022861        9.6985703535  W2        17104           0.0000000000
     51312     17104  TIP3      H2            -51.8885166405       -0.1589122861        8.5646403535  W2        17104           0.0000000000
     51313     17105  TIP3      OH2           -41.5893366405        0.5626777139        4.0412603535  W2        17105           0.0000000000
     51314     17105  TIP3      H1            -41.2144966405       -0.1817122861        3.5705203535  W2        17105           0.0000000000
     51315     17105  TIP3      H2            -41.5849666405        0.2927377139        4.9595903535  W2        17105           0.0000000000
     51316     17106  TIP3      OH2           -41.9205266405        0.4883877139        6.7904803535  W2        17106           0.0000000000
     51317     17106  TIP3      H1            -42.8555466405        0.5885777139        6.9691803535  W2        17106           0.0000000000
     51318     17106  TIP3      H2            -41.6403366405       -0.2210122861        7.3688003535  W2        17106           0.0000000000
     51319     17107  TIP3      OH2           -38.9319366405      -10.4443822861       18.8370403535  W2        17107           0.0000000000
     51320     17107  TIP3      H1            -39.3392566405       -9.9638222861       18.1163703535  W2        17107           0.0000000000
     51321     17107  TIP3      H2            -38.8913666405      -11.3497822861       18.5291203535  W2        17107           0.0000000000
     51322     17108  TIP3      OH2           -51.7829866405       -4.0604422861       16.8337103535  W2        17108           0.0000000000
     51323     17108  TIP3      H1            -51.5668566405       -4.4218822861       17.6932903535  W2        17108           0.0000000000
     51324     17108  TIP3      H2            -52.6385166405       -4.4350622861       16.6240603535  W2        17108           0.0000000000
     51325     17109  TIP3      OH2           -49.1641866405      -15.5903922861       12.8291303535  W2        17109           0.0000000000
     51326     17109  TIP3      H1            -50.0258166405      -15.6775722861       12.4214203535  W2        17109           0.0000000000
     51327     17109  TIP3      H2            -49.1866166405      -14.7343822861       13.2568903535  W2        17109           0.0000000000
     51328     17110  TIP3      OH2           -44.5014066405      -15.8683522861       16.2038303535  W2        17110           0.0000000000
     51329     17110  TIP3      H1            -44.0810966405      -16.2836422861       16.9568903535  W2        17110           0.0000000000
     51330     17110  TIP3      H2            -45.4344466405      -16.0470222861       16.3210303535  W2        17110           0.0000000000
     51331     17111  TIP3      OH2           -41.1749166405      -12.1128322861       17.0572803535  W2        17111           0.0000000000
     51332     17111  TIP3      H1            -41.6889666405      -12.2386122861       17.8548803535  W2        17111           0.0000000000
     51333     17111  TIP3      H2            -41.3304466405      -11.2005222861       16.8129003535  W2        17111           0.0000000000
     51334     17112  TIP3      OH2           -40.4124266405       -7.2518322861        2.8185803535  W2        17112           0.0000000000
     51335     17112  TIP3      H1            -40.3703466405       -7.4744422861        1.8885803535  W2        17112           0.0000000000
     51336     17112  TIP3      H2            -39.5632166405       -6.8531222861        3.0085703535  W2        17112           0.0000000000
     51337     17113  TIP3      OH2           -44.8396766405      -13.3760122861        3.4889103535  W2        17113           0.0000000000
     51338     17113  TIP3      H1            -45.0931966405      -13.3568522861        4.4117203535  W2        17113           0.0000000000
     51339     17113  TIP3      H2            -45.0964666405      -14.2474722861        3.1875303535  W2        17113           0.0000000000
     51340     17114  TIP3      OH2           -49.0731766405      -10.6249422861       13.9241503535  W2        17114           0.0000000000
     51341     17114  TIP3      H1            -49.7149666405      -10.6652122861       14.6331603535  W2        17114           0.0000000000
     51342     17114  TIP3      H2            -49.0359766405       -9.6984722861       13.6864503535  W2        17114           0.0000000000
     51343     17115  TIP3      OH2           -49.0762666405      -10.4039322861        8.8361503535  W2        17115           0.0000000000
     51344     17115  TIP3      H1            -49.9689766405      -10.7443222861        8.7775303535  W2        17115           0.0000000000
     51345     17115  TIP3      H2            -48.6256066405      -10.7808422861        8.0804703535  W2        17115           0.0000000000
     51346     17116  TIP3      OH2           -43.5407166405       -9.9879022861        7.6532303535  W2        17116           0.0000000000
     51347     17116  TIP3      H1            -43.9496866405       -9.1730422861        7.3617103535  W2        17116           0.0000000000
     51348     17116  TIP3      H2            -42.8200966405      -10.1278922861        7.0389403535  W2        17116           0.0000000000
     51349     17117  TIP3      OH2           -44.4385566405       -9.8122622861       19.1413003535  W2        17117           0.0000000000
     51350     17117  TIP3      H1            -45.0011766405      -10.5171022861       19.4620803535  W2        17117           0.0000000000
     51351     17117  TIP3      H2            -43.6122166405       -9.9330722861       19.6090603535  W2        17117           0.0000000000
     51352     17118  TIP3      OH2           -42.5359466405      -10.5418622861       10.4672003535  W2        17118           0.0000000000
     51353     17118  TIP3      H1            -42.7314966405       -9.9361822861        9.7522603535  W2        17118           0.0000000000
     51354     17118  TIP3      H2            -42.3546866405      -11.3753422861       10.0328303535  W2        17118           0.0000000000
     51355     17119  TIP3      OH2           -51.3231266405      -10.3045922861       15.7913503535  W2        17119           0.0000000000
     51356     17119  TIP3      H1            -51.3611866405       -9.9044322861       16.6600603535  W2        17119           0.0000000000
     51357     17119  TIP3      H2            -51.8140166405      -11.1213522861       15.8816403535  W2        17119           0.0000000000
     51358     17120  TIP3      OH2           -47.9573866405      -12.9303622861        2.5899503535  W2        17120           0.0000000000
     51359     17120  TIP3      H1            -48.3883166405      -13.3753522861        3.3196903535  W2        17120           0.0000000000
     51360     17120  TIP3      H2            -48.6755166405      -12.5587322861        2.0777003535  W2        17120           0.0000000000
     51361     17121  TIP3      OH2           -54.7150466405      -13.1884122861        9.6418203535  W2        17121           0.0000000000
     51362     17121  TIP3      H1            -54.0842766405      -13.2172022861       10.3612103535  W2        17121           0.0000000000
     51363     17121  TIP3      H2            -54.2656166405      -13.6135422861        8.9114103535  W2        17121           0.0000000000
     51364     17122  TIP3      OH2           -53.4408366405      -12.4422122861        5.0658603535  W2        17122           0.0000000000
     51365     17122  TIP3      H1            -52.9666666405      -11.8512222861        4.4809503535  W2        17122           0.0000000000
     51366     17122  TIP3      H2            -54.1581966405      -11.9119222861        5.4128703535  W2        17122           0.0000000000
     51367     17123  TIP3      OH2           -43.2720266405       -8.9037322861       15.1384403535  W2        17123           0.0000000000
     51368     17123  TIP3      H1            -42.9485466405       -9.5347622861       14.4954903535  W2        17123           0.0000000000
     51369     17123  TIP3      H2            -43.7120966405       -9.4385122861       15.7991803535  W2        17123           0.0000000000
     51370     17124  TIP3      OH2           -46.4947366405      -12.9761822861        9.9225603535  W2        17124           0.0000000000
     51371     17124  TIP3      H1            -47.4056266405      -12.9195022861       10.2111603535  W2        17124           0.0000000000
     51372     17124  TIP3      H2            -45.9894466405      -13.0366322861       10.7332803535  W2        17124           0.0000000000
     51373     17125  TIP3      OH2           -51.6663966405      -11.3475522861        8.7493203535  W2        17125           0.0000000000
     51374     17125  TIP3      H1            -52.5555966405      -11.2480022861        8.4092803535  W2        17125           0.0000000000
     51375     17125  TIP3      H2            -51.3699066405      -12.1892522861        8.4031103535  W2        17125           0.0000000000
     51376     17126  TIP3      OH2           -48.0132166405      -11.3472922861        6.4057803535  W2        17126           0.0000000000
     51377     17126  TIP3      H1            -47.0816666405      -11.2182922861        6.5840903535  W2        17126           0.0000000000
     51378     17126  TIP3      H2            -48.2281866405      -10.6778622861        5.7562503535  W2        17126           0.0000000000
     51379     17127  TIP3      OH2           -42.0895466405      -13.7415522861       13.1867403535  W2        17127           0.0000000000
     51380     17127  TIP3      H1            -42.7663866405      -13.6102422861       13.8507103535  W2        17127           0.0000000000
     51381     17127  TIP3      H2            -42.5750566405      -13.8966022861       12.3765103535  W2        17127           0.0000000000
     51382     17128  TIP3      OH2           -49.3391966405      -10.1530722861        3.9723903535  W2        17128           0.0000000000
     51383     17128  TIP3      H1            -49.8816866405      -10.5326922861        3.2811503535  W2        17128           0.0000000000
     51384     17128  TIP3      H2            -48.5057066405       -9.9586022861        3.5438003535  W2        17128           0.0000000000
     51385     17129  TIP3      OH2           -38.8020366405        1.9299877139       19.4635003535  W2        17129           0.0000000000
     51386     17129  TIP3      H1            -38.6021666405        2.3541777139       18.6290303535  W2        17129           0.0000000000
     51387     17129  TIP3      H2            -38.1466666405        2.2738077139       20.0705403535  W2        17129           0.0000000000
     51388     17130  TIP3      OH2           -51.2040566405       -5.5958822861       19.0715503535  W2        17130           0.0000000000
     51389     17130  TIP3      H1            -50.4718166405       -5.3412922861       19.6330003535  W2        17130           0.0000000000
     51390     17130  TIP3      H2            -51.9841866405       -5.3913422861       19.5870903535  W2        17130           0.0000000000
     51391     17131  TIP3      OH2           -45.1747666405      -10.1888822861       11.8095203535  W2        17131           0.0000000000
     51392     17131  TIP3      H1            -44.6104266405      -10.7352222861       11.2624803535  W2        17131           0.0000000000
     51393     17131  TIP3      H2            -45.3224266405      -10.7106922861       12.5982803535  W2        17131           0.0000000000
     51394     17132  TIP3      OH2           -50.1727966405      -14.0522722861        8.2280003535  W2        17132           0.0000000000
     51395     17132  TIP3      H1            -50.4898466405      -14.9547422861        8.1925403535  W2        17132           0.0000000000
     51396     17132  TIP3      H2            -49.3913866405      -14.0505322861        7.6751603535  W2        17132           0.0000000000
     51397     17133  TIP3      OH2           -46.5481766405      -11.8002722861       14.2235603535  W2        17133           0.0000000000
     51398     17133  TIP3      H1            -47.3836466405      -11.3463222861       14.3338003535  W2        17133           0.0000000000
     51399     17133  TIP3      H2            -46.0241166405      -11.5244222861       14.9755503535  W2        17133           0.0000000000
     51400     17134  TIP3      OH2           -46.0039166405       -5.5875022861        5.9082003535  W2        17134           0.0000000000
     51401     17134  TIP3      H1            -46.7488166405       -6.0949722861        5.5859903535  W2        17134           0.0000000000
     51402     17134  TIP3      H2            -46.1381966405       -5.5387022861        6.8546803535  W2        17134           0.0000000000
     51403     17135  TIP3      OH2           -38.8540266405       -6.4546822861       14.6949603535  W2        17135           0.0000000000
     51404     17135  TIP3      H1            -38.2121466405       -5.9980522861       14.1511803535  W2        17135           0.0000000000
     51405     17135  TIP3      H2            -39.6843366405       -6.3414422861       14.2323703535  W2        17135           0.0000000000
     51406     17136  TIP3      OH2           -42.1062366405      -12.7735122861        4.1074603535  W2        17136           0.0000000000
     51407     17136  TIP3      H1            -43.0448166405      -12.6619522861        3.9563403535  W2        17136           0.0000000000
     51408     17136  TIP3      H2            -41.8090266405      -11.9168222861        4.4140303535  W2        17136           0.0000000000
     51409     17137  TIP3      OH2           -44.4847066405       -5.4031722861       17.1451103535  W2        17137           0.0000000000
     51410     17137  TIP3      H1            -44.8300966405       -5.7849322861       17.9520703535  W2        17137           0.0000000000
     51411     17137  TIP3      H2            -44.6846966405       -4.4698122861       17.2164003535  W2        17137           0.0000000000
     51412     17138  TIP3      OH2           -41.3878866405      -10.9062422861        5.7682003535  W2        17138           0.0000000000
     51413     17138  TIP3      H1            -40.4959866405      -11.0437422861        6.0873203535  W2        17138           0.0000000000
     51414     17138  TIP3      H2            -41.3315266405      -10.1156322861        5.2315503535  W2        17138           0.0000000000
     51415     17139  TIP3      OH2           -50.8790866405       -6.2925022861       11.6779903535  W2        17139           0.0000000000
     51416     17139  TIP3      H1            -50.1343666405       -6.2949322861       11.0766403535  W2        17139           0.0000000000
     51417     17139  TIP3      H2            -50.8014266405       -7.1161222861       12.1595003535  W2        17139           0.0000000000
     51418     17140  TIP3      OH2           -43.8785066405       -4.1290722861        4.9336603535  W2        17140           0.0000000000
     51419     17140  TIP3      H1            -44.1736666405       -3.3022822861        5.3151403535  W2        17140           0.0000000000
     51420     17140  TIP3      H2            -44.5815066405       -4.7483822861        5.1298003535  W2        17140           0.0000000000
     51421     17141  TIP3      OH2           -53.8711166405       -7.8318122861       16.9928403535  W2        17141           0.0000000000
     51422     17141  TIP3      H1            -53.6482566405       -8.2498522861       17.8245903535  W2        17141           0.0000000000
     51423     17141  TIP3      H2            -54.4731066405       -8.4443122861       16.5701203535  W2        17141           0.0000000000
     51424     17142  TIP3      OH2           -46.8546266405       -8.3148222861       19.2058103535  W2        17142           0.0000000000
     51425     17142  TIP3      H1            -47.1505466405       -8.4805222861       18.3107203535  W2        17142           0.0000000000
     51426     17142  TIP3      H2            -45.9231066405       -8.5347922861       19.1952003535  W2        17142           0.0000000000
     51427     17143  TIP3      OH2           -42.2343466405       -2.9416222861       17.0956103535  W2        17143           0.0000000000
     51428     17143  TIP3      H1            -43.1349166405       -2.7583622861       16.8280003535  W2        17143           0.0000000000
     51429     17143  TIP3      H2            -42.2002366405       -2.6826922861       18.0164903535  W2        17143           0.0000000000
     51430     17144  TIP3      OH2           -36.5030166405      -10.6968322861        5.4628703535  W2        17144           0.0000000000
     51431     17144  TIP3      H1            -37.0573866405      -11.0930322861        4.7906203535  W2        17144           0.0000000000
     51432     17144  TIP3      H2            -36.4026566405       -9.7863122861        5.1852003535  W2        17144           0.0000000000
     51433     17145  TIP3      OH2           -36.5398166405       -4.8966622861       18.3000203535  W2        17145           0.0000000000
     51434     17145  TIP3      H1            -37.3909666405       -4.6582822861       17.9326603535  W2        17145           0.0000000000
     51435     17145  TIP3      H2            -35.9494766405       -4.9133422861       17.5467303535  W2        17145           0.0000000000
     51436     17146  TIP3      OH2           -38.2078466405       -1.9107922861        5.9280803535  W2        17146           0.0000000000
     51437     17146  TIP3      H1            -38.5807366405       -2.7364122861        6.2371403535  W2        17146           0.0000000000
     51438     17146  TIP3      H2            -37.9304966405       -2.0938522861        5.0304203535  W2        17146           0.0000000000
     51439     17147  TIP3      OH2           -41.0474566405       -7.1028422861       12.9492703535  W2        17147           0.0000000000
     51440     17147  TIP3      H1            -41.9757666405       -7.3346522861       12.9222003535  W2        17147           0.0000000000
     51441     17147  TIP3      H2            -40.5963466405       -7.8798622861       12.6191503535  W2        17147           0.0000000000
     51442     17148  TIP3      OH2           -48.5041466405       -2.7746822861        9.0821403535  W2        17148           0.0000000000
     51443     17148  TIP3      H1            -47.9769266405       -2.0012422861        8.8820203535  W2        17148           0.0000000000
     51444     17148  TIP3      H2            -49.3842966405       -2.5497622861        8.7805403535  W2        17148           0.0000000000
     51445     17149  TIP3      OH2           -52.7493766405       -7.9122722861        3.6693803535  W2        17149           0.0000000000
     51446     17149  TIP3      H1            -52.1333866405       -7.2855522861        4.0488603535  W2        17149           0.0000000000
     51447     17149  TIP3      H2            -53.6111166405       -7.5962922861        3.9410303535  W2        17149           0.0000000000
     51448     17150  TIP3      OH2           -47.0769166405       -5.1116922861        8.6585703535  W2        17150           0.0000000000
     51449     17150  TIP3      H1            -47.3179166405       -4.1862522861        8.7001003535  W2        17150           0.0000000000
     51450     17150  TIP3      H2            -47.8175566405       -5.5705622861        9.0549603535  W2        17150           0.0000000000
     51451     17151  TIP3      OH2           -46.5622566405       -0.9623322861       14.9736803535  W2        17151           0.0000000000
     51452     17151  TIP3      H1            -46.1997866405       -0.1077722861       14.7401203535  W2        17151           0.0000000000
     51453     17151  TIP3      H2            -46.0307366405       -1.2541722861       15.7143103535  W2        17151           0.0000000000
     51454     17152  TIP3      OH2           -48.3938366405       -0.0899322861        8.2037903535  W2        17152           0.0000000000
     51455     17152  TIP3      H1            -49.3437866405        0.0158077139        8.2551203535  W2        17152           0.0000000000
     51456     17152  TIP3      H2            -48.0420266405        0.7308077139        8.5485403535  W2        17152           0.0000000000
     51457     17153  TIP3      OH2           -43.0181766405       -4.8632622861       14.6742403535  W2        17153           0.0000000000
     51458     17153  TIP3      H1            -43.4440466405       -5.0910922861       15.5006403535  W2        17153           0.0000000000
     51459     17153  TIP3      H2            -42.4375966405       -5.6020822861       14.4917703535  W2        17153           0.0000000000
     51460     17154  TIP3      OH2           -40.8152866405       -3.9342122861        3.7481403535  W2        17154           0.0000000000
     51461     17154  TIP3      H1            -40.4619766405       -4.3142322861        4.5524903535  W2        17154           0.0000000000
     51462     17154  TIP3      H2            -41.7639366405       -4.0277322861        3.8350703535  W2        17154           0.0000000000
     51463     17155  TIP3      OH2           -40.3597566405       -0.3113122861       17.1437203535  W2        17155           0.0000000000
     51464     17155  TIP3      H1            -40.9614366405       -0.8670222861       16.6483503535  W2        17155           0.0000000000
     51465     17155  TIP3      H2            -40.0783866405        0.3556677139       16.5174603535  W2        17155           0.0000000000
     51466     17156  TIP3      OH2           -36.3118466405        0.5450377139        3.9491603535  W2        17156           0.0000000000
     51467     17156  TIP3      H1            -35.5680566405        1.1310877139        3.8093203535  W2        17156           0.0000000000
     51468     17156  TIP3      H2            -37.0060366405        1.1136177139        4.2824003535  W2        17156           0.0000000000
     51469     17157  TIP3      OH2           -52.2371666405      -13.0785422861       16.5509803535  W2        17157           0.0000000000
     51470     17157  TIP3      H1            -53.1299366405      -12.7400022861       16.4833803535  W2        17157           0.0000000000
     51471     17157  TIP3      H2            -52.3358866405      -13.9339322861       16.9690603535  W2        17157           0.0000000000
     51472     17158  TIP3      OH2           -39.9493566405       -5.2620122861        5.9749303535  W2        17158           0.0000000000
     51473     17158  TIP3      H1            -40.2265966405       -5.9900822861        6.5310403535  W2        17158           0.0000000000
     51474     17158  TIP3      H2            -39.0220566405       -5.1428122861        6.1801903535  W2        17158           0.0000000000
     51475     17159  TIP3      OH2           -52.5859666405       -1.2741022861       14.9859203535  W2        17159           0.0000000000
     51476     17159  TIP3      H1            -52.3689366405       -2.2058622861       14.9548903535  W2        17159           0.0000000000
     51477     17159  TIP3      H2            -52.3396166405       -0.9996022861       15.8692003535  W2        17159           0.0000000000
     51478     17160  TIP3      OH2           -46.7245066405       -2.8226022861        2.1951403535  W2        17160           0.0000000000
     51479     17160  TIP3      H1            -46.4855266405       -3.5707922861        1.6480303535  W2        17160           0.0000000000
     51480     17160  TIP3      H2            -46.9933766405       -3.2104322861        3.0279203535  W2        17160           0.0000000000
     51481     17161  TIP3      OH2           -47.7874466405       -3.2522222861        4.6514003535  W2        17161           0.0000000000
     51482     17161  TIP3      H1            -47.6406466405       -3.7722422861        5.4414903535  W2        17161           0.0000000000
     51483     17161  TIP3      H2            -47.7902766405       -2.3454622861        4.9579903535  W2        17161           0.0000000000
     51484     17162  TIP3      OH2           -51.3343366405       -5.9998922861        5.1619403535  W2        17162           0.0000000000
     51485     17162  TIP3      H1            -52.0204066405       -5.6476422861        5.7289103535  W2        17162           0.0000000000
     51486     17162  TIP3      H2            -50.8115466405       -5.2369322861        4.9153703535  W2        17162           0.0000000000
     51487     17163  TIP3      OH2           -43.5028266405      -13.3375122861       15.4408403535  W2        17163           0.0000000000
     51488     17163  TIP3      H1            -42.8040366405      -13.2636422861       16.0908103535  W2        17163           0.0000000000
     51489     17163  TIP3      H2            -43.8836866405      -14.2020122861       15.5951303535  W2        17163           0.0000000000
     51490     17164  TIP3      OH2           -42.7183366405      -13.6853422861        6.5380703535  W2        17164           0.0000000000
     51491     17164  TIP3      H1            -42.4985066405      -13.2138022861        5.7346103535  W2        17164           0.0000000000
     51492     17164  TIP3      H2            -42.1599366405      -13.2910822861        7.2081303535  W2        17164           0.0000000000
     51493     17165  TIP3      OH2           -45.0497266405       -1.5548622861        5.4008203535  W2        17165           0.0000000000
     51494     17165  TIP3      H1            -45.8661166405       -1.0578922861        5.4532503535  W2        17165           0.0000000000
     51495     17165  TIP3      H2            -44.5200966405       -1.0795122861        4.7607003535  W2        17165           0.0000000000
     51496     17166  TIP3      OH2           -45.5183466405      -11.9574622861        7.3729103535  W2        17166           0.0000000000
     51497     17166  TIP3      H1            -44.7060866405      -11.4531422861        7.4190803535  W2        17166           0.0000000000
     51498     17166  TIP3      H2            -45.7630466405      -12.1024922861        8.2868703535  W2        17166           0.0000000000
     51499     17167  TIP3      OH2           -44.9827066405      -10.9711922861       16.5575703535  W2        17167           0.0000000000
     51500     17167  TIP3      H1            -44.8636766405      -10.3976522861       17.3146103535  W2        17167           0.0000000000
     51501     17167  TIP3      H2            -44.3272466405      -11.6592522861       16.6723503535  W2        17167           0.0000000000
     51502     17168  TIP3      OH2           -44.6346766405      -14.8761622861        8.3110203535  W2        17168           0.0000000000
     51503     17168  TIP3      H1            -44.9813266405      -14.2591022861        8.9554503535  W2        17168           0.0000000000
     51504     17168  TIP3      H2            -43.9759866405      -14.3755922861        7.8295703535  W2        17168           0.0000000000
     51505     17169  TIP3      OH2           -47.7114166405       -0.5111422861        5.3825103535  W2        17169           0.0000000000
     51506     17169  TIP3      H1            -47.5505466405        0.2886077139        4.8817703535  W2        17169           0.0000000000
     51507     17169  TIP3      H2            -47.9086366405       -0.2045422861        6.2675703535  W2        17169           0.0000000000
     51508     17170  TIP3      OH2           -48.9769766405      -13.8132222861        4.9982703535  W2        17170           0.0000000000
     51509     17170  TIP3      H1            -49.0604966405      -12.9249122861        5.3449103535  W2        17170           0.0000000000
     51510     17170  TIP3      H2            -48.0869466405      -14.0785522861        5.2299503535  W2        17170           0.0000000000
     51511     17171  TIP3      OH2           -38.7781266405      -13.0641622861       17.3925403535  W2        17171           0.0000000000
     51512     17171  TIP3      H1            -39.6945466405      -12.8019922861       17.3049103535  W2        17171           0.0000000000
     51513     17171  TIP3      H2            -38.4426266405      -13.0672622861       16.4960703535  W2        17171           0.0000000000
     51514     17172  TIP3      OH2           -40.1760266405       -9.3140622861       11.4882703535  W2        17172           0.0000000000
     51515     17172  TIP3      H1            -40.9735866405       -9.7290422861       11.1597703535  W2        17172           0.0000000000
     51516     17172  TIP3      H2            -39.7309166405      -10.0046922861       11.9793203535  W2        17172           0.0000000000
     51517     17173  TIP3      OH2           -50.7184466405       -3.3860022861        4.0587203535  W2        17173           0.0000000000
     51518     17173  TIP3      H1            -50.1262966405       -2.6865222861        4.3349603535  W2        17173           0.0000000000
     51519     17173  TIP3      H2            -50.2591466405       -3.8190522861        3.3391803535  W2        17173           0.0000000000
     51520     17174  TIP3      OH2           -52.4025266405      -10.7217022861        3.1746603535  W2        17174           0.0000000000
     51521     17174  TIP3      H1            -52.4472666405       -9.7823922861        3.3533603535  W2        17174           0.0000000000
     51522     17174  TIP3      H2            -53.2902066405      -10.9572122861        2.9048703535  W2        17174           0.0000000000
     51523     17175  TIP3      OH2           -39.0895666405       -0.0578122861       13.1106203535  W2        17175           0.0000000000
     51524     17175  TIP3      H1            -39.2451366405        0.6206277139       12.4535503535  W2        17175           0.0000000000
     51525     17175  TIP3      H2            -38.1569266405        0.0141177139       13.3136803535  W2        17175           0.0000000000
     51526     17176  TIP3      OH2           -51.5943266405      -15.9400422861       11.8477603535  W2        17176           0.0000000000
     51527     17176  TIP3      H1            -51.8233466405      -15.8807922861       10.9202603535  W2        17176           0.0000000000
     51528     17176  TIP3      H2            -52.0369866405      -16.7314922861       12.1541703535  W2        17176           0.0000000000
     51529     17177  TIP3      OH2           -52.6639966405       -1.9993322861        8.0083403535  W2        17177           0.0000000000
     51530     17177  TIP3      H1            -53.4961366405       -1.5270622861        8.0354803535  W2        17177           0.0000000000
     51531     17177  TIP3      H2            -52.1181666405       -1.4895722861        7.4096503535  W2        17177           0.0000000000
     51532     17178  TIP3      OH2           -53.3756266405        0.6130377139       19.3381403535  W2        17178           0.0000000000
     51533     17178  TIP3      H1            -52.8354066405        0.3964377139       20.0980603535  W2        17178           0.0000000000
     51534     17178  TIP3      H2            -53.8568266405       -0.1923622861       19.1483903535  W2        17178           0.0000000000
     51535     17179  TIP3      OH2           -48.7782866405       -0.4675222861       20.9585603535  W2        17179           0.0000000000
     51536     17179  TIP3      H1            -48.0105666405       -0.9264422861       21.2994803535  W2        17179           0.0000000000
     51537     17179  TIP3      H2            -48.7996666405       -0.6935422861       20.0286803535  W2        17179           0.0000000000
     51538     17180  TIP3      OH2           -44.6863266405       -0.9594622861        2.3337403535  W2        17180           0.0000000000
     51539     17180  TIP3      H1            -45.3302266405       -1.5906022861        2.6551103535  W2        17180           0.0000000000
     51540     17180  TIP3      H2            -43.9244966405       -1.4906622861        2.1020903535  W2        17180           0.0000000000
     51541     17181  TIP3      OH2           -42.2014166405       -2.0874122861       19.6877103535  W2        17181           0.0000000000
     51542     17181  TIP3      H1            -42.5524666405       -2.9441122861       19.9307503535  W2        17181           0.0000000000
     51543     17181  TIP3      H2            -41.4750966405       -1.9447422861       20.2946103535  W2        17181           0.0000000000
     51544     17182  TIP3      OH2           -40.0820366405       -1.1424722861        2.5675403535  W2        17182           0.0000000000
     51545     17182  TIP3      H1            -39.7989966405       -1.9369522861        3.0202303535  W2        17182           0.0000000000
     51546     17182  TIP3      H2            -39.3422466405       -0.9093722861        2.0066503535  W2        17182           0.0000000000
     51547     17183  TIP3      OH2           -53.4686766405       -5.5765522861       20.2925703535  W2        17183           0.0000000000
     51548     17183  TIP3      H1            -53.3246266405       -6.4784822861       20.0062403535  W2        17183           0.0000000000
     51549     17183  TIP3      H2            -54.2409366405       -5.2903422861       19.8048003535  W2        17183           0.0000000000
     51550     17184  TIP3      OH2           -49.1273066405       -5.2329822861        2.4250303535  W2        17184           0.0000000000
     51551     17184  TIP3      H1            -49.0628966405       -6.0270222861        2.9556703535  W2        17184           0.0000000000
     51552     17184  TIP3      H2            -48.4743866405       -5.3517022861        1.7352303535  W2        17184           0.0000000000
     51553     17185  TIP3      OH2           -46.8130666405       -5.6067422861       19.7252103535  W2        17185           0.0000000000
     51554     17185  TIP3      H1            -47.1416866405       -5.3359322861       18.8679503535  W2        17185           0.0000000000
     51555     17185  TIP3      H2            -46.6612466405       -6.5477622861       19.6377103535  W2        17185           0.0000000000
     51556     17186  TIP3      OH2           -43.7749666405       -4.1858122861        2.1608303535  W2        17186           0.0000000000
     51557     17186  TIP3      H1            -44.0435566405       -4.0056022861        3.0617203535  W2        17186           0.0000000000
     51558     17186  TIP3      H2            -43.9814066405       -5.1111922861        2.0294103535  W2        17186           0.0000000000
     51559     17187  TIP3      OH2           -41.0785466405       -5.6910122861       17.1084403535  W2        17187           0.0000000000
     51560     17187  TIP3      H1            -40.3330666405       -5.1026422861       16.9888403535  W2        17187           0.0000000000
     51561     17187  TIP3      H2            -41.8358666405       -5.1090422861       17.1717503535  W2        17187           0.0000000000
     51562     17188  TIP3      OH2           -52.6360266405       -8.3762222861       19.7125003535  W2        17188           0.0000000000
     51563     17188  TIP3      H1            -52.2279066405       -9.2335622861       19.5915603535  W2        17188           0.0000000000
     51564     17188  TIP3      H2            -52.8962666405       -8.3620922861       20.6335303535  W2        17188           0.0000000000
     51565     17189  TIP3      OH2           -47.9779266405       -7.2603622861        4.7308303535  W2        17189           0.0000000000
     51566     17189  TIP3      H1            -48.4377266405       -7.7445322861        5.4166803535  W2        17189           0.0000000000
     51567     17189  TIP3      H2            -47.7230566405       -7.9288222861        4.0948803535  W2        17189           0.0000000000
     51568     17190  TIP3      OH2           -48.6889966405       -9.3676522861       17.0867903535  W2        17190           0.0000000000
     51569     17190  TIP3      H1            -49.3073866405       -8.6929922861       17.3672603535  W2        17190           0.0000000000
     51570     17190  TIP3      H2            -48.3448766405       -9.0462622861       16.2534103535  W2        17190           0.0000000000
     51571     17191  TIP3      OH2           -46.9068866405       -9.0171822861        2.9931503535  W2        17191           0.0000000000
     51572     17191  TIP3      H1            -47.0873866405       -9.1720622861        2.0659803535  W2        17191           0.0000000000
     51573     17191  TIP3      H2            -45.9568366405       -8.9093122861        3.0379403535  W2        17191           0.0000000000
     51574     17192  TIP3      OH2           -43.6691766405       -6.8961222861       20.3642703535  W2        17192           0.0000000000
     51575     17192  TIP3      H1            -42.7160566405       -6.8122122861       20.3368703535  W2        17192           0.0000000000
     51576     17192  TIP3      H2            -43.8297166405       -7.6079422861       20.9837603535  W2        17192           0.0000000000
     51577     17193  TIP3      OH2           -37.5170566405       -6.6627622861        2.4389603535  W2        17193           0.0000000000
     51578     17193  TIP3      H1            -37.7905766405       -7.0872122861        1.6257903535  W2        17193           0.0000000000
     51579     17193  TIP3      H2            -37.4776466405       -5.7313122861        2.2220003535  W2        17193           0.0000000000
     51580     17194  TIP3      OH2           -48.3496266405      -12.0125722861       18.1691003535  W2        17194           0.0000000000
     51581     17194  TIP3      H1            -48.1995366405      -12.7414422861       17.5670703535  W2        17194           0.0000000000
     51582     17194  TIP3      H2            -48.3473866405      -11.2354022861       17.6103203535  W2        17194           0.0000000000
     51583     17195  TIP3      OH2           -47.9370566405      -13.6429922861       15.6618403535  W2        17195           0.0000000000
     51584     17195  TIP3      H1            -47.4013066405      -13.1913222861       15.0097703535  W2        17195           0.0000000000
     51585     17195  TIP3      H2            -48.7890966405      -13.7510122861       15.2392503535  W2        17195           0.0000000000
     51586     17196  TIP3      OH2           -46.3552166405       -8.2033722861       15.9013603535  W2        17196           0.0000000000
     51587     17196  TIP3      H1            -45.6047366405       -8.3596222861       15.3281403535  W2        17196           0.0000000000
     51588     17196  TIP3      H2            -46.6943866405       -7.3517122861       15.6259103535  W2        17196           0.0000000000
     51589     17197  TIP3      OH2           -41.9395966405      -10.3881922861       20.9298903535  W2        17197           0.0000000000
     51590     17197  TIP3      H1            -41.7474666405      -11.3192522861       20.8183403535  W2        17197           0.0000000000
     51591     17197  TIP3      H2            -41.0819666405       -9.9632422861       20.9194303535  W2        17197           0.0000000000
     51592     17198  TIP3      OH2           -40.6228766405       -7.5996722861       19.0071603535  W2        17198           0.0000000000
     51593     17198  TIP3      H1            -40.9043766405       -6.8902122861       18.4295403535  W2        17198           0.0000000000
     51594     17198  TIP3      H2            -39.6804466405       -7.6723722861       18.8562803535  W2        17198           0.0000000000
     51595     17199  TIP3      OH2           -49.8709966405      -10.8142222861       20.0806603535  W2        17199           0.0000000000
     51596     17199  TIP3      H1            -50.6380966405      -11.3467422861       19.8704203535  W2        17199           0.0000000000
     51597     17199  TIP3      H2            -49.1920966405      -11.1241822861       19.4812903535  W2        17199           0.0000000000
     51598     17200  TIP3      OH2           -47.1315066405      -16.1864222861       16.0932003535  W2        17200           0.0000000000
     51599     17200  TIP3      H1            -47.2295466405      -15.2401022861       15.9878203535  W2        17200           0.0000000000
     51600     17200  TIP3      H2            -47.8738866405      -16.5590422861       15.6175503535  W2        17200           0.0000000000
     51601     17201  TIP3      OH2           -45.8674566405      -11.8648822861       19.6570403535  W2        17201           0.0000000000
     51602     17201  TIP3      H1            -46.1029166405      -12.0842122861       20.5585303535  W2        17201           0.0000000000
     51603     17201  TIP3      H2            -46.6507666405      -12.0717622861       19.1472903535  W2        17201           0.0000000000
     51604     17202  TIP3      OH2           -43.1517966405      -12.7375322861       18.7323903535  W2        17202           0.0000000000
     51605     17202  TIP3      H1            -44.0992566405      -12.7055622861       18.8647203535  W2        17202           0.0000000000
     51606     17202  TIP3      H2            -42.8391266405      -13.3628222861       19.3862103535  W2        17202           0.0000000000
     51607     17203  TIP3      OH2           -41.5176466405      -14.1034222861       20.7375803535  W2        17203           0.0000000000
     51608     17203  TIP3      H1            -41.6144666405      -15.0556922861       20.7317703535  W2        17203           0.0000000000
     51609     17203  TIP3      H2            -41.8393366405      -13.8347422861       21.5981303535  W2        17203           0.0000000000
     51610     17204  TIP3      OH2           -51.6907166405      -12.8938422861       19.7851303535  W2        17204           0.0000000000
     51611     17204  TIP3      H1            -51.4789766405      -13.6002322861       19.1748803535  W2        17204           0.0000000000
     51612     17204  TIP3      H2            -51.8019666405      -13.3312422861       20.6292503535  W2        17204           0.0000000000
     51613     17205  TIP3      OH2           -46.9096966405      -16.8926822861       18.7644803535  W2        17205           0.0000000000
     51614     17205  TIP3      H1            -46.1978566405      -17.5324622861       18.7503903535  W2        17205           0.0000000000
     51615     17205  TIP3      H2            -47.0106566405      -16.6258522861       17.8507903535  W2        17205           0.0000000000
     51616     17206  TIP3      OH2           -46.5559466405      -15.2098422861       20.8181103535  W2        17206           0.0000000000
     51617     17206  TIP3      H1            -46.6877266405      -15.6854622861       19.9979603535  W2        17206           0.0000000000
     51618     17206  TIP3      H2            -47.1552066405      -14.4654822861       20.7628203535  W2        17206           0.0000000000
     51619     17207  TIP3      OH2           -47.0097166405        1.6731877139        3.9945103535  W2        17207           0.0000000000
     51620     17207  TIP3      H1            -46.0766466405        1.8310577139        4.1383503535  W2        17207           0.0000000000
     51621     17207  TIP3      H2            -47.2738366405        2.3484877139        3.3696603535  W2        17207           0.0000000000
     51622     17208  TIP3      OH2           -53.4412266405       -3.6904322861        3.4773203535  W2        17208           0.0000000000
     51623     17208  TIP3      H1            -52.5273066405       -3.6115422861        3.7507103535  W2        17208           0.0000000000
     51624     17208  TIP3      H2            -53.4339166405       -4.3774722861        2.8108803535  W2        17208           0.0000000000
     51625     17209  TIP3      OH2           -54.7921666405        1.7024177139        8.5547103535  W2        17209           0.0000000000
     51626     17209  TIP3      H1            -55.4394566405        1.2405877139        8.0218303535  W2        17209           0.0000000000
     51627     17209  TIP3      H2            -54.4377066405        1.0307477139        9.1373303535  W2        17209           0.0000000000
     51628     17210  TIP3      OH2           -53.9222466405       -0.2168822861       10.3593303535  W2        17210           0.0000000000
     51629     17210  TIP3      H1            -54.2565666405       -1.0971522861       10.5313503535  W2        17210           0.0000000000
     51630     17210  TIP3      H2            -53.7000066405        0.1286177139       11.2238903535  W2        17210           0.0000000000
     51631     17211  TIP3      OH2           -36.3737666405        0.5927577139       13.3398103535  W2        17211           0.0000000000
     51632     17211  TIP3      H1            -36.3950966405        0.7775977139       14.2787503535  W2        17211           0.0000000000
     51633     17211  TIP3      H2            -35.6831466405        1.1611577139       12.9989503535  W2        17211           0.0000000000
     51634     17212  TIP3      OH2           -36.8104766405        0.1598677139       16.2617203535  W2        17212           0.0000000000
     51635     17212  TIP3      H1            -37.2976066405       -0.5757222861       15.8904603535  W2        17212           0.0000000000
     51636     17212  TIP3      H2            -36.2612066405       -0.2337422861       16.9396603535  W2        17212           0.0000000000
     51637     17213  TIP3      OH2           -38.3597466405       -4.0503222861       20.8997503535  W2        17213           0.0000000000
     51638     17213  TIP3      H1            -39.2256366405       -4.1553522861       21.2939803535  W2        17213           0.0000000000
     51639     17213  TIP3      H2            -37.9831566405       -3.2919922861       21.3462203535  W2        17213           0.0000000000
     51640     17214  TIP3      OH2           -37.0587766405       -5.7939522861        6.4140003535  W2        17214           0.0000000000
     51641     17214  TIP3      H1            -36.2086366405       -5.3728622861        6.5411603535  W2        17214           0.0000000000
     51642     17214  TIP3      H2            -37.0532666405       -6.5339422861        7.0211403535  W2        17214           0.0000000000
     51643     17215  TIP3      OH2           -36.6642166405       -7.7402122861        8.2375703535  W2        17215           0.0000000000
     51644     17215  TIP3      H1            -37.3907566405       -8.2199522861        8.6353303535  W2        17215           0.0000000000
     51645     17215  TIP3      H2            -36.0828866405       -7.5347422861        8.9697303535  W2        17215           0.0000000000
     51646     17216  TIP3      OH2           -36.9050966405       -4.9554622861       13.1853303535  W2        17216           0.0000000000
     51647     17216  TIP3      H1            -36.0716766405       -5.3334622861       12.9046903535  W2        17216           0.0000000000
     51648     17216  TIP3      H2            -36.7930666405       -4.0123422861       13.0662403535  W2        17216           0.0000000000
     51649     17217  TIP3      OH2           -38.4188666405       -2.0777122861       15.4921703535  W2        17217           0.0000000000
     51650     17217  TIP3      H1            -39.0663366405       -1.7525622861       16.1176903535  W2        17217           0.0000000000
     51651     17217  TIP3      H2            -38.9364666405       -2.5179422861       14.8180003535  W2        17217           0.0000000000
     51652     17218  TIP3      OH2           -36.3959066405       -7.8393622861        4.6287003535  W2        17218           0.0000000000
     51653     17218  TIP3      H1            -36.9177966405       -7.4829522861        3.9097903535  W2        17218           0.0000000000
     51654     17218  TIP3      H2            -36.4289866405       -7.1645822861        5.3067903535  W2        17218           0.0000000000
     51655     17219  TIP3      OH2           -38.0470066405      -10.5998022861        3.1794103535  W2        17219           0.0000000000
     51656     17219  TIP3      H1            -37.9505666405       -9.9331022861        2.4993803535  W2        17219           0.0000000000
     51657     17219  TIP3      H2            -38.1870466405      -11.4151722861        2.6979603535  W2        17219           0.0000000000
     51658     17220  TIP3      OH2           -38.8775366405       -9.2195622861        8.8004403535  W2        17220           0.0000000000
     51659     17220  TIP3      H1            -39.0276566405      -10.1647022861        8.7802203535  W2        17220           0.0000000000
     51660     17220  TIP3      H2            -39.2310866405       -8.9384222861        9.6443503535  W2        17220           0.0000000000
     51661     17221  TIP3      OH2           -53.8422966405       -7.1413422861       12.8108203535  W2        17221           0.0000000000
     51662     17221  TIP3      H1            -53.6580066405       -7.2231722861       11.8751103535  W2        17221           0.0000000000
     51663     17221  TIP3      H2            -52.9930066405       -7.2656422861       13.2344603535  W2        17221           0.0000000000
     51664     17222  TIP3      OH2           -38.0212466405       -7.2492322861       18.4392703535  W2        17222           0.0000000000
     51665     17222  TIP3      H1            -37.4385166405       -7.9840022861       18.6309903535  W2        17222           0.0000000000
     51666     17222  TIP3      H2            -37.4573166405       -6.4772022861       18.4858503535  W2        17222           0.0000000000
     51667     17223  TIP3      OH2           -36.5245366405       -9.3466522861       19.1238103535  W2        17223           0.0000000000
     51668     17223  TIP3      H1            -37.3878666405       -9.7254422861       18.9582803535  W2        17223           0.0000000000
     51669     17223  TIP3      H2            -35.9201666405      -10.0851722861       19.0493903535  W2        17223           0.0000000000
     51670     17224  TIP3      OH2           -38.7996266405      -13.1918222861        2.2969603535  W2        17224           0.0000000000
     51671     17224  TIP3      H1            -38.1890466405      -13.5631422861        2.9337803535  W2        17224           0.0000000000
     51672     17224  TIP3      H2            -39.6364766405      -13.6131322861        2.4929603535  W2        17224           0.0000000000
     51673     17225  TIP3      OH2           -39.1670566405      -11.6369822861        7.2629503535  W2        17225           0.0000000000
     51674     17225  TIP3      H1            -38.8873466405      -12.5439422861        7.3871203535  W2        17225           0.0000000000
     51675     17225  TIP3      H2            -38.4078866405      -11.2028322861        6.8738703535  W2        17225           0.0000000000
     51676     17226  TIP3      OH2           -38.5552266405      -11.0552422861       12.6988403535  W2        17226           0.0000000000
     51677     17226  TIP3      H1            -37.6224266405      -10.8432522861       12.6644403535  W2        17226           0.0000000000
     51678     17226  TIP3      H2            -38.7904766405      -10.9540322861       13.6211403535  W2        17226           0.0000000000
     51679     17227  TIP3      OH2           -38.5260366405      -10.3187122861       15.4747803535  W2        17227           0.0000000000
     51680     17227  TIP3      H1            -39.3689066405      -10.0506722861       15.8407603535  W2        17227           0.0000000000
     51681     17227  TIP3      H2            -38.0836066405       -9.4965222861       15.2638903535  W2        17227           0.0000000000
     51682     17228  TIP3      OH2           -54.2448166405      -11.8708422861       18.9517003535  W2        17228           0.0000000000
     51683     17228  TIP3      H1            -53.3253266405      -11.9930122861       19.1880103535  W2        17228           0.0000000000
     51684     17228  TIP3      H2            -54.6943666405      -12.6208722861       19.3410503535  W2        17228           0.0000000000
     51685     17229  TIP3      OH2           -36.2428766405      -16.3386922861       20.8282803535  W2        17229           0.0000000000
     51686     17229  TIP3      H1            -35.8931766405      -16.9923422861       20.2227503535  W2        17229           0.0000000000
     51687     17229  TIP3      H2            -36.0959266405      -15.5012822861       20.3885403535  W2        17229           0.0000000000
     51688     17230  TIP3      OH2           -38.5535766405      -14.3740522861        7.3111503535  W2        17230           0.0000000000
     51689     17230  TIP3      H1            -38.3710766405      -14.8229022861        8.1366503535  W2        17230           0.0000000000
     51690     17230  TIP3      H2            -39.1532866405      -14.9586122861        6.8476103535  W2        17230           0.0000000000
     51691     17231  TIP3      OH2           -53.0235666405      -13.5586822861       11.8429903535  W2        17231           0.0000000000
     51692     17231  TIP3      H1            -52.5784066405      -14.3504322861       12.1449603535  W2        17231           0.0000000000
     51693     17231  TIP3      H2            -52.5572666405      -12.8421622861       12.2735503535  W2        17231           0.0000000000
     51694     17232  TIP3      OH2           -54.7195366405      -10.5593822861       12.9120103535  W2        17232           0.0000000000
     51695     17232  TIP3      H1            -54.2275566405      -10.7803322861       12.1212103535  W2        17232           0.0000000000
     51696     17232  TIP3      H2            -54.3574466405       -9.7190422861       13.1929603535  W2        17232           0.0000000000
     51697     17233  TIP3      OH2           -36.7231566405      -14.2292322861       19.1774103535  W2        17233           0.0000000000
     51698     17233  TIP3      H1            -37.6405866405      -13.9585222861       19.1417603535  W2        17233           0.0000000000
     51699     17233  TIP3      H2            -36.6002166405      -14.7643922861       18.3933803535  W2        17233           0.0000000000
     51700     17234  TIP3      OH2           -36.6869566405      -14.3062422861        3.8391803535  W2        17234           0.0000000000
     51701     17234  TIP3      H1            -36.2746966405      -15.0276722861        3.3639803535  W2        17234           0.0000000000
     51702     17234  TIP3      H2            -36.0053066405      -13.6367822861        3.8976103535  W2        17234           0.0000000000
     51703     17235  TIP3      OH2           -54.4058866405      -14.3014722861        6.9662503535  W2        17235           0.0000000000
     51704     17235  TIP3      H1            -55.3310466405      -14.0928122861        6.8368003535  W2        17235           0.0000000000
     51705     17235  TIP3      H2            -53.9518966405      -13.8173922861        6.2764803535  W2        17235           0.0000000000
     51706     17236  TIP3      OH2           -39.6351666405        0.6826977139        8.9119903535  W2        17236           0.0000000000
     51707     17236  TIP3      H1            -38.9828766405        0.3349077139        8.3039003535  W2        17236           0.0000000000
     51708     17236  TIP3      H2            -39.1247866405        1.1710177139        9.5579603535  W2        17236           0.0000000000
     51709     17237  TIP3      OH2           -54.4423466405      -15.5635722861       15.3105003535  W2        17237           0.0000000000
     51710     17237  TIP3      H1            -55.1072966405      -15.8095422861       15.9535903535  W2        17237           0.0000000000
     51711     17237  TIP3      H2            -54.8852166405      -14.9415322861       14.7333003535  W2        17237           0.0000000000
     51712     17238  TIP3      OH2           -52.2504166405       -2.3881622861       19.4550803535  W2        17238           0.0000000000
     51713     17238  TIP3      H1            -53.0711666405       -2.2135122861       18.9945503535  W2        17238           0.0000000000
     51714     17238  TIP3      H2            -52.5026366405       -2.4616922861       20.3755203535  W2        17238           0.0000000000
     51715     17239  TIP3      OH2           -49.2961266405       -1.4140422861       15.7134803535  W2        17239           0.0000000000
     51716     17239  TIP3      H1            -49.7210166405       -0.6041922861       15.4309403535  W2        17239           0.0000000000
     51717     17239  TIP3      H2            -48.3918466405       -1.3286322861       15.4114603535  W2        17239           0.0000000000
     51718     17240  TIP3      OH2           -44.9849866405       -0.0150422861       18.6728503535  W2        17240           0.0000000000
     51719     17240  TIP3      H1            -44.8002366405       -0.3484322861       19.5508803535  W2        17240           0.0000000000
     51720     17240  TIP3      H2            -44.1385366405        0.2948177139       18.3507703535  W2        17240           0.0000000000
     51721     17241  TIP3      OH2           -42.6399466405        1.2708477139       17.9169903535  W2        17241           0.0000000000
     51722     17241  TIP3      H1            -41.9630566405        0.6380777139       17.6769103535  W2        17241           0.0000000000
     51723     17241  TIP3      H2            -42.3180666405        1.6718977139       18.7243203535  W2        17241           0.0000000000
     51724     17242  TIP3      OH2           -37.7225666405      -16.1396022861       16.9964903535  W2        17242           0.0000000000
     51725     17242  TIP3      H1            -38.5352166405      -15.8145722861       16.6089603535  W2        17242           0.0000000000
     51726     17242  TIP3      H2            -37.4897166405      -16.8997522861       16.4634003535  W2        17242           0.0000000000
     51727     17243  TIP3      OH2           -51.8944566405        1.8423477139       15.7610103535  W2        17243           0.0000000000
     51728     17243  TIP3      H1            -52.6148166405        2.2824477139       15.3097803535  W2        17243           0.0000000000
     51729     17243  TIP3      H2            -52.2600566405        1.5918177139       16.6094103535  W2        17243           0.0000000000
     51730     17244  TIP3      OH2           -49.4271966405        1.4427377139       14.7907303535  W2        17244           0.0000000000
     51731     17244  TIP3      H1            -50.2919766405        1.5145877139       15.1947403535  W2        17244           0.0000000000
     51732     17244  TIP3      H2            -49.4822966405        1.9894677139       14.0069803535  W2        17244           0.0000000000
     51733     17245  TIP3      OH2           -44.7166366405        1.3306277139       13.9663303535  W2        17245           0.0000000000
     51734     17245  TIP3      H1            -45.1732366405        1.8595977139       13.3121703535  W2        17245           0.0000000000
     51735     17245  TIP3      H2            -44.5538366405        1.9337677139       14.6915603535  W2        17245           0.0000000000
     51736     17246  TIP3      OH2           -42.3890066405        0.2085877139       14.9113603535  W2        17246           0.0000000000
     51737     17246  TIP3      H1            -43.2936366405        0.3736077139       14.6455703535  W2        17246           0.0000000000
     51738     17246  TIP3      H2            -41.9601466405        1.0618077139       14.8457003535  W2        17246           0.0000000000
     51739     17247  TIP3      OH2           -39.7848166405        1.7784977139       15.2061403535  W2        17247           0.0000000000
     51740     17247  TIP3      H1            -39.9666166405        2.6943877139       14.9956303535  W2        17247           0.0000000000
     51741     17247  TIP3      H2            -39.6080366405        1.3682077139       14.3596003535  W2        17247           0.0000000000
     51742     17248  TIP3      OH2           -52.4796466405        0.4655977139       12.6711903535  W2        17248           0.0000000000
     51743     17248  TIP3      H1            -52.4980466405        0.0401077139       13.5284203535  W2        17248           0.0000000000
     51744     17248  TIP3      H2            -51.6748566405        0.1470977139       12.2624103535  W2        17248           0.0000000000
     51745     17249  TIP3      OH2           -50.3383366405       -0.8245322861       11.3261803535  W2        17249           0.0000000000
     51746     17249  TIP3      H1            -50.5572666405       -1.7407922861       11.4957803535  W2        17249           0.0000000000
     51747     17249  TIP3      H2            -49.5141166405       -0.6844922861       11.7923203535  W2        17249           0.0000000000
     51748     17250  TIP3      OH2           -47.8010866405       -0.3546022861       12.1749803535  W2        17250           0.0000000000
     51749     17250  TIP3      H1            -47.5885166405       -1.2427022861       11.8880703535  W2        17250           0.0000000000
     51750     17250  TIP3      H2            -47.7365766405       -0.3888322861       13.1293803535  W2        17250           0.0000000000
     51751     17251  TIP3      OH2           -44.2927166405      -14.6905422861       11.3193103535  W2        17251           0.0000000000
     51752     17251  TIP3      H1            -44.9670366405      -15.3199822861       11.5748903535  W2        17251           0.0000000000
     51753     17251  TIP3      H2            -43.7287966405      -15.1746522861       10.7161003535  W2        17251           0.0000000000
     51754     17252  TIP3      OH2           -39.1499966405      -16.5831422861       11.4320203535  W2        17252           0.0000000000
     51755     17252  TIP3      H1            -38.5462366405      -16.0356022861       10.9301203535  W2        17252           0.0000000000
     51756     17252  TIP3      H2            -40.0197966405      -16.2641022861       11.1914303535  W2        17252           0.0000000000
     51757     17253  TIP3      OH2           -37.4229566405      -15.4442722861        9.7651103535  W2        17253           0.0000000000
     51758     17253  TIP3      H1            -36.8112066405      -15.9587022861        9.2384703535  W2        17253           0.0000000000
     51759     17253  TIP3      H2            -37.0406166405      -14.5670622861        9.7885503535  W2        17253           0.0000000000
     51760     17254  TIP3      OH2           -51.9659666405      -16.0565122861        9.1413003535  W2        17254           0.0000000000
     51761     17254  TIP3      H1            -52.7429866405      -16.2910222861        8.6338903535  W2        17254           0.0000000000
     51762     17254  TIP3      H2            -51.4356066405      -16.8533022861        9.1501003535  W2        17254           0.0000000000
     51763     17255  TIP3      OH2           -53.1296266405      -16.2587022861        4.9449103535  W2        17255           0.0000000000
     51764     17255  TIP3      H1            -52.6905566405      -15.6476522861        4.3532603535  W2        17255           0.0000000000
     51765     17255  TIP3      H2            -53.7633866405      -15.7202922861        5.4189103535  W2        17255           0.0000000000
     51766     17256  TIP3      OH2           -47.3867066405      -16.1298022861        8.9546103535  W2        17256           0.0000000000
     51767     17256  TIP3      H1            -46.5123666405      -15.7413722861        8.9250403535  W2        17256           0.0000000000
     51768     17256  TIP3      H2            -47.5226266405      -16.3450222861        9.8773303535  W2        17256           0.0000000000
     51769     17257  TIP3      OH2           -41.8298666405      -16.0998222861       10.6037803535  W2        17257           0.0000000000
     51770     17257  TIP3      H1            -41.7537066405      -16.0046622861        9.6543803535  W2        17257           0.0000000000
     51771     17257  TIP3      H2            -42.1049466405      -17.0075322861       10.7326903535  W2        17257           0.0000000000
     51772     17258  TIP3      OH2           -40.4766066405      -16.0740422861        6.2962803535  W2        17258           0.0000000000
     51773     17258  TIP3      H1            -41.1794966405      -15.4591222861        6.0864203535  W2        17258           0.0000000000
     51774     17258  TIP3      H2            -40.9214666405      -16.9113722861        6.4273703535  W2        17258           0.0000000000
     51775     17259  TIP3      OH2           -53.2286766405       -0.3104822861        5.8424203535  W2        17259           0.0000000000
     51776     17259  TIP3      H1            -53.9136866405       -0.3485922861        5.1749303535  W2        17259           0.0000000000
     51777     17259  TIP3      H2            -53.2249566405        0.6022777139        6.1306303535  W2        17259           0.0000000000
     51778     17260  TIP3      OH2           -51.2687166405      -14.3425522861        3.3873203535  W2        17260           0.0000000000
     51779     17260  TIP3      H1            -50.7773766405      -14.9723122861        2.8598703535  W2        17260           0.0000000000
     51780     17260  TIP3      H2            -50.6450866405      -14.0466122861        4.0504403535  W2        17260           0.0000000000
     51781     17261  TIP3      OH2           -46.2427066405      -14.0494022861        5.8443703535  W2        17261           0.0000000000
     51782     17261  TIP3      H1            -46.0645766405      -14.6960822861        6.5272303535  W2        17261           0.0000000000
     51783     17261  TIP3      H2            -46.2960866405      -13.2156322861        6.3114803535  W2        17261           0.0000000000
     51784     17262  TIP3      OH2           -44.3643266405        0.8990077139        4.2400403535  W2        17262           0.0000000000
     51785     17262  TIP3      H1            -43.4983066405        1.2657477139        4.0618603535  W2        17262           0.0000000000
     51786     17262  TIP3      H2            -44.6110466405        0.4598077139        3.4261203535  W2        17262           0.0000000000
     51787     17263  TIP3      OH2           -37.6553666405        0.4620377139        6.9191503535  W2        17263           0.0000000000
     51788     17263  TIP3      H1            -37.8496566405       -0.2857522861        6.3541103535  W2        17263           0.0000000000
     51789     17263  TIP3      H2            -37.6943566405        1.2200477139        6.3359403535  W2        17263           0.0000000000
     51790     17264  TIP3      OH2           -52.0081666405      -15.5423222861       18.6589203535  W2        17264           0.0000000000
     51791     17264  TIP3      H1            -52.3743466405      -16.3080622861       19.1013903535  W2        17264           0.0000000000
     51792     17264  TIP3      H2            -51.0953166405      -15.5133022861       18.9454303535  W2        17264           0.0000000000
     51793     17265  TIP3      OH2           -50.0350866405      -16.1918822861       20.1946303535  W2        17265           0.0000000000
     51794     17265  TIP3      H1            -49.1367266405      -16.4658622861       20.0099703535  W2        17265           0.0000000000
     51795     17265  TIP3      H2            -50.4217766405      -16.9342822861       20.6588903535  W2        17265           0.0000000000
     51796     17266  TIP3      OH2           -51.4105566405        0.6095977139        2.8676303535  W2        17266           0.0000000000
     51797     17266  TIP3      H1            -51.6780966405        0.8958877139        3.7409403535  W2        17266           0.0000000000
     51798     17266  TIP3      H2            -50.6392966405        0.0635177139        3.0198803535  W2        17266           0.0000000000
     51799     17267  TIP3      OH2           -41.6138566405      -16.8593522861       20.3769103535  W2        17267           0.0000000000
     51800     17267  TIP3      H1            -41.5371366405      -17.2852822861       21.2306803535  W2        17267           0.0000000000
     51801     17267  TIP3      H2            -40.7201966405      -16.8458822861       20.0342603535  W2        17267           0.0000000000
     51802     17268  TIP3      OH2           -38.4377466405       -0.7867222861       19.0693303535  W2        17268           0.0000000000
     51803     17268  TIP3      H1            -39.2195566405       -0.9729222861       18.5493903535  W2        17268           0.0000000000
     51804     17268  TIP3      H2            -38.5097566405        0.1427077139       19.2865803535  W2        17268           0.0000000000
     51805     17269  TIP3      OH2           -24.0317066405       -6.9002822861        9.1000503535  W2        17269           0.0000000000
     51806     17269  TIP3      H1            -23.9425966405       -5.9564622861        8.9677603535  W2        17269           0.0000000000
     51807     17269  TIP3      H2            -24.6699466405       -7.1756422861        8.4419903535  W2        17269           0.0000000000
     51808     17270  TIP3      OH2           -25.0985766405       -7.6452122861       12.5188703535  W2        17270           0.0000000000
     51809     17270  TIP3      H1            -25.1368266405       -8.2915822861       13.2238303535  W2        17270           0.0000000000
     51810     17270  TIP3      H2            -25.4209266405       -8.1117722861       11.7477403535  W2        17270           0.0000000000
     51811     17271  TIP3      OH2           -32.7300766405       -8.0310022861       14.1118603535  W2        17271           0.0000000000
     51812     17271  TIP3      H1            -32.6888666405       -8.6566722861       14.8351003535  W2        17271           0.0000000000
     51813     17271  TIP3      H2            -32.0273066405       -7.4071422861       14.2939003535  W2        17271           0.0000000000
     51814     17272  TIP3      OH2           -21.3925566405       -4.7061722861       10.8203803535  W2        17272           0.0000000000
     51815     17272  TIP3      H1            -21.8332866405       -5.4265722861       11.2709403535  W2        17272           0.0000000000
     51816     17272  TIP3      H2            -21.4055866405       -3.9854522861       11.4501503535  W2        17272           0.0000000000
     51817     17273  TIP3      OH2           -31.8067666405       -3.5811122861       12.6467703535  W2        17273           0.0000000000
     51818     17273  TIP3      H1            -32.1762466405       -4.3830622861       12.2772003535  W2        17273           0.0000000000
     51819     17273  TIP3      H2            -30.8656566405       -3.7496222861       12.6931103535  W2        17273           0.0000000000
     51820     17274  TIP3      OH2           -35.1967166405       -9.9208522861        8.0396503535  W2        17274           0.0000000000
     51821     17274  TIP3      H1            -35.6443766405       -9.0749822861        8.0213003535  W2        17274           0.0000000000
     51822     17274  TIP3      H2            -35.7575966405      -10.5004322861        7.5241603535  W2        17274           0.0000000000
     51823     17275  TIP3      OH2           -34.4861066405       -7.7588922861       10.1654503535  W2        17275           0.0000000000
     51824     17275  TIP3      H1            -34.2727566405       -8.5287322861       10.6927503535  W2        17275           0.0000000000
     51825     17275  TIP3      H2            -33.7483466405       -7.6692222861        9.5622103535  W2        17275           0.0000000000
     51826     17276  TIP3      OH2           -24.2810066405        0.3979977139       11.0324203535  W2        17276           0.0000000000
     51827     17276  TIP3      H1            -23.6613666405       -0.2785322861       10.7593403535  W2        17276           0.0000000000
     51828     17276  TIP3      H2            -24.4892666405        0.1800777139       11.9409103535  W2        17276           0.0000000000
     51829     17277  TIP3      OH2           -26.7091366405       -5.2130722861       12.9249703535  W2        17277           0.0000000000
     51830     17277  TIP3      H1            -26.4053466405       -5.8989322861       12.3303803535  W2        17277           0.0000000000
     51831     17277  TIP3      H2            -25.9877366405       -5.0942022861       13.5427703535  W2        17277           0.0000000000
     51832     17278  TIP3      OH2           -18.0461566405      -13.6115422861       13.7855903535  W2        17278           0.0000000000
     51833     17278  TIP3      H1            -17.9969366405      -13.0014222861       14.5215003535  W2        17278           0.0000000000
     51834     17278  TIP3      H2            -17.6206466405      -13.1504522861       13.0627003535  W2        17278           0.0000000000
     51835     17279  TIP3      OH2           -23.5684366405      -10.8188322861       13.2524503535  W2        17279           0.0000000000
     51836     17279  TIP3      H1            -23.4258466405      -11.7651322861       13.2726103535  W2        17279           0.0000000000
     51837     17279  TIP3      H2            -23.6745366405      -10.6118522861       12.3239403535  W2        17279           0.0000000000
     51838     17280  TIP3      OH2           -30.4136066405      -12.7171922861       10.5249303535  W2        17280           0.0000000000
     51839     17280  TIP3      H1            -30.3704966405      -11.8573422861       10.1065603535  W2        17280           0.0000000000
     51840     17280  TIP3      H2            -30.8711966405      -13.2697222861        9.8912503535  W2        17280           0.0000000000
     51841     17281  TIP3      OH2           -22.6913366405      -12.5866322861        8.9257603535  W2        17281           0.0000000000
     51842     17281  TIP3      H1            -22.0449066405      -12.9153122861        9.5505203535  W2        17281           0.0000000000
     51843     17281  TIP3      H2            -22.1813966405      -12.0687322861        8.3029003535  W2        17281           0.0000000000
     51844     17282  TIP3      OH2           -33.7934566405      -10.3206122861       11.2870703535  W2        17282           0.0000000000
     51845     17282  TIP3      H1            -33.1397966405      -10.8704422861       11.7190803535  W2        17282           0.0000000000
     51846     17282  TIP3      H2            -33.7695266405      -10.5947122861       10.3702703535  W2        17282           0.0000000000
     51847     17283  TIP3      OH2           -28.6370066405       -8.7704822861       10.5022203535  W2        17283           0.0000000000
     51848     17283  TIP3      H1            -28.0209066405       -9.2969422861       11.0116203535  W2        17283           0.0000000000
     51849     17283  TIP3      H2            -29.2231266405       -9.4106122861       10.0985803535  W2        17283           0.0000000000
     51850     17284  TIP3      OH2           -17.6546966405      -12.1336222861       16.0215703535  W2        17284           0.0000000000
     51851     17284  TIP3      H1            -18.3432366405      -11.4755522861       15.9262303535  W2        17284           0.0000000000
     51852     17284  TIP3      H2            -17.6392366405      -12.3308322861       16.9581103535  W2        17284           0.0000000000
     51853     17285  TIP3      OH2           -31.6034166405      -13.7993522861       14.5990103535  W2        17285           0.0000000000
     51854     17285  TIP3      H1            -31.8222466405      -13.2692922861       13.8326103535  W2        17285           0.0000000000
     51855     17285  TIP3      H2            -32.2713266405      -13.5728022861       15.2461503535  W2        17285           0.0000000000
     51856     17286  TIP3      OH2           -24.2344366405       -4.2992422861        8.1429203535  W2        17286           0.0000000000
     51857     17286  TIP3      H1            -24.5299266405       -4.6220122861        7.2916103535  W2        17286           0.0000000000
     51858     17286  TIP3      H2            -24.5586566405       -3.3995722861        8.1841803535  W2        17286           0.0000000000
     51859     17287  TIP3      OH2           -29.0342766405       -6.1237822861       14.8863803535  W2        17287           0.0000000000
     51860     17287  TIP3      H1            -29.7743666405       -5.5256322861       14.9899003535  W2        17287           0.0000000000
     51861     17287  TIP3      H2            -28.3203266405       -5.5698222861       14.5707403535  W2        17287           0.0000000000
     51862     17288  TIP3      OH2           -20.9274966405      -13.2957022861       10.9063503535  W2        17288           0.0000000000
     51863     17288  TIP3      H1            -21.1426966405      -14.0613622861       11.4389503535  W2        17288           0.0000000000
     51864     17288  TIP3      H2            -20.2717566405      -12.8232422861       11.4192003535  W2        17288           0.0000000000
     51865     17289  TIP3      OH2           -32.0096866405      -11.9071722861       12.5512303535  W2        17289           0.0000000000
     51866     17289  TIP3      H1            -31.3960566405      -11.2744122861       12.9244703535  W2        17289           0.0000000000
     51867     17289  TIP3      H2            -31.4976166405      -12.3796722861       11.8949203535  W2        17289           0.0000000000
     51868     17290  TIP3      OH2           -30.6268466405       -4.1594822861       15.6735303535  W2        17290           0.0000000000
     51869     17290  TIP3      H1            -30.6320866405       -3.2801322861       15.2954603535  W2        17290           0.0000000000
     51870     17290  TIP3      H2            -31.4804366405       -4.2430722861       16.0985203535  W2        17290           0.0000000000
     51871     17291  TIP3      OH2           -34.5057566405       -4.4886922861        6.4554603535  W2        17291           0.0000000000
     51872     17291  TIP3      H1            -34.7776666405       -4.2595922861        5.5667503535  W2        17291           0.0000000000
     51873     17291  TIP3      H2            -34.4601866405       -3.6508122861        6.9159903535  W2        17291           0.0000000000
     51874     17292  TIP3      OH2           -20.8807866405       -2.8671022861       13.1683103535  W2        17292           0.0000000000
     51875     17292  TIP3      H1            -21.8224166405       -2.8087122861       13.3300003535  W2        17292           0.0000000000
     51876     17292  TIP3      H2            -20.6041766405       -1.9610522861       13.0312803535  W2        17292           0.0000000000
     51877     17293  TIP3      OH2           -20.5800866405      -14.5805722861       14.5857003535  W2        17293           0.0000000000
     51878     17293  TIP3      H1            -21.3161666405      -13.9698622861       14.5478303535  W2        17293           0.0000000000
     51879     17293  TIP3      H2            -19.8966866405      -14.1656722861       14.0593403535  W2        17293           0.0000000000
     51880     17294  TIP3      OH2           -27.5769466405      -16.4938422861       12.0515003535  W2        17294           0.0000000000
     51881     17294  TIP3      H1            -27.6945266405      -17.4422422861       11.9973303535  W2        17294           0.0000000000
     51882     17294  TIP3      H2            -28.4319366405      -16.1612322861       12.3246103535  W2        17294           0.0000000000
     51883     17295  TIP3      OH2           -22.6286666405       -1.0857522861        9.7934703535  W2        17295           0.0000000000
     51884     17295  TIP3      H1            -22.2034366405       -1.7929622861        9.3084303535  W2        17295           0.0000000000
     51885     17295  TIP3      H2            -22.3116666405       -0.2844822861        9.3766903535  W2        17295           0.0000000000
     51886     17296  TIP3      OH2           -21.4690166405       -3.1849022861        8.3021303535  W2        17296           0.0000000000
     51887     17296  TIP3      H1            -21.7265366405       -3.8748922861        7.6907203535  W2        17296           0.0000000000
     51888     17296  TIP3      H2            -21.3979366405       -3.6277822861        9.1477203535  W2        17296           0.0000000000
     51889     17297  TIP3      OH2           -19.7829966405       -4.6182322861       16.7794803535  W2        17297           0.0000000000
     51890     17297  TIP3      H1            -19.6433666405       -5.2099822861       16.0401803535  W2        17297           0.0000000000
     51891     17297  TIP3      H2            -19.6157166405       -3.7456422861       16.4233603535  W2        17297           0.0000000000
     51892     17298  TIP3      OH2           -25.3104566405       -7.6562822861        6.5520803535  W2        17298           0.0000000000
     51893     17298  TIP3      H1            -26.0219066405       -7.1213122861        6.2001303535  W2        17298           0.0000000000
     51894     17298  TIP3      H2            -24.6194966405       -7.6010722861        5.8919703535  W2        17298           0.0000000000
     51895     17299  TIP3      OH2           -25.2565366405       -9.1988522861        3.5905803535  W2        17299           0.0000000000
     51896     17299  TIP3      H1            -24.5555466405       -9.1761622861        4.2419803535  W2        17299           0.0000000000
     51897     17299  TIP3      H2            -24.9542466405       -9.8268822861        2.9345103535  W2        17299           0.0000000000
     51898     17300  TIP3      OH2           -17.9410666405       -8.2784322861       14.8455203535  W2        17300           0.0000000000
     51899     17300  TIP3      H1            -18.5936566405       -7.5838722861       14.9346103535  W2        17300           0.0000000000
     51900     17300  TIP3      H2            -17.4760366405       -8.0683422861       14.0356803535  W2        17300           0.0000000000
     51901     17301  TIP3      OH2           -21.9046866405       -7.4469522861        7.5036703535  W2        17301           0.0000000000
     51902     17301  TIP3      H1            -22.6365866405       -7.2185822861        8.0767303535  W2        17301           0.0000000000
     51903     17301  TIP3      H2            -21.4574666405       -8.1606822861        7.9584203535  W2        17301           0.0000000000
     51904     17302  TIP3      OH2           -22.0073366405       -9.2726922861       16.5713703535  W2        17302           0.0000000000
     51905     17302  TIP3      H1            -21.9274266405       -8.5092522861       17.1432203535  W2        17302           0.0000000000
     51906     17302  TIP3      H2            -22.6085666405       -8.9934522861       15.8808803535  W2        17302           0.0000000000
     51907     17303  TIP3      OH2           -30.2593166405       -6.8163322861        9.3861703535  W2        17303           0.0000000000
     51908     17303  TIP3      H1            -30.5897966405       -7.1869922861        8.5678703535  W2        17303           0.0000000000
     51909     17303  TIP3      H2            -29.6709066405       -7.4869322861        9.7330003535  W2        17303           0.0000000000
     51910     17304  TIP3      OH2           -28.8925666405       -3.3882722861       12.0673903535  W2        17304           0.0000000000
     51911     17304  TIP3      H1            -28.9874366405       -3.9669622861       11.3108503535  W2        17304           0.0000000000
     51912     17304  TIP3      H2            -28.1632066405       -3.7597022861       12.5636703535  W2        17304           0.0000000000
     51913     17305  TIP3      OH2           -29.8927666405       -8.0477722861       13.0196703535  W2        17305           0.0000000000
     51914     17305  TIP3      H1            -29.3275166405       -7.9263522861       12.2567903535  W2        17305           0.0000000000
     51915     17305  TIP3      H2            -29.5738766405       -7.4102722861       13.6585203535  W2        17305           0.0000000000
     51916     17306  TIP3      OH2           -23.5835466405       -2.5445822861       13.7537203535  W2        17306           0.0000000000
     51917     17306  TIP3      H1            -23.8238866405       -1.8822722861       14.4016403535  W2        17306           0.0000000000
     51918     17306  TIP3      H2            -23.7817266405       -3.3790622861       14.1786803535  W2        17306           0.0000000000
     51919     17307  TIP3      OH2           -29.0126966405       -3.6485022861       17.7368603535  W2        17307           0.0000000000
     51920     17307  TIP3      H1            -29.3239466405       -2.8661822861       18.1921803535  W2        17307           0.0000000000
     51921     17307  TIP3      H2            -29.6626766405       -3.8015922861       17.0510603535  W2        17307           0.0000000000
     51922     17308  TIP3      OH2           -23.0337366405       -8.2846622861        5.1887903535  W2        17308           0.0000000000
     51923     17308  TIP3      H1            -22.4541866405       -8.1346322861        5.9356803535  W2        17308           0.0000000000
     51924     17308  TIP3      H2            -22.6197366405       -7.8139222861        4.4654303535  W2        17308           0.0000000000
     51925     17309  TIP3      OH2           -32.0927066405       -7.4503922861       16.9654303535  W2        17309           0.0000000000
     51926     17309  TIP3      H1            -32.0223866405       -6.7997122861       17.6639303535  W2        17309           0.0000000000
     51927     17309  TIP3      H2            -32.9834866405       -7.3476422861       16.6305203535  W2        17309           0.0000000000
     51928     17310  TIP3      OH2           -25.3072466405       -1.5478122861        8.6241003535  W2        17310           0.0000000000
     51929     17310  TIP3      H1            -24.8334866405       -1.2521822861        9.4015203535  W2        17310           0.0000000000
     51930     17310  TIP3      H2            -25.8703166405       -0.8096522861        8.3910603535  W2        17310           0.0000000000
     51931     17311  TIP3      OH2           -30.7731066405       -1.5770022861       18.5002403535  W2        17311           0.0000000000
     51932     17311  TIP3      H1            -30.7655766405       -1.7130322861       17.5527903535  W2        17311           0.0000000000
     51933     17311  TIP3      H2            -31.6890666405       -1.6941922861       18.7522403535  W2        17311           0.0000000000
     51934     17312  TIP3      OH2           -19.3348966405      -16.5346222861        5.0017603535  W2        17312           0.0000000000
     51935     17312  TIP3      H1            -20.2348266405      -16.3957222861        5.2968203535  W2        17312           0.0000000000
     51936     17312  TIP3      H2            -19.0830566405      -15.7031622861        4.5999303535  W2        17312           0.0000000000
     51937     17313  TIP3      OH2           -31.2690466405       -7.7469022861        6.9754503535  W2        17313           0.0000000000
     51938     17313  TIP3      H1            -31.5609166405       -6.9787322861        6.4845803535  W2        17313           0.0000000000
     51939     17313  TIP3      H2            -31.9435266405       -8.4062822861        6.8125903535  W2        17313           0.0000000000
     51940     17314  TIP3      OH2           -18.1457566405       -2.1683822861        3.3781503535  W2        17314           0.0000000000
     51941     17314  TIP3      H1            -18.0724066405       -1.2293622861        3.5486803535  W2        17314           0.0000000000
     51942     17314  TIP3      H2            -17.2402466405       -2.4735222861        3.3218803535  W2        17314           0.0000000000
     51943     17315  TIP3      OH2           -35.1760366405       -5.3839822861       15.7904303535  W2        17315           0.0000000000
     51944     17315  TIP3      H1            -35.6771966405       -5.4120422861       14.9754003535  W2        17315           0.0000000000
     51945     17315  TIP3      H2            -35.1706666405       -6.2896622861       16.1001603535  W2        17315           0.0000000000
     51946     17316  TIP3      OH2           -35.4257666405       -2.6036022861       12.6744503535  W2        17316           0.0000000000
     51947     17316  TIP3      H1            -34.4797066405       -2.7479022861       12.6554003535  W2        17316           0.0000000000
     51948     17316  TIP3      H2            -35.5381366405       -1.8193222861       13.2115703535  W2        17316           0.0000000000
     51949     17317  TIP3      OH2           -17.2279166405       -1.9376322861       18.3568203535  W2        17317           0.0000000000
     51950     17317  TIP3      H1            -17.2772366405       -2.8928222861       18.3195803535  W2        17317           0.0000000000
     51951     17317  TIP3      H2            -18.0546866405       -1.6701022861       18.7582003535  W2        17317           0.0000000000
     51952     17318  TIP3      OH2           -26.2495166405       -2.3637122861       17.2329603535  W2        17318           0.0000000000
     51953     17318  TIP3      H1            -26.1620566405       -1.5372522861       17.7078703535  W2        17318           0.0000000000
     51954     17318  TIP3      H2            -27.1130066405       -2.6933322861       17.4818903535  W2        17318           0.0000000000
     51955     17319  TIP3      OH2           -25.8349366405        1.4086577139        7.0390203535  W2        17319           0.0000000000
     51956     17319  TIP3      H1            -25.9103366405        1.2873777139        6.0925403535  W2        17319           0.0000000000
     51957     17319  TIP3      H2            -25.8020666405        2.3579277139        7.1574803535  W2        17319           0.0000000000
     51958     17320  TIP3      OH2           -32.1815566405        0.1973577139        8.8199203535  W2        17320           0.0000000000
     51959     17320  TIP3      H1            -32.0295166405       -0.1506022861        9.6985703535  W2        17320           0.0000000000
     51960     17320  TIP3      H2            -33.0325166405       -0.1589122861        8.5646403535  W2        17320           0.0000000000
     51961     17321  TIP3      OH2           -22.7333366405        0.5626777139        4.0412603535  W2        17321           0.0000000000
     51962     17321  TIP3      H1            -22.3584966405       -0.1817122861        3.5705203535  W2        17321           0.0000000000
     51963     17321  TIP3      H2            -22.7289666405        0.2927377139        4.9595903535  W2        17321           0.0000000000
     51964     17322  TIP3      OH2           -23.0645266405        0.4883877139        6.7904803535  W2        17322           0.0000000000
     51965     17322  TIP3      H1            -23.9995466405        0.5885777139        6.9691803535  W2        17322           0.0000000000
     51966     17322  TIP3      H2            -22.7843366405       -0.2210122861        7.3688003535  W2        17322           0.0000000000
     51967     17323  TIP3      OH2           -20.0759366405      -10.4443822861       18.8370403535  W2        17323           0.0000000000
     51968     17323  TIP3      H1            -20.4832566405       -9.9638222861       18.1163703535  W2        17323           0.0000000000
     51969     17323  TIP3      H2            -20.0353666405      -11.3497822861       18.5291203535  W2        17323           0.0000000000
     51970     17324  TIP3      OH2           -32.9269866405       -4.0604422861       16.8337103535  W2        17324           0.0000000000
     51971     17324  TIP3      H1            -32.7108566405       -4.4218822861       17.6932903535  W2        17324           0.0000000000
     51972     17324  TIP3      H2            -33.7825166405       -4.4350622861       16.6240603535  W2        17324           0.0000000000
     51973     17325  TIP3      OH2           -30.3081866405      -15.5903922861       12.8291303535  W2        17325           0.0000000000
     51974     17325  TIP3      H1            -31.1698166405      -15.6775722861       12.4214203535  W2        17325           0.0000000000
     51975     17325  TIP3      H2            -30.3306166405      -14.7343822861       13.2568903535  W2        17325           0.0000000000
     51976     17326  TIP3      OH2           -25.6454066405      -15.8683522861       16.2038303535  W2        17326           0.0000000000
     51977     17326  TIP3      H1            -25.2250966405      -16.2836422861       16.9568903535  W2        17326           0.0000000000
     51978     17326  TIP3      H2            -26.5784466405      -16.0470222861       16.3210303535  W2        17326           0.0000000000
     51979     17327  TIP3      OH2           -22.3189166405      -12.1128322861       17.0572803535  W2        17327           0.0000000000
     51980     17327  TIP3      H1            -22.8329666405      -12.2386122861       17.8548803535  W2        17327           0.0000000000
     51981     17327  TIP3      H2            -22.4744466405      -11.2005222861       16.8129003535  W2        17327           0.0000000000
     51982     17328  TIP3      OH2           -21.5564266405       -7.2518322861        2.8185803535  W2        17328           0.0000000000
     51983     17328  TIP3      H1            -21.5143466405       -7.4744422861        1.8885803535  W2        17328           0.0000000000
     51984     17328  TIP3      H2            -20.7072166405       -6.8531222861        3.0085703535  W2        17328           0.0000000000
     51985     17329  TIP3      OH2           -25.9836766405      -13.3760122861        3.4889103535  W2        17329           0.0000000000
     51986     17329  TIP3      H1            -26.2371966405      -13.3568522861        4.4117203535  W2        17329           0.0000000000
     51987     17329  TIP3      H2            -26.2404666405      -14.2474722861        3.1875303535  W2        17329           0.0000000000
     51988     17330  TIP3      OH2           -30.2171766405      -10.6249422861       13.9241503535  W2        17330           0.0000000000
     51989     17330  TIP3      H1            -30.8589666405      -10.6652122861       14.6331603535  W2        17330           0.0000000000
     51990     17330  TIP3      H2            -30.1799766405       -9.6984722861       13.6864503535  W2        17330           0.0000000000
     51991     17331  TIP3      OH2           -30.2202666405      -10.4039322861        8.8361503535  W2        17331           0.0000000000
     51992     17331  TIP3      H1            -31.1129766405      -10.7443222861        8.7775303535  W2        17331           0.0000000000
     51993     17331  TIP3      H2            -29.7696066405      -10.7808422861        8.0804703535  W2        17331           0.0000000000
     51994     17332  TIP3      OH2           -24.6847166405       -9.9879022861        7.6532303535  W2        17332           0.0000000000
     51995     17332  TIP3      H1            -25.0936866405       -9.1730422861        7.3617103535  W2        17332           0.0000000000
     51996     17332  TIP3      H2            -23.9640966405      -10.1278922861        7.0389403535  W2        17332           0.0000000000
     51997     17333  TIP3      OH2           -25.5825566405       -9.8122622861       19.1413003535  W2        17333           0.0000000000
     51998     17333  TIP3      H1            -26.1451766405      -10.5171022861       19.4620803535  W2        17333           0.0000000000
     51999     17333  TIP3      H2            -24.7562166405       -9.9330722861       19.6090603535  W2        17333           0.0000000000
     52000     17334  TIP3      OH2           -23.6799466405      -10.5418622861       10.4672003535  W2        17334           0.0000000000
     52001     17334  TIP3      H1            -23.8754966405       -9.9361822861        9.7522603535  W2        17334           0.0000000000
     52002     17334  TIP3      H2            -23.4986866405      -11.3753422861       10.0328303535  W2        17334           0.0000000000
     52003     17335  TIP3      OH2           -32.4671266405      -10.3045922861       15.7913503535  W2        17335           0.0000000000
     52004     17335  TIP3      H1            -32.5051866405       -9.9044322861       16.6600603535  W2        17335           0.0000000000
     52005     17335  TIP3      H2            -32.9580166405      -11.1213522861       15.8816403535  W2        17335           0.0000000000
     52006     17336  TIP3      OH2           -29.1013866405      -12.9303622861        2.5899503535  W2        17336           0.0000000000
     52007     17336  TIP3      H1            -29.5323166405      -13.3753522861        3.3196903535  W2        17336           0.0000000000
     52008     17336  TIP3      H2            -29.8195166405      -12.5587322861        2.0777003535  W2        17336           0.0000000000
     52009     17337  TIP3      OH2           -35.8590466405      -13.1884122861        9.6418203535  W2        17337           0.0000000000
     52010     17337  TIP3      H1            -35.2282766405      -13.2172022861       10.3612103535  W2        17337           0.0000000000
     52011     17337  TIP3      H2            -35.4096166405      -13.6135422861        8.9114103535  W2        17337           0.0000000000
     52012     17338  TIP3      OH2           -34.5848366405      -12.4422122861        5.0658603535  W2        17338           0.0000000000
     52013     17338  TIP3      H1            -34.1106666405      -11.8512222861        4.4809503535  W2        17338           0.0000000000
     52014     17338  TIP3      H2            -35.3021966405      -11.9119222861        5.4128703535  W2        17338           0.0000000000
     52015     17339  TIP3      OH2           -24.4160266405       -8.9037322861       15.1384403535  W2        17339           0.0000000000
     52016     17339  TIP3      H1            -24.0925466405       -9.5347622861       14.4954903535  W2        17339           0.0000000000
     52017     17339  TIP3      H2            -24.8560966405       -9.4385122861       15.7991803535  W2        17339           0.0000000000
     52018     17340  TIP3      OH2           -27.6387366405      -12.9761822861        9.9225603535  W2        17340           0.0000000000
     52019     17340  TIP3      H1            -28.5496266405      -12.9195022861       10.2111603535  W2        17340           0.0000000000
     52020     17340  TIP3      H2            -27.1334466405      -13.0366322861       10.7332803535  W2        17340           0.0000000000
     52021     17341  TIP3      OH2           -32.8103966405      -11.3475522861        8.7493203535  W2        17341           0.0000000000
     52022     17341  TIP3      H1            -33.6995966405      -11.2480022861        8.4092803535  W2        17341           0.0000000000
     52023     17341  TIP3      H2            -32.5139066405      -12.1892522861        8.4031103535  W2        17341           0.0000000000
     52024     17342  TIP3      OH2           -29.1572166405      -11.3472922861        6.4057803535  W2        17342           0.0000000000
     52025     17342  TIP3      H1            -28.2256666405      -11.2182922861        6.5840903535  W2        17342           0.0000000000
     52026     17342  TIP3      H2            -29.3721866405      -10.6778622861        5.7562503535  W2        17342           0.0000000000
     52027     17343  TIP3      OH2           -23.2335466405      -13.7415522861       13.1867403535  W2        17343           0.0000000000
     52028     17343  TIP3      H1            -23.9103866405      -13.6102422861       13.8507103535  W2        17343           0.0000000000
     52029     17343  TIP3      H2            -23.7190566405      -13.8966022861       12.3765103535  W2        17343           0.0000000000
     52030     17344  TIP3      OH2           -30.4831966405      -10.1530722861        3.9723903535  W2        17344           0.0000000000
     52031     17344  TIP3      H1            -31.0256866405      -10.5326922861        3.2811503535  W2        17344           0.0000000000
     52032     17344  TIP3      H2            -29.6497066405       -9.9586022861        3.5438003535  W2        17344           0.0000000000
     52033     17345  TIP3      OH2           -19.9460366405        1.9299877139       19.4635003535  W2        17345           0.0000000000
     52034     17345  TIP3      H1            -19.7461666405        2.3541777139       18.6290303535  W2        17345           0.0000000000
     52035     17345  TIP3      H2            -19.2906666405        2.2738077139       20.0705403535  W2        17345           0.0000000000
     52036     17346  TIP3      OH2           -32.3480566405       -5.5958822861       19.0715503535  W2        17346           0.0000000000
     52037     17346  TIP3      H1            -31.6158166405       -5.3412922861       19.6330003535  W2        17346           0.0000000000
     52038     17346  TIP3      H2            -33.1281866405       -5.3913422861       19.5870903535  W2        17346           0.0000000000
     52039     17347  TIP3      OH2           -26.3187666405      -10.1888822861       11.8095203535  W2        17347           0.0000000000
     52040     17347  TIP3      H1            -25.7544266405      -10.7352222861       11.2624803535  W2        17347           0.0000000000
     52041     17347  TIP3      H2            -26.4664266405      -10.7106922861       12.5982803535  W2        17347           0.0000000000
     52042     17348  TIP3      OH2           -31.3167966405      -14.0522722861        8.2280003535  W2        17348           0.0000000000
     52043     17348  TIP3      H1            -31.6338466405      -14.9547422861        8.1925403535  W2        17348           0.0000000000
     52044     17348  TIP3      H2            -30.5353866405      -14.0505322861        7.6751603535  W2        17348           0.0000000000
     52045     17349  TIP3      OH2           -27.6921766405      -11.8002722861       14.2235603535  W2        17349           0.0000000000
     52046     17349  TIP3      H1            -28.5276466405      -11.3463222861       14.3338003535  W2        17349           0.0000000000
     52047     17349  TIP3      H2            -27.1681166405      -11.5244222861       14.9755503535  W2        17349           0.0000000000
     52048     17350  TIP3      OH2           -27.1479166405       -5.5875022861        5.9082003535  W2        17350           0.0000000000
     52049     17350  TIP3      H1            -27.8928166405       -6.0949722861        5.5859903535  W2        17350           0.0000000000
     52050     17350  TIP3      H2            -27.2821966405       -5.5387022861        6.8546803535  W2        17350           0.0000000000
     52051     17351  TIP3      OH2           -19.9980266405       -6.4546822861       14.6949603535  W2        17351           0.0000000000
     52052     17351  TIP3      H1            -19.3561466405       -5.9980522861       14.1511803535  W2        17351           0.0000000000
     52053     17351  TIP3      H2            -20.8283366405       -6.3414422861       14.2323703535  W2        17351           0.0000000000
     52054     17352  TIP3      OH2           -23.2502366405      -12.7735122861        4.1074603535  W2        17352           0.0000000000
     52055     17352  TIP3      H1            -24.1888166405      -12.6619522861        3.9563403535  W2        17352           0.0000000000
     52056     17352  TIP3      H2            -22.9530266405      -11.9168222861        4.4140303535  W2        17352           0.0000000000
     52057     17353  TIP3      OH2           -25.6287066405       -5.4031722861       17.1451103535  W2        17353           0.0000000000
     52058     17353  TIP3      H1            -25.9740966405       -5.7849322861       17.9520703535  W2        17353           0.0000000000
     52059     17353  TIP3      H2            -25.8286966405       -4.4698122861       17.2164003535  W2        17353           0.0000000000
     52060     17354  TIP3      OH2           -22.5318866405      -10.9062422861        5.7682003535  W2        17354           0.0000000000
     52061     17354  TIP3      H1            -21.6399866405      -11.0437422861        6.0873203535  W2        17354           0.0000000000
     52062     17354  TIP3      H2            -22.4755266405      -10.1156322861        5.2315503535  W2        17354           0.0000000000
     52063     17355  TIP3      OH2           -32.0230866405       -6.2925022861       11.6779903535  W2        17355           0.0000000000
     52064     17355  TIP3      H1            -31.2783666405       -6.2949322861       11.0766403535  W2        17355           0.0000000000
     52065     17355  TIP3      H2            -31.9454266405       -7.1161222861       12.1595003535  W2        17355           0.0000000000
     52066     17356  TIP3      OH2           -25.0225066405       -4.1290722861        4.9336603535  W2        17356           0.0000000000
     52067     17356  TIP3      H1            -25.3176666405       -3.3022822861        5.3151403535  W2        17356           0.0000000000
     52068     17356  TIP3      H2            -25.7255066405       -4.7483822861        5.1298003535  W2        17356           0.0000000000
     52069     17357  TIP3      OH2           -35.0151166405       -7.8318122861       16.9928403535  W2        17357           0.0000000000
     52070     17357  TIP3      H1            -34.7922566405       -8.2498522861       17.8245903535  W2        17357           0.0000000000
     52071     17357  TIP3      H2            -35.6171066405       -8.4443122861       16.5701203535  W2        17357           0.0000000000
     52072     17358  TIP3      OH2           -27.9986266405       -8.3148222861       19.2058103535  W2        17358           0.0000000000
     52073     17358  TIP3      H1            -28.2945466405       -8.4805222861       18.3107203535  W2        17358           0.0000000000
     52074     17358  TIP3      H2            -27.0671066405       -8.5347922861       19.1952003535  W2        17358           0.0000000000
     52075     17359  TIP3      OH2           -23.3783466405       -2.9416222861       17.0956103535  W2        17359           0.0000000000
     52076     17359  TIP3      H1            -24.2789166405       -2.7583622861       16.8280003535  W2        17359           0.0000000000
     52077     17359  TIP3      H2            -23.3442366405       -2.6826922861       18.0164903535  W2        17359           0.0000000000
     52078     17360  TIP3      OH2           -17.6470166405      -10.6968322861        5.4628703535  W2        17360           0.0000000000
     52079     17360  TIP3      H1            -18.2013866405      -11.0930322861        4.7906203535  W2        17360           0.0000000000
     52080     17360  TIP3      H2            -17.5466566405       -9.7863122861        5.1852003535  W2        17360           0.0000000000
     52081     17361  TIP3      OH2           -17.6838166405       -4.8966622861       18.3000203535  W2        17361           0.0000000000
     52082     17361  TIP3      H1            -18.5349666405       -4.6582822861       17.9326603535  W2        17361           0.0000000000
     52083     17361  TIP3      H2            -17.0934766405       -4.9133422861       17.5467303535  W2        17361           0.0000000000
     52084     17362  TIP3      OH2           -19.3518466405       -1.9107922861        5.9280803535  W2        17362           0.0000000000
     52085     17362  TIP3      H1            -19.7247366405       -2.7364122861        6.2371403535  W2        17362           0.0000000000
     52086     17362  TIP3      H2            -19.0744966405       -2.0938522861        5.0304203535  W2        17362           0.0000000000
     52087     17363  TIP3      OH2           -22.1914566405       -7.1028422861       12.9492703535  W2        17363           0.0000000000
     52088     17363  TIP3      H1            -23.1197666405       -7.3346522861       12.9222003535  W2        17363           0.0000000000
     52089     17363  TIP3      H2            -21.7403466405       -7.8798622861       12.6191503535  W2        17363           0.0000000000
     52090     17364  TIP3      OH2           -29.6481466405       -2.7746822861        9.0821403535  W2        17364           0.0000000000
     52091     17364  TIP3      H1            -29.1209266405       -2.0012422861        8.8820203535  W2        17364           0.0000000000
     52092     17364  TIP3      H2            -30.5282966405       -2.5497622861        8.7805403535  W2        17364           0.0000000000
     52093     17365  TIP3      OH2           -33.8933766405       -7.9122722861        3.6693803535  W2        17365           0.0000000000
     52094     17365  TIP3      H1            -33.2773866405       -7.2855522861        4.0488603535  W2        17365           0.0000000000
     52095     17365  TIP3      H2            -34.7551166405       -7.5962922861        3.9410303535  W2        17365           0.0000000000
     52096     17366  TIP3      OH2           -28.2209166405       -5.1116922861        8.6585703535  W2        17366           0.0000000000
     52097     17366  TIP3      H1            -28.4619166405       -4.1862522861        8.7001003535  W2        17366           0.0000000000
     52098     17366  TIP3      H2            -28.9615566405       -5.5705622861        9.0549603535  W2        17366           0.0000000000
     52099     17367  TIP3      OH2           -27.7062566405       -0.9623322861       14.9736803535  W2        17367           0.0000000000
     52100     17367  TIP3      H1            -27.3437866405       -0.1077722861       14.7401203535  W2        17367           0.0000000000
     52101     17367  TIP3      H2            -27.1747366405       -1.2541722861       15.7143103535  W2        17367           0.0000000000
     52102     17368  TIP3      OH2           -29.5378366405       -0.0899322861        8.2037903535  W2        17368           0.0000000000
     52103     17368  TIP3      H1            -30.4877866405        0.0158077139        8.2551203535  W2        17368           0.0000000000
     52104     17368  TIP3      H2            -29.1860266405        0.7308077139        8.5485403535  W2        17368           0.0000000000
     52105     17369  TIP3      OH2           -24.1621766405       -4.8632622861       14.6742403535  W2        17369           0.0000000000
     52106     17369  TIP3      H1            -24.5880466405       -5.0910922861       15.5006403535  W2        17369           0.0000000000
     52107     17369  TIP3      H2            -23.5815966405       -5.6020822861       14.4917703535  W2        17369           0.0000000000
     52108     17370  TIP3      OH2           -21.9592866405       -3.9342122861        3.7481403535  W2        17370           0.0000000000
     52109     17370  TIP3      H1            -21.6059766405       -4.3142322861        4.5524903535  W2        17370           0.0000000000
     52110     17370  TIP3      H2            -22.9079366405       -4.0277322861        3.8350703535  W2        17370           0.0000000000
     52111     17371  TIP3      OH2           -21.5037566405       -0.3113122861       17.1437203535  W2        17371           0.0000000000
     52112     17371  TIP3      H1            -22.1054366405       -0.8670222861       16.6483503535  W2        17371           0.0000000000
     52113     17371  TIP3      H2            -21.2223866405        0.3556677139       16.5174603535  W2        17371           0.0000000000
     52114     17372  TIP3      OH2           -17.4558466405        0.5450377139        3.9491603535  W2        17372           0.0000000000
     52115     17372  TIP3      H1            -16.7120566405        1.1310877139        3.8093203535  W2        17372           0.0000000000
     52116     17372  TIP3      H2            -18.1500366405        1.1136177139        4.2824003535  W2        17372           0.0000000000
     52117     17373  TIP3      OH2           -33.3811666405      -13.0785422861       16.5509803535  W2        17373           0.0000000000
     52118     17373  TIP3      H1            -34.2739366405      -12.7400022861       16.4833803535  W2        17373           0.0000000000
     52119     17373  TIP3      H2            -33.4798866405      -13.9339322861       16.9690603535  W2        17373           0.0000000000
     52120     17374  TIP3      OH2           -21.0933566405       -5.2620122861        5.9749303535  W2        17374           0.0000000000
     52121     17374  TIP3      H1            -21.3705966405       -5.9900822861        6.5310403535  W2        17374           0.0000000000
     52122     17374  TIP3      H2            -20.1660566405       -5.1428122861        6.1801903535  W2        17374           0.0000000000
     52123     17375  TIP3      OH2           -33.7299666405       -1.2741022861       14.9859203535  W2        17375           0.0000000000
     52124     17375  TIP3      H1            -33.5129366405       -2.2058622861       14.9548903535  W2        17375           0.0000000000
     52125     17375  TIP3      H2            -33.4836166405       -0.9996022861       15.8692003535  W2        17375           0.0000000000
     52126     17376  TIP3      OH2           -27.8685066405       -2.8226022861        2.1951403535  W2        17376           0.0000000000
     52127     17376  TIP3      H1            -27.6295266405       -3.5707922861        1.6480303535  W2        17376           0.0000000000
     52128     17376  TIP3      H2            -28.1373766405       -3.2104322861        3.0279203535  W2        17376           0.0000000000
     52129     17377  TIP3      OH2           -28.9314466405       -3.2522222861        4.6514003535  W2        17377           0.0000000000
     52130     17377  TIP3      H1            -28.7846466405       -3.7722422861        5.4414903535  W2        17377           0.0000000000
     52131     17377  TIP3      H2            -28.9342766405       -2.3454622861        4.9579903535  W2        17377           0.0000000000
     52132     17378  TIP3      OH2           -32.4783366405       -5.9998922861        5.1619403535  W2        17378           0.0000000000
     52133     17378  TIP3      H1            -33.1644066405       -5.6476422861        5.7289103535  W2        17378           0.0000000000
     52134     17378  TIP3      H2            -31.9555466405       -5.2369322861        4.9153703535  W2        17378           0.0000000000
     52135     17379  TIP3      OH2           -24.6468266405      -13.3375122861       15.4408403535  W2        17379           0.0000000000
     52136     17379  TIP3      H1            -23.9480366405      -13.2636422861       16.0908103535  W2        17379           0.0000000000
     52137     17379  TIP3      H2            -25.0276866405      -14.2020122861       15.5951303535  W2        17379           0.0000000000
     52138     17380  TIP3      OH2           -23.8623366405      -13.6853422861        6.5380703535  W2        17380           0.0000000000
     52139     17380  TIP3      H1            -23.6425066405      -13.2138022861        5.7346103535  W2        17380           0.0000000000
     52140     17380  TIP3      H2            -23.3039366405      -13.2910822861        7.2081303535  W2        17380           0.0000000000
     52141     17381  TIP3      OH2           -26.1937266405       -1.5548622861        5.4008203535  W2        17381           0.0000000000
     52142     17381  TIP3      H1            -27.0101166405       -1.0578922861        5.4532503535  W2        17381           0.0000000000
     52143     17381  TIP3      H2            -25.6640966405       -1.0795122861        4.7607003535  W2        17381           0.0000000000
     52144     17382  TIP3      OH2           -26.6623466405      -11.9574622861        7.3729103535  W2        17382           0.0000000000
     52145     17382  TIP3      H1            -25.8500866405      -11.4531422861        7.4190803535  W2        17382           0.0000000000
     52146     17382  TIP3      H2            -26.9070466405      -12.1024922861        8.2868703535  W2        17382           0.0000000000
     52147     17383  TIP3      OH2           -26.1267066405      -10.9711922861       16.5575703535  W2        17383           0.0000000000
     52148     17383  TIP3      H1            -26.0076766405      -10.3976522861       17.3146103535  W2        17383           0.0000000000
     52149     17383  TIP3      H2            -25.4712466405      -11.6592522861       16.6723503535  W2        17383           0.0000000000
     52150     17384  TIP3      OH2           -25.7786766405      -14.8761622861        8.3110203535  W2        17384           0.0000000000
     52151     17384  TIP3      H1            -26.1253266405      -14.2591022861        8.9554503535  W2        17384           0.0000000000
     52152     17384  TIP3      H2            -25.1199866405      -14.3755922861        7.8295703535  W2        17384           0.0000000000
     52153     17385  TIP3      OH2           -28.8554166405       -0.5111422861        5.3825103535  W2        17385           0.0000000000
     52154     17385  TIP3      H1            -28.6945466405        0.2886077139        4.8817703535  W2        17385           0.0000000000
     52155     17385  TIP3      H2            -29.0526366405       -0.2045422861        6.2675703535  W2        17385           0.0000000000
     52156     17386  TIP3      OH2           -30.1209766405      -13.8132222861        4.9982703535  W2        17386           0.0000000000
     52157     17386  TIP3      H1            -30.2044966405      -12.9249122861        5.3449103535  W2        17386           0.0000000000
     52158     17386  TIP3      H2            -29.2309466405      -14.0785522861        5.2299503535  W2        17386           0.0000000000
     52159     17387  TIP3      OH2           -19.9221266405      -13.0641622861       17.3925403535  W2        17387           0.0000000000
     52160     17387  TIP3      H1            -20.8385466405      -12.8019922861       17.3049103535  W2        17387           0.0000000000
     52161     17387  TIP3      H2            -19.5866266405      -13.0672622861       16.4960703535  W2        17387           0.0000000000
     52162     17388  TIP3      OH2           -21.3200266405       -9.3140622861       11.4882703535  W2        17388           0.0000000000
     52163     17388  TIP3      H1            -22.1175866405       -9.7290422861       11.1597703535  W2        17388           0.0000000000
     52164     17388  TIP3      H2            -20.8749166405      -10.0046922861       11.9793203535  W2        17388           0.0000000000
     52165     17389  TIP3      OH2           -31.8624466405       -3.3860022861        4.0587203535  W2        17389           0.0000000000
     52166     17389  TIP3      H1            -31.2702966405       -2.6865222861        4.3349603535  W2        17389           0.0000000000
     52167     17389  TIP3      H2            -31.4031466405       -3.8190522861        3.3391803535  W2        17389           0.0000000000
     52168     17390  TIP3      OH2           -33.5465266405      -10.7217022861        3.1746603535  W2        17390           0.0000000000
     52169     17390  TIP3      H1            -33.5912666405       -9.7823922861        3.3533603535  W2        17390           0.0000000000
     52170     17390  TIP3      H2            -34.4342066405      -10.9572122861        2.9048703535  W2        17390           0.0000000000
     52171     17391  TIP3      OH2           -20.2335666405       -0.0578122861       13.1106203535  W2        17391           0.0000000000
     52172     17391  TIP3      H1            -20.3891366405        0.6206277139       12.4535503535  W2        17391           0.0000000000
     52173     17391  TIP3      H2            -19.3009266405        0.0141177139       13.3136803535  W2        17391           0.0000000000
     52174     17392  TIP3      OH2           -32.7383266405      -15.9400422861       11.8477603535  W2        17392           0.0000000000
     52175     17392  TIP3      H1            -32.9673466405      -15.8807922861       10.9202603535  W2        17392           0.0000000000
     52176     17392  TIP3      H2            -33.1809866405      -16.7314922861       12.1541703535  W2        17392           0.0000000000
     52177     17393  TIP3      OH2           -33.8079966405       -1.9993322861        8.0083403535  W2        17393           0.0000000000
     52178     17393  TIP3      H1            -34.6401366405       -1.5270622861        8.0354803535  W2        17393           0.0000000000
     52179     17393  TIP3      H2            -33.2621666405       -1.4895722861        7.4096503535  W2        17393           0.0000000000
     52180     17394  TIP3      OH2           -34.5196266405        0.6130377139       19.3381403535  W2        17394           0.0000000000
     52181     17394  TIP3      H1            -33.9794066405        0.3964377139       20.0980603535  W2        17394           0.0000000000
     52182     17394  TIP3      H2            -35.0008266405       -0.1923622861       19.1483903535  W2        17394           0.0000000000
     52183     17395  TIP3      OH2           -29.9222866405       -0.4675222861       20.9585603535  W2        17395           0.0000000000
     52184     17395  TIP3      H1            -29.1545666405       -0.9264422861       21.2994803535  W2        17395           0.0000000000
     52185     17395  TIP3      H2            -29.9436666405       -0.6935422861       20.0286803535  W2        17395           0.0000000000
     52186     17396  TIP3      OH2           -25.8303266405       -0.9594622861        2.3337403535  W2        17396           0.0000000000
     52187     17396  TIP3      H1            -26.4742266405       -1.5906022861        2.6551103535  W2        17396           0.0000000000
     52188     17396  TIP3      H2            -25.0684966405       -1.4906622861        2.1020903535  W2        17396           0.0000000000
     52189     17397  TIP3      OH2           -23.3454166405       -2.0874122861       19.6877103535  W2        17397           0.0000000000
     52190     17397  TIP3      H1            -23.6964666405       -2.9441122861       19.9307503535  W2        17397           0.0000000000
     52191     17397  TIP3      H2            -22.6190966405       -1.9447422861       20.2946103535  W2        17397           0.0000000000
     52192     17398  TIP3      OH2           -21.2260366405       -1.1424722861        2.5675403535  W2        17398           0.0000000000
     52193     17398  TIP3      H1            -20.9429966405       -1.9369522861        3.0202303535  W2        17398           0.0000000000
     52194     17398  TIP3      H2            -20.4862466405       -0.9093722861        2.0066503535  W2        17398           0.0000000000
     52195     17399  TIP3      OH2           -34.6126766405       -5.5765522861       20.2925703535  W2        17399           0.0000000000
     52196     17399  TIP3      H1            -34.4686266405       -6.4784822861       20.0062403535  W2        17399           0.0000000000
     52197     17399  TIP3      H2            -35.3849366405       -5.2903422861       19.8048003535  W2        17399           0.0000000000
     52198     17400  TIP3      OH2           -30.2713066405       -5.2329822861        2.4250303535  W2        17400           0.0000000000
     52199     17400  TIP3      H1            -30.2068966405       -6.0270222861        2.9556703535  W2        17400           0.0000000000
     52200     17400  TIP3      H2            -29.6183866405       -5.3517022861        1.7352303535  W2        17400           0.0000000000
     52201     17401  TIP3      OH2           -27.9570666405       -5.6067422861       19.7252103535  W2        17401           0.0000000000
     52202     17401  TIP3      H1            -28.2856866405       -5.3359322861       18.8679503535  W2        17401           0.0000000000
     52203     17401  TIP3      H2            -27.8052466405       -6.5477622861       19.6377103535  W2        17401           0.0000000000
     52204     17402  TIP3      OH2           -24.9189666405       -4.1858122861        2.1608303535  W2        17402           0.0000000000
     52205     17402  TIP3      H1            -25.1875566405       -4.0056022861        3.0617203535  W2        17402           0.0000000000
     52206     17402  TIP3      H2            -25.1254066405       -5.1111922861        2.0294103535  W2        17402           0.0000000000
     52207     17403  TIP3      OH2           -22.2225466405       -5.6910122861       17.1084403535  W2        17403           0.0000000000
     52208     17403  TIP3      H1            -21.4770666405       -5.1026422861       16.9888403535  W2        17403           0.0000000000
     52209     17403  TIP3      H2            -22.9798666405       -5.1090422861       17.1717503535  W2        17403           0.0000000000
     52210     17404  TIP3      OH2           -33.7800266405       -8.3762222861       19.7125003535  W2        17404           0.0000000000
     52211     17404  TIP3      H1            -33.3719066405       -9.2335622861       19.5915603535  W2        17404           0.0000000000
     52212     17404  TIP3      H2            -34.0402666405       -8.3620922861       20.6335303535  W2        17404           0.0000000000
     52213     17405  TIP3      OH2           -29.1219266405       -7.2603622861        4.7308303535  W2        17405           0.0000000000
     52214     17405  TIP3      H1            -29.5817266405       -7.7445322861        5.4166803535  W2        17405           0.0000000000
     52215     17405  TIP3      H2            -28.8670566405       -7.9288222861        4.0948803535  W2        17405           0.0000000000
     52216     17406  TIP3      OH2           -29.8329966405       -9.3676522861       17.0867903535  W2        17406           0.0000000000
     52217     17406  TIP3      H1            -30.4513866405       -8.6929922861       17.3672603535  W2        17406           0.0000000000
     52218     17406  TIP3      H2            -29.4888766405       -9.0462622861       16.2534103535  W2        17406           0.0000000000
     52219     17407  TIP3      OH2           -28.0508866405       -9.0171822861        2.9931503535  W2        17407           0.0000000000
     52220     17407  TIP3      H1            -28.2313866405       -9.1720622861        2.0659803535  W2        17407           0.0000000000
     52221     17407  TIP3      H2            -27.1008366405       -8.9093122861        3.0379403535  W2        17407           0.0000000000
     52222     17408  TIP3      OH2           -24.8131766405       -6.8961222861       20.3642703535  W2        17408           0.0000000000
     52223     17408  TIP3      H1            -23.8600566405       -6.8122122861       20.3368703535  W2        17408           0.0000000000
     52224     17408  TIP3      H2            -24.9737166405       -7.6079422861       20.9837603535  W2        17408           0.0000000000
     52225     17409  TIP3      OH2           -18.6610566405       -6.6627622861        2.4389603535  W2        17409           0.0000000000
     52226     17409  TIP3      H1            -18.9345766405       -7.0872122861        1.6257903535  W2        17409           0.0000000000
     52227     17409  TIP3      H2            -18.6216466405       -5.7313122861        2.2220003535  W2        17409           0.0000000000
     52228     17410  TIP3      OH2           -29.4936266405      -12.0125722861       18.1691003535  W2        17410           0.0000000000
     52229     17410  TIP3      H1            -29.3435366405      -12.7414422861       17.5670703535  W2        17410           0.0000000000
     52230     17410  TIP3      H2            -29.4913866405      -11.2354022861       17.6103203535  W2        17410           0.0000000000
     52231     17411  TIP3      OH2           -29.0810566405      -13.6429922861       15.6618403535  W2        17411           0.0000000000
     52232     17411  TIP3      H1            -28.5453066405      -13.1913222861       15.0097703535  W2        17411           0.0000000000
     52233     17411  TIP3      H2            -29.9330966405      -13.7510122861       15.2392503535  W2        17411           0.0000000000
     52234     17412  TIP3      OH2           -27.4992166405       -8.2033722861       15.9013603535  W2        17412           0.0000000000
     52235     17412  TIP3      H1            -26.7487366405       -8.3596222861       15.3281403535  W2        17412           0.0000000000
     52236     17412  TIP3      H2            -27.8383866405       -7.3517122861       15.6259103535  W2        17412           0.0000000000
     52237     17413  TIP3      OH2           -23.0835966405      -10.3881922861       20.9298903535  W2        17413           0.0000000000
     52238     17413  TIP3      H1            -22.8914666405      -11.3192522861       20.8183403535  W2        17413           0.0000000000
     52239     17413  TIP3      H2            -22.2259666405       -9.9632422861       20.9194303535  W2        17413           0.0000000000
     52240     17414  TIP3      OH2           -21.7668766405       -7.5996722861       19.0071603535  W2        17414           0.0000000000
     52241     17414  TIP3      H1            -22.0483766405       -6.8902122861       18.4295403535  W2        17414           0.0000000000
     52242     17414  TIP3      H2            -20.8244466405       -7.6723722861       18.8562803535  W2        17414           0.0000000000
     52243     17415  TIP3      OH2           -31.0149966405      -10.8142222861       20.0806603535  W2        17415           0.0000000000
     52244     17415  TIP3      H1            -31.7820966405      -11.3467422861       19.8704203535  W2        17415           0.0000000000
     52245     17415  TIP3      H2            -30.3360966405      -11.1241822861       19.4812903535  W2        17415           0.0000000000
     52246     17416  TIP3      OH2           -28.2755066405      -16.1864222861       16.0932003535  W2        17416           0.0000000000
     52247     17416  TIP3      H1            -28.3735466405      -15.2401022861       15.9878203535  W2        17416           0.0000000000
     52248     17416  TIP3      H2            -29.0178866405      -16.5590422861       15.6175503535  W2        17416           0.0000000000
     52249     17417  TIP3      OH2           -27.0114566405      -11.8648822861       19.6570403535  W2        17417           0.0000000000
     52250     17417  TIP3      H1            -27.2469166405      -12.0842122861       20.5585303535  W2        17417           0.0000000000
     52251     17417  TIP3      H2            -27.7947666405      -12.0717622861       19.1472903535  W2        17417           0.0000000000
     52252     17418  TIP3      OH2           -24.2957966405      -12.7375322861       18.7323903535  W2        17418           0.0000000000
     52253     17418  TIP3      H1            -25.2432566405      -12.7055622861       18.8647203535  W2        17418           0.0000000000
     52254     17418  TIP3      H2            -23.9831266405      -13.3628222861       19.3862103535  W2        17418           0.0000000000
     52255     17419  TIP3      OH2           -22.6616466405      -14.1034222861       20.7375803535  W2        17419           0.0000000000
     52256     17419  TIP3      H1            -22.7584666405      -15.0556922861       20.7317703535  W2        17419           0.0000000000
     52257     17419  TIP3      H2            -22.9833366405      -13.8347422861       21.5981303535  W2        17419           0.0000000000
     52258     17420  TIP3      OH2           -32.8347166405      -12.8938422861       19.7851303535  W2        17420           0.0000000000
     52259     17420  TIP3      H1            -32.6229766405      -13.6002322861       19.1748803535  W2        17420           0.0000000000
     52260     17420  TIP3      H2            -32.9459666405      -13.3312422861       20.6292503535  W2        17420           0.0000000000
     52261     17421  TIP3      OH2           -28.0536966405      -16.8926822861       18.7644803535  W2        17421           0.0000000000
     52262     17421  TIP3      H1            -27.3418566405      -17.5324622861       18.7503903535  W2        17421           0.0000000000
     52263     17421  TIP3      H2            -28.1546566405      -16.6258522861       17.8507903535  W2        17421           0.0000000000
     52264     17422  TIP3      OH2           -27.6999466405      -15.2098422861       20.8181103535  W2        17422           0.0000000000
     52265     17422  TIP3      H1            -27.8317266405      -15.6854622861       19.9979603535  W2        17422           0.0000000000
     52266     17422  TIP3      H2            -28.2992066405      -14.4654822861       20.7628203535  W2        17422           0.0000000000
     52267     17423  TIP3      OH2           -28.1537166405        1.6731877139        3.9945103535  W2        17423           0.0000000000
     52268     17423  TIP3      H1            -27.2206466405        1.8310577139        4.1383503535  W2        17423           0.0000000000
     52269     17423  TIP3      H2            -28.4178366405        2.3484877139        3.3696603535  W2        17423           0.0000000000
     52270     17424  TIP3      OH2           -34.5852266405       -3.6904322861        3.4773203535  W2        17424           0.0000000000
     52271     17424  TIP3      H1            -33.6713066405       -3.6115422861        3.7507103535  W2        17424           0.0000000000
     52272     17424  TIP3      H2            -34.5779166405       -4.3774722861        2.8108803535  W2        17424           0.0000000000
     52273     17425  TIP3      OH2           -35.9361666405        1.7024177139        8.5547103535  W2        17425           0.0000000000
     52274     17425  TIP3      H1            -36.5834566405        1.2405877139        8.0218303535  W2        17425           0.0000000000
     52275     17425  TIP3      H2            -35.5817066405        1.0307477139        9.1373303535  W2        17425           0.0000000000
     52276     17426  TIP3      OH2           -35.0662466405       -0.2168822861       10.3593303535  W2        17426           0.0000000000
     52277     17426  TIP3      H1            -35.4005666405       -1.0971522861       10.5313503535  W2        17426           0.0000000000
     52278     17426  TIP3      H2            -34.8440066405        0.1286177139       11.2238903535  W2        17426           0.0000000000
     52279     17427  TIP3      OH2           -17.5177666405        0.5927577139       13.3398103535  W2        17427           0.0000000000
     52280     17427  TIP3      H1            -17.5390966405        0.7775977139       14.2787503535  W2        17427           0.0000000000
     52281     17427  TIP3      H2            -16.8271466405        1.1611577139       12.9989503535  W2        17427           0.0000000000
     52282     17428  TIP3      OH2           -17.9544766405        0.1598677139       16.2617203535  W2        17428           0.0000000000
     52283     17428  TIP3      H1            -18.4416066405       -0.5757222861       15.8904603535  W2        17428           0.0000000000
     52284     17428  TIP3      H2            -17.4052066405       -0.2337422861       16.9396603535  W2        17428           0.0000000000
     52285     17429  TIP3      OH2           -19.5037466405       -4.0503222861       20.8997503535  W2        17429           0.0000000000
     52286     17429  TIP3      H1            -20.3696366405       -4.1553522861       21.2939803535  W2        17429           0.0000000000
     52287     17429  TIP3      H2            -19.1271566405       -3.2919922861       21.3462203535  W2        17429           0.0000000000
     52288     17430  TIP3      OH2           -18.2027766405       -5.7939522861        6.4140003535  W2        17430           0.0000000000
     52289     17430  TIP3      H1            -17.3526366405       -5.3728622861        6.5411603535  W2        17430           0.0000000000
     52290     17430  TIP3      H2            -18.1972666405       -6.5339422861        7.0211403535  W2        17430           0.0000000000
     52291     17431  TIP3      OH2           -17.8082166405       -7.7402122861        8.2375703535  W2        17431           0.0000000000
     52292     17431  TIP3      H1            -18.5347566405       -8.2199522861        8.6353303535  W2        17431           0.0000000000
     52293     17431  TIP3      H2            -17.2268866405       -7.5347422861        8.9697303535  W2        17431           0.0000000000
     52294     17432  TIP3      OH2           -18.0490966405       -4.9554622861       13.1853303535  W2        17432           0.0000000000
     52295     17432  TIP3      H1            -17.2156766405       -5.3334622861       12.9046903535  W2        17432           0.0000000000
     52296     17432  TIP3      H2            -17.9370666405       -4.0123422861       13.0662403535  W2        17432           0.0000000000
     52297     17433  TIP3      OH2           -19.5628666405       -2.0777122861       15.4921703535  W2        17433           0.0000000000
     52298     17433  TIP3      H1            -20.2103366405       -1.7525622861       16.1176903535  W2        17433           0.0000000000
     52299     17433  TIP3      H2            -20.0804666405       -2.5179422861       14.8180003535  W2        17433           0.0000000000
     52300     17434  TIP3      OH2           -17.5399066405       -7.8393622861        4.6287003535  W2        17434           0.0000000000
     52301     17434  TIP3      H1            -18.0617966405       -7.4829522861        3.9097903535  W2        17434           0.0000000000
     52302     17434  TIP3      H2            -17.5729866405       -7.1645822861        5.3067903535  W2        17434           0.0000000000
     52303     17435  TIP3      OH2           -19.1910066405      -10.5998022861        3.1794103535  W2        17435           0.0000000000
     52304     17435  TIP3      H1            -19.0945666405       -9.9331022861        2.4993803535  W2        17435           0.0000000000
     52305     17435  TIP3      H2            -19.3310466405      -11.4151722861        2.6979603535  W2        17435           0.0000000000
     52306     17436  TIP3      OH2           -20.0215366405       -9.2195622861        8.8004403535  W2        17436           0.0000000000
     52307     17436  TIP3      H1            -20.1716566405      -10.1647022861        8.7802203535  W2        17436           0.0000000000
     52308     17436  TIP3      H2            -20.3750866405       -8.9384222861        9.6443503535  W2        17436           0.0000000000
     52309     17437  TIP3      OH2           -34.9862966405       -7.1413422861       12.8108203535  W2        17437           0.0000000000
     52310     17437  TIP3      H1            -34.8020066405       -7.2231722861       11.8751103535  W2        17437           0.0000000000
     52311     17437  TIP3      H2            -34.1370066405       -7.2656422861       13.2344603535  W2        17437           0.0000000000
     52312     17438  TIP3      OH2           -19.1652466405       -7.2492322861       18.4392703535  W2        17438           0.0000000000
     52313     17438  TIP3      H1            -18.5825166405       -7.9840022861       18.6309903535  W2        17438           0.0000000000
     52314     17438  TIP3      H2            -18.6013166405       -6.4772022861       18.4858503535  W2        17438           0.0000000000
     52315     17439  TIP3      OH2           -17.6685366405       -9.3466522861       19.1238103535  W2        17439           0.0000000000
     52316     17439  TIP3      H1            -18.5318666405       -9.7254422861       18.9582803535  W2        17439           0.0000000000
     52317     17439  TIP3      H2            -17.0641666405      -10.0851722861       19.0493903535  W2        17439           0.0000000000
     52318     17440  TIP3      OH2           -19.9436266405      -13.1918222861        2.2969603535  W2        17440           0.0000000000
     52319     17440  TIP3      H1            -19.3330466405      -13.5631422861        2.9337803535  W2        17440           0.0000000000
     52320     17440  TIP3      H2            -20.7804766405      -13.6131322861        2.4929603535  W2        17440           0.0000000000
     52321     17441  TIP3      OH2           -20.3110566405      -11.6369822861        7.2629503535  W2        17441           0.0000000000
     52322     17441  TIP3      H1            -20.0313466405      -12.5439422861        7.3871203535  W2        17441           0.0000000000
     52323     17441  TIP3      H2            -19.5518866405      -11.2028322861        6.8738703535  W2        17441           0.0000000000
     52324     17442  TIP3      OH2           -19.6992266405      -11.0552422861       12.6988403535  W2        17442           0.0000000000
     52325     17442  TIP3      H1            -18.7664266405      -10.8432522861       12.6644403535  W2        17442           0.0000000000
     52326     17442  TIP3      H2            -19.9344766405      -10.9540322861       13.6211403535  W2        17442           0.0000000000
     52327     17443  TIP3      OH2           -19.6700366405      -10.3187122861       15.4747803535  W2        17443           0.0000000000
     52328     17443  TIP3      H1            -20.5129066405      -10.0506722861       15.8407603535  W2        17443           0.0000000000
     52329     17443  TIP3      H2            -19.2276066405       -9.4965222861       15.2638903535  W2        17443           0.0000000000
     52330     17444  TIP3      OH2           -35.3888166405      -11.8708422861       18.9517003535  W2        17444           0.0000000000
     52331     17444  TIP3      H1            -34.4693266405      -11.9930122861       19.1880103535  W2        17444           0.0000000000
     52332     17444  TIP3      H2            -35.8383666405      -12.6208722861       19.3410503535  W2        17444           0.0000000000
     52333     17445  TIP3      OH2           -17.3868766405      -16.3386922861       20.8282803535  W2        17445           0.0000000000
     52334     17445  TIP3      H1            -17.0371766405      -16.9923422861       20.2227503535  W2        17445           0.0000000000
     52335     17445  TIP3      H2            -17.2399266405      -15.5012822861       20.3885403535  W2        17445           0.0000000000
     52336     17446  TIP3      OH2           -19.6975766405      -14.3740522861        7.3111503535  W2        17446           0.0000000000
     52337     17446  TIP3      H1            -19.5150766405      -14.8229022861        8.1366503535  W2        17446           0.0000000000
     52338     17446  TIP3      H2            -20.2972866405      -14.9586122861        6.8476103535  W2        17446           0.0000000000
     52339     17447  TIP3      OH2           -34.1675666405      -13.5586822861       11.8429903535  W2        17447           0.0000000000
     52340     17447  TIP3      H1            -33.7224066405      -14.3504322861       12.1449603535  W2        17447           0.0000000000
     52341     17447  TIP3      H2            -33.7012666405      -12.8421622861       12.2735503535  W2        17447           0.0000000000
     52342     17448  TIP3      OH2           -35.8635366405      -10.5593822861       12.9120103535  W2        17448           0.0000000000
     52343     17448  TIP3      H1            -35.3715566405      -10.7803322861       12.1212103535  W2        17448           0.0000000000
     52344     17448  TIP3      H2            -35.5014466405       -9.7190422861       13.1929603535  W2        17448           0.0000000000
     52345     17449  TIP3      OH2           -17.8671566405      -14.2292322861       19.1774103535  W2        17449           0.0000000000
     52346     17449  TIP3      H1            -18.7845866405      -13.9585222861       19.1417603535  W2        17449           0.0000000000
     52347     17449  TIP3      H2            -17.7442166405      -14.7643922861       18.3933803535  W2        17449           0.0000000000
     52348     17450  TIP3      OH2           -17.8309566405      -14.3062422861        3.8391803535  W2        17450           0.0000000000
     52349     17450  TIP3      H1            -17.4186966405      -15.0276722861        3.3639803535  W2        17450           0.0000000000
     52350     17450  TIP3      H2            -17.1493066405      -13.6367822861        3.8976103535  W2        17450           0.0000000000
     52351     17451  TIP3      OH2           -35.5498866405      -14.3014722861        6.9662503535  W2        17451           0.0000000000
     52352     17451  TIP3      H1            -36.4750466405      -14.0928122861        6.8368003535  W2        17451           0.0000000000
     52353     17451  TIP3      H2            -35.0958966405      -13.8173922861        6.2764803535  W2        17451           0.0000000000
     52354     17452  TIP3      OH2           -20.7791666405        0.6826977139        8.9119903535  W2        17452           0.0000000000
     52355     17452  TIP3      H1            -20.1268766405        0.3349077139        8.3039003535  W2        17452           0.0000000000
     52356     17452  TIP3      H2            -20.2687866405        1.1710177139        9.5579603535  W2        17452           0.0000000000
     52357     17453  TIP3      OH2           -35.5863466405      -15.5635722861       15.3105003535  W2        17453           0.0000000000
     52358     17453  TIP3      H1            -36.2512966405      -15.8095422861       15.9535903535  W2        17453           0.0000000000
     52359     17453  TIP3      H2            -36.0292166405      -14.9415322861       14.7333003535  W2        17453           0.0000000000
     52360     17454  TIP3      OH2           -33.3944166405       -2.3881622861       19.4550803535  W2        17454           0.0000000000
     52361     17454  TIP3      H1            -34.2151666405       -2.2135122861       18.9945503535  W2        17454           0.0000000000
     52362     17454  TIP3      H2            -33.6466366405       -2.4616922861       20.3755203535  W2        17454           0.0000000000
     52363     17455  TIP3      OH2           -30.4401266405       -1.4140422861       15.7134803535  W2        17455           0.0000000000
     52364     17455  TIP3      H1            -30.8650166405       -0.6041922861       15.4309403535  W2        17455           0.0000000000
     52365     17455  TIP3      H2            -29.5358466405       -1.3286322861       15.4114603535  W2        17455           0.0000000000
     52366     17456  TIP3      OH2           -26.1289866405       -0.0150422861       18.6728503535  W2        17456           0.0000000000
     52367     17456  TIP3      H1            -25.9442366405       -0.3484322861       19.5508803535  W2        17456           0.0000000000
     52368     17456  TIP3      H2            -25.2825366405        0.2948177139       18.3507703535  W2        17456           0.0000000000
     52369     17457  TIP3      OH2           -23.7839466405        1.2708477139       17.9169903535  W2        17457           0.0000000000
     52370     17457  TIP3      H1            -23.1070566405        0.6380777139       17.6769103535  W2        17457           0.0000000000
     52371     17457  TIP3      H2            -23.4620666405        1.6718977139       18.7243203535  W2        17457           0.0000000000
     52372     17458  TIP3      OH2           -18.8665666405      -16.1396022861       16.9964903535  W2        17458           0.0000000000
     52373     17458  TIP3      H1            -19.6792166405      -15.8145722861       16.6089603535  W2        17458           0.0000000000
     52374     17458  TIP3      H2            -18.6337166405      -16.8997522861       16.4634003535  W2        17458           0.0000000000
     52375     17459  TIP3      OH2           -33.0384566405        1.8423477139       15.7610103535  W2        17459           0.0000000000
     52376     17459  TIP3      H1            -33.7588166405        2.2824477139       15.3097803535  W2        17459           0.0000000000
     52377     17459  TIP3      H2            -33.4040566405        1.5918177139       16.6094103535  W2        17459           0.0000000000
     52378     17460  TIP3      OH2           -30.5711966405        1.4427377139       14.7907303535  W2        17460           0.0000000000
     52379     17460  TIP3      H1            -31.4359766405        1.5145877139       15.1947403535  W2        17460           0.0000000000
     52380     17460  TIP3      H2            -30.6262966405        1.9894677139       14.0069803535  W2        17460           0.0000000000
     52381     17461  TIP3      OH2           -25.8606366405        1.3306277139       13.9663303535  W2        17461           0.0000000000
     52382     17461  TIP3      H1            -26.3172366405        1.8595977139       13.3121703535  W2        17461           0.0000000000
     52383     17461  TIP3      H2            -25.6978366405        1.9337677139       14.6915603535  W2        17461           0.0000000000
     52384     17462  TIP3      OH2           -23.5330066405        0.2085877139       14.9113603535  W2        17462           0.0000000000
     52385     17462  TIP3      H1            -24.4376366405        0.3736077139       14.6455703535  W2        17462           0.0000000000
     52386     17462  TIP3      H2            -23.1041466405        1.0618077139       14.8457003535  W2        17462           0.0000000000
     52387     17463  TIP3      OH2           -20.9288166405        1.7784977139       15.2061403535  W2        17463           0.0000000000
     52388     17463  TIP3      H1            -21.1106166405        2.6943877139       14.9956303535  W2        17463           0.0000000000
     52389     17463  TIP3      H2            -20.7520366405        1.3682077139       14.3596003535  W2        17463           0.0000000000
     52390     17464  TIP3      OH2           -33.6236466405        0.4655977139       12.6711903535  W2        17464           0.0000000000
     52391     17464  TIP3      H1            -33.6420466405        0.0401077139       13.5284203535  W2        17464           0.0000000000
     52392     17464  TIP3      H2            -32.8188566405        0.1470977139       12.2624103535  W2        17464           0.0000000000
     52393     17465  TIP3      OH2           -31.4823366405       -0.8245322861       11.3261803535  W2        17465           0.0000000000
     52394     17465  TIP3      H1            -31.7012666405       -1.7407922861       11.4957803535  W2        17465           0.0000000000
     52395     17465  TIP3      H2            -30.6581166405       -0.6844922861       11.7923203535  W2        17465           0.0000000000
     52396     17466  TIP3      OH2           -28.9450866405       -0.3546022861       12.1749803535  W2        17466           0.0000000000
     52397     17466  TIP3      H1            -28.7325166405       -1.2427022861       11.8880703535  W2        17466           0.0000000000
     52398     17466  TIP3      H2            -28.8805766405       -0.3888322861       13.1293803535  W2        17466           0.0000000000
     52399     17467  TIP3      OH2           -25.4367166405      -14.6905422861       11.3193103535  W2        17467           0.0000000000
     52400     17467  TIP3      H1            -26.1110366405      -15.3199822861       11.5748903535  W2        17467           0.0000000000
     52401     17467  TIP3      H2            -24.8727966405      -15.1746522861       10.7161003535  W2        17467           0.0000000000
     52402     17468  TIP3      OH2           -20.2939966405      -16.5831422861       11.4320203535  W2        17468           0.0000000000
     52403     17468  TIP3      H1            -19.6902366405      -16.0356022861       10.9301203535  W2        17468           0.0000000000
     52404     17468  TIP3      H2            -21.1637966405      -16.2641022861       11.1914303535  W2        17468           0.0000000000
     52405     17469  TIP3      OH2           -18.5669566405      -15.4442722861        9.7651103535  W2        17469           0.0000000000
     52406     17469  TIP3      H1            -17.9552066405      -15.9587022861        9.2384703535  W2        17469           0.0000000000
     52407     17469  TIP3      H2            -18.1846166405      -14.5670622861        9.7885503535  W2        17469           0.0000000000
     52408     17470  TIP3      OH2           -33.1099666405      -16.0565122861        9.1413003535  W2        17470           0.0000000000
     52409     17470  TIP3      H1            -33.8869866405      -16.2910222861        8.6338903535  W2        17470           0.0000000000
     52410     17470  TIP3      H2            -32.5796066405      -16.8533022861        9.1501003535  W2        17470           0.0000000000
     52411     17471  TIP3      OH2           -34.2736266405      -16.2587022861        4.9449103535  W2        17471           0.0000000000
     52412     17471  TIP3      H1            -33.8345566405      -15.6476522861        4.3532603535  W2        17471           0.0000000000
     52413     17471  TIP3      H2            -34.9073866405      -15.7202922861        5.4189103535  W2        17471           0.0000000000
     52414     17472  TIP3      OH2           -28.5307066405      -16.1298022861        8.9546103535  W2        17472           0.0000000000
     52415     17472  TIP3      H1            -27.6563666405      -15.7413722861        8.9250403535  W2        17472           0.0000000000
     52416     17472  TIP3      H2            -28.6666266405      -16.3450222861        9.8773303535  W2        17472           0.0000000000
     52417     17473  TIP3      OH2           -22.9738666405      -16.0998222861       10.6037803535  W2        17473           0.0000000000
     52418     17473  TIP3      H1            -22.8977066405      -16.0046622861        9.6543803535  W2        17473           0.0000000000
     52419     17473  TIP3      H2            -23.2489466405      -17.0075322861       10.7326903535  W2        17473           0.0000000000
     52420     17474  TIP3      OH2           -21.6206066405      -16.0740422861        6.2962803535  W2        17474           0.0000000000
     52421     17474  TIP3      H1            -22.3234966405      -15.4591222861        6.0864203535  W2        17474           0.0000000000
     52422     17474  TIP3      H2            -22.0654666405      -16.9113722861        6.4273703535  W2        17474           0.0000000000
     52423     17475  TIP3      OH2           -34.3726766405       -0.3104822861        5.8424203535  W2        17475           0.0000000000
     52424     17475  TIP3      H1            -35.0576866405       -0.3485922861        5.1749303535  W2        17475           0.0000000000
     52425     17475  TIP3      H2            -34.3689566405        0.6022777139        6.1306303535  W2        17475           0.0000000000
     52426     17476  TIP3      OH2           -32.4127166405      -14.3425522861        3.3873203535  W2        17476           0.0000000000
     52427     17476  TIP3      H1            -31.9213766405      -14.9723122861        2.8598703535  W2        17476           0.0000000000
     52428     17476  TIP3      H2            -31.7890866405      -14.0466122861        4.0504403535  W2        17476           0.0000000000
     52429     17477  TIP3      OH2           -27.3867066405      -14.0494022861        5.8443703535  W2        17477           0.0000000000
     52430     17477  TIP3      H1            -27.2085766405      -14.6960822861        6.5272303535  W2        17477           0.0000000000
     52431     17477  TIP3      H2            -27.4400866405      -13.2156322861        6.3114803535  W2        17477           0.0000000000
     52432     17478  TIP3      OH2           -25.5083266405        0.8990077139        4.2400403535  W2        17478           0.0000000000
     52433     17478  TIP3      H1            -24.6423066405        1.2657477139        4.0618603535  W2        17478           0.0000000000
     52434     17478  TIP3      H2            -25.7550466405        0.4598077139        3.4261203535  W2        17478           0.0000000000
     52435     17479  TIP3      OH2           -18.7993666405        0.4620377139        6.9191503535  W2        17479           0.0000000000
     52436     17479  TIP3      H1            -18.9936566405       -0.2857522861        6.3541103535  W2        17479           0.0000000000
     52437     17479  TIP3      H2            -18.8383566405        1.2200477139        6.3359403535  W2        17479           0.0000000000
     52438     17480  TIP3      OH2           -33.1521666405      -15.5423222861       18.6589203535  W2        17480           0.0000000000
     52439     17480  TIP3      H1            -33.5183466405      -16.3080622861       19.1013903535  W2        17480           0.0000000000
     52440     17480  TIP3      H2            -32.2393166405      -15.5133022861       18.9454303535  W2        17480           0.0000000000
     52441     17481  TIP3      OH2           -31.1790866405      -16.1918822861       20.1946303535  W2        17481           0.0000000000
     52442     17481  TIP3      H1            -30.2807266405      -16.4658622861       20.0099703535  W2        17481           0.0000000000
     52443     17481  TIP3      H2            -31.5657766405      -16.9342822861       20.6588903535  W2        17481           0.0000000000
     52444     17482  TIP3      OH2           -32.5545566405        0.6095977139        2.8676303535  W2        17482           0.0000000000
     52445     17482  TIP3      H1            -32.8220966405        0.8958877139        3.7409403535  W2        17482           0.0000000000
     52446     17482  TIP3      H2            -31.7832966405        0.0635177139        3.0198803535  W2        17482           0.0000000000
     52447     17483  TIP3      OH2           -22.7578566405      -16.8593522861       20.3769103535  W2        17483           0.0000000000
     52448     17483  TIP3      H1            -22.6811366405      -17.2852822861       21.2306803535  W2        17483           0.0000000000
     52449     17483  TIP3      H2            -21.8641966405      -16.8458822861       20.0342603535  W2        17483           0.0000000000
     52450     17484  TIP3      OH2           -19.5817466405       -0.7867222861       19.0693303535  W2        17484           0.0000000000
     52451     17484  TIP3      H1            -20.3635566405       -0.9729222861       18.5493903535  W2        17484           0.0000000000
     52452     17484  TIP3      H2            -19.6537566405        0.1427077139       19.2865803535  W2        17484           0.0000000000
     52453     17485  TIP3      OH2            -5.1757066405       -6.9002822861        9.1000503535  W2        17485           0.0000000000
     52454     17485  TIP3      H1             -5.0865966405       -5.9564622861        8.9677603535  W2        17485           0.0000000000
     52455     17485  TIP3      H2             -5.8139466405       -7.1756422861        8.4419903535  W2        17485           0.0000000000
     52456     17486  TIP3      OH2            -6.2425766405       -7.6452122861       12.5188703535  W2        17486           0.0000000000
     52457     17486  TIP3      H1             -6.2808266405       -8.2915822861       13.2238303535  W2        17486           0.0000000000
     52458     17486  TIP3      H2             -6.5649266405       -8.1117722861       11.7477403535  W2        17486           0.0000000000
     52459     17487  TIP3      OH2           -13.8740766405       -8.0310022861       14.1118603535  W2        17487           0.0000000000
     52460     17487  TIP3      H1            -13.8328666405       -8.6566722861       14.8351003535  W2        17487           0.0000000000
     52461     17487  TIP3      H2            -13.1713066405       -7.4071422861       14.2939003535  W2        17487           0.0000000000
     52462     17488  TIP3      OH2            -2.5365566405       -4.7061722861       10.8203803535  W2        17488           0.0000000000
     52463     17488  TIP3      H1             -2.9772866405       -5.4265722861       11.2709403535  W2        17488           0.0000000000
     52464     17488  TIP3      H2             -2.5495866405       -3.9854522861       11.4501503535  W2        17488           0.0000000000
     52465     17489  TIP3      OH2           -12.9507666405       -3.5811122861       12.6467703535  W2        17489           0.0000000000
     52466     17489  TIP3      H1            -13.3202466405       -4.3830622861       12.2772003535  W2        17489           0.0000000000
     52467     17489  TIP3      H2            -12.0096566405       -3.7496222861       12.6931103535  W2        17489           0.0000000000
     52468     17490  TIP3      OH2           -16.3407166405       -9.9208522861        8.0396503535  W2        17490           0.0000000000
     52469     17490  TIP3      H1            -16.7883766405       -9.0749822861        8.0213003535  W2        17490           0.0000000000
     52470     17490  TIP3      H2            -16.9015966405      -10.5004322861        7.5241603535  W2        17490           0.0000000000
     52471     17491  TIP3      OH2           -15.6301066405       -7.7588922861       10.1654503535  W2        17491           0.0000000000
     52472     17491  TIP3      H1            -15.4167566405       -8.5287322861       10.6927503535  W2        17491           0.0000000000
     52473     17491  TIP3      H2            -14.8923466405       -7.6692222861        9.5622103535  W2        17491           0.0000000000
     52474     17492  TIP3      OH2            -5.4250066405        0.3979977139       11.0324203535  W2        17492           0.0000000000
     52475     17492  TIP3      H1             -4.8053666405       -0.2785322861       10.7593403535  W2        17492           0.0000000000
     52476     17492  TIP3      H2             -5.6332666405        0.1800777139       11.9409103535  W2        17492           0.0000000000
     52477     17493  TIP3      OH2            -7.8531366405       -5.2130722861       12.9249703535  W2        17493           0.0000000000
     52478     17493  TIP3      H1             -7.5493466405       -5.8989322861       12.3303803535  W2        17493           0.0000000000
     52479     17493  TIP3      H2             -7.1317366405       -5.0942022861       13.5427703535  W2        17493           0.0000000000
     52480     17494  TIP3      OH2             0.8098433595      -13.6115422861       13.7855903535  W2        17494           0.0000000000
     52481     17494  TIP3      H1              0.8590633595      -13.0014222861       14.5215003535  W2        17494           0.0000000000
     52482     17494  TIP3      H2              1.2353533595      -13.1504522861       13.0627003535  W2        17494           0.0000000000
     52483     17495  TIP3      OH2            -4.7124366405      -10.8188322861       13.2524503535  W2        17495           0.0000000000
     52484     17495  TIP3      H1             -4.5698466405      -11.7651322861       13.2726103535  W2        17495           0.0000000000
     52485     17495  TIP3      H2             -4.8185366405      -10.6118522861       12.3239403535  W2        17495           0.0000000000
     52486     17496  TIP3      OH2           -11.5576066405      -12.7171922861       10.5249303535  W2        17496           0.0000000000
     52487     17496  TIP3      H1            -11.5144966405      -11.8573422861       10.1065603535  W2        17496           0.0000000000
     52488     17496  TIP3      H2            -12.0151966405      -13.2697222861        9.8912503535  W2        17496           0.0000000000
     52489     17497  TIP3      OH2            -3.8353366405      -12.5866322861        8.9257603535  W2        17497           0.0000000000
     52490     17497  TIP3      H1             -3.1889066405      -12.9153122861        9.5505203535  W2        17497           0.0000000000
     52491     17497  TIP3      H2             -3.3253966405      -12.0687322861        8.3029003535  W2        17497           0.0000000000
     52492     17498  TIP3      OH2           -14.9374566405      -10.3206122861       11.2870703535  W2        17498           0.0000000000
     52493     17498  TIP3      H1            -14.2837966405      -10.8704422861       11.7190803535  W2        17498           0.0000000000
     52494     17498  TIP3      H2            -14.9135266405      -10.5947122861       10.3702703535  W2        17498           0.0000000000
     52495     17499  TIP3      OH2            -9.7810066405       -8.7704822861       10.5022203535  W2        17499           0.0000000000
     52496     17499  TIP3      H1             -9.1649066405       -9.2969422861       11.0116203535  W2        17499           0.0000000000
     52497     17499  TIP3      H2            -10.3671266405       -9.4106122861       10.0985803535  W2        17499           0.0000000000
     52498     17500  TIP3      OH2             1.2013033595      -12.1336222861       16.0215703535  W2        17500           0.0000000000
     52499     17500  TIP3      H1              0.5127633595      -11.4755522861       15.9262303535  W2        17500           0.0000000000
     52500     17500  TIP3      H2              1.2167633595      -12.3308322861       16.9581103535  W2        17500           0.0000000000
     52501     17501  TIP3      OH2           -12.7474166405      -13.7993522861       14.5990103535  W2        17501           0.0000000000
     52502     17501  TIP3      H1            -12.9662466405      -13.2692922861       13.8326103535  W2        17501           0.0000000000
     52503     17501  TIP3      H2            -13.4153266405      -13.5728022861       15.2461503535  W2        17501           0.0000000000
     52504     17502  TIP3      OH2            -5.3784366405       -4.2992422861        8.1429203535  W2        17502           0.0000000000
     52505     17502  TIP3      H1             -5.6739266405       -4.6220122861        7.2916103535  W2        17502           0.0000000000
     52506     17502  TIP3      H2             -5.7026566405       -3.3995722861        8.1841803535  W2        17502           0.0000000000
     52507     17503  TIP3      OH2           -10.1782766405       -6.1237822861       14.8863803535  W2        17503           0.0000000000
     52508     17503  TIP3      H1            -10.9183666405       -5.5256322861       14.9899003535  W2        17503           0.0000000000
     52509     17503  TIP3      H2             -9.4643266405       -5.5698222861       14.5707403535  W2        17503           0.0000000000
     52510     17504  TIP3      OH2            -2.0714966405      -13.2957022861       10.9063503535  W2        17504           0.0000000000
     52511     17504  TIP3      H1             -2.2866966405      -14.0613622861       11.4389503535  W2        17504           0.0000000000
     52512     17504  TIP3      H2             -1.4157566405      -12.8232422861       11.4192003535  W2        17504           0.0000000000
     52513     17505  TIP3      OH2           -13.1536866405      -11.9071722861       12.5512303535  W2        17505           0.0000000000
     52514     17505  TIP3      H1            -12.5400566405      -11.2744122861       12.9244703535  W2        17505           0.0000000000
     52515     17505  TIP3      H2            -12.6416166405      -12.3796722861       11.8949203535  W2        17505           0.0000000000
     52516     17506  TIP3      OH2           -11.7708466405       -4.1594822861       15.6735303535  W2        17506           0.0000000000
     52517     17506  TIP3      H1            -11.7760866405       -3.2801322861       15.2954603535  W2        17506           0.0000000000
     52518     17506  TIP3      H2            -12.6244366405       -4.2430722861       16.0985203535  W2        17506           0.0000000000
     52519     17507  TIP3      OH2           -15.6497566405       -4.4886922861        6.4554603535  W2        17507           0.0000000000
     52520     17507  TIP3      H1            -15.9216666405       -4.2595922861        5.5667503535  W2        17507           0.0000000000
     52521     17507  TIP3      H2            -15.6041866405       -3.6508122861        6.9159903535  W2        17507           0.0000000000
     52522     17508  TIP3      OH2            -2.0247866405       -2.8671022861       13.1683103535  W2        17508           0.0000000000
     52523     17508  TIP3      H1             -2.9664166405       -2.8087122861       13.3300003535  W2        17508           0.0000000000
     52524     17508  TIP3      H2             -1.7481766405       -1.9610522861       13.0312803535  W2        17508           0.0000000000
     52525     17509  TIP3      OH2            -1.7240866405      -14.5805722861       14.5857003535  W2        17509           0.0000000000
     52526     17509  TIP3      H1             -2.4601666405      -13.9698622861       14.5478303535  W2        17509           0.0000000000
     52527     17509  TIP3      H2             -1.0406866405      -14.1656722861       14.0593403535  W2        17509           0.0000000000
     52528     17510  TIP3      OH2            -8.7209466405      -16.4938422861       12.0515003535  W2        17510           0.0000000000
     52529     17510  TIP3      H1             -8.8385266405      -17.4422422861       11.9973303535  W2        17510           0.0000000000
     52530     17510  TIP3      H2             -9.5759366405      -16.1612322861       12.3246103535  W2        17510           0.0000000000
     52531     17511  TIP3      OH2            -3.7726666405       -1.0857522861        9.7934703535  W2        17511           0.0000000000
     52532     17511  TIP3      H1             -3.3474366405       -1.7929622861        9.3084303535  W2        17511           0.0000000000
     52533     17511  TIP3      H2             -3.4556666405       -0.2844822861        9.3766903535  W2        17511           0.0000000000
     52534     17512  TIP3      OH2            -2.6130166405       -3.1849022861        8.3021303535  W2        17512           0.0000000000
     52535     17512  TIP3      H1             -2.8705366405       -3.8748922861        7.6907203535  W2        17512           0.0000000000
     52536     17512  TIP3      H2             -2.5419366405       -3.6277822861        9.1477203535  W2        17512           0.0000000000
     52537     17513  TIP3      OH2            -0.9269966405       -4.6182322861       16.7794803535  W2        17513           0.0000000000
     52538     17513  TIP3      H1             -0.7873666405       -5.2099822861       16.0401803535  W2        17513           0.0000000000
     52539     17513  TIP3      H2             -0.7597166405       -3.7456422861       16.4233603535  W2        17513           0.0000000000
     52540     17514  TIP3      OH2            -6.4544566405       -7.6562822861        6.5520803535  W2        17514           0.0000000000
     52541     17514  TIP3      H1             -7.1659066405       -7.1213122861        6.2001303535  W2        17514           0.0000000000
     52542     17514  TIP3      H2             -5.7634966405       -7.6010722861        5.8919703535  W2        17514           0.0000000000
     52543     17515  TIP3      OH2            -6.4005366405       -9.1988522861        3.5905803535  W2        17515           0.0000000000
     52544     17515  TIP3      H1             -5.6995466405       -9.1761622861        4.2419803535  W2        17515           0.0000000000
     52545     17515  TIP3      H2             -6.0982466405       -9.8268822861        2.9345103535  W2        17515           0.0000000000
     52546     17516  TIP3      OH2             0.9149333595       -8.2784322861       14.8455203535  W2        17516           0.0000000000
     52547     17516  TIP3      H1              0.2623433595       -7.5838722861       14.9346103535  W2        17516           0.0000000000
     52548     17516  TIP3      H2              1.3799633595       -8.0683422861       14.0356803535  W2        17516           0.0000000000
     52549     17517  TIP3      OH2            -3.0486866405       -7.4469522861        7.5036703535  W2        17517           0.0000000000
     52550     17517  TIP3      H1             -3.7805866405       -7.2185822861        8.0767303535  W2        17517           0.0000000000
     52551     17517  TIP3      H2             -2.6014666405       -8.1606822861        7.9584203535  W2        17517           0.0000000000
     52552     17518  TIP3      OH2            -3.1513366405       -9.2726922861       16.5713703535  W2        17518           0.0000000000
     52553     17518  TIP3      H1             -3.0714266405       -8.5092522861       17.1432203535  W2        17518           0.0000000000
     52554     17518  TIP3      H2             -3.7525666405       -8.9934522861       15.8808803535  W2        17518           0.0000000000
     52555     17519  TIP3      OH2           -11.4033166405       -6.8163322861        9.3861703535  W2        17519           0.0000000000
     52556     17519  TIP3      H1            -11.7337966405       -7.1869922861        8.5678703535  W2        17519           0.0000000000
     52557     17519  TIP3      H2            -10.8149066405       -7.4869322861        9.7330003535  W2        17519           0.0000000000
     52558     17520  TIP3      OH2           -10.0365666405       -3.3882722861       12.0673903535  W2        17520           0.0000000000
     52559     17520  TIP3      H1            -10.1314366405       -3.9669622861       11.3108503535  W2        17520           0.0000000000
     52560     17520  TIP3      H2             -9.3072066405       -3.7597022861       12.5636703535  W2        17520           0.0000000000
     52561     17521  TIP3      OH2           -11.0367666405       -8.0477722861       13.0196703535  W2        17521           0.0000000000
     52562     17521  TIP3      H1            -10.4715166405       -7.9263522861       12.2567903535  W2        17521           0.0000000000
     52563     17521  TIP3      H2            -10.7178766405       -7.4102722861       13.6585203535  W2        17521           0.0000000000
     52564     17522  TIP3      OH2            -4.7275466405       -2.5445822861       13.7537203535  W2        17522           0.0000000000
     52565     17522  TIP3      H1             -4.9678866405       -1.8822722861       14.4016403535  W2        17522           0.0000000000
     52566     17522  TIP3      H2             -4.9257266405       -3.3790622861       14.1786803535  W2        17522           0.0000000000
     52567     17523  TIP3      OH2           -10.1566966405       -3.6485022861       17.7368603535  W2        17523           0.0000000000
     52568     17523  TIP3      H1            -10.4679466405       -2.8661822861       18.1921803535  W2        17523           0.0000000000
     52569     17523  TIP3      H2            -10.8066766405       -3.8015922861       17.0510603535  W2        17523           0.0000000000
     52570     17524  TIP3      OH2            -4.1777366405       -8.2846622861        5.1887903535  W2        17524           0.0000000000
     52571     17524  TIP3      H1             -3.5981866405       -8.1346322861        5.9356803535  W2        17524           0.0000000000
     52572     17524  TIP3      H2             -3.7637366405       -7.8139222861        4.4654303535  W2        17524           0.0000000000
     52573     17525  TIP3      OH2           -13.2367066405       -7.4503922861       16.9654303535  W2        17525           0.0000000000
     52574     17525  TIP3      H1            -13.1663866405       -6.7997122861       17.6639303535  W2        17525           0.0000000000
     52575     17525  TIP3      H2            -14.1274866405       -7.3476422861       16.6305203535  W2        17525           0.0000000000
     52576     17526  TIP3      OH2            -6.4512466405       -1.5478122861        8.6241003535  W2        17526           0.0000000000
     52577     17526  TIP3      H1             -5.9774866405       -1.2521822861        9.4015203535  W2        17526           0.0000000000
     52578     17526  TIP3      H2             -7.0143166405       -0.8096522861        8.3910603535  W2        17526           0.0000000000
     52579     17527  TIP3      OH2           -11.9171066405       -1.5770022861       18.5002403535  W2        17527           0.0000000000
     52580     17527  TIP3      H1            -11.9095766405       -1.7130322861       17.5527903535  W2        17527           0.0000000000
     52581     17527  TIP3      H2            -12.8330666405       -1.6941922861       18.7522403535  W2        17527           0.0000000000
     52582     17528  TIP3      OH2            -0.4788966405      -16.5346222861        5.0017603535  W2        17528           0.0000000000
     52583     17528  TIP3      H1             -1.3788266405      -16.3957222861        5.2968203535  W2        17528           0.0000000000
     52584     17528  TIP3      H2             -0.2270566405      -15.7031622861        4.5999303535  W2        17528           0.0000000000
     52585     17529  TIP3      OH2           -12.4130466405       -7.7469022861        6.9754503535  W2        17529           0.0000000000
     52586     17529  TIP3      H1            -12.7049166405       -6.9787322861        6.4845803535  W2        17529           0.0000000000
     52587     17529  TIP3      H2            -13.0875266405       -8.4062822861        6.8125903535  W2        17529           0.0000000000
     52588     17530  TIP3      OH2             0.7102433595       -2.1683822861        3.3781503535  W2        17530           0.0000000000
     52589     17530  TIP3      H1              0.7835933595       -1.2293622861        3.5486803535  W2        17530           0.0000000000
     52590     17530  TIP3      H2              1.6157533595       -2.4735222861        3.3218803535  W2        17530           0.0000000000
     52591     17531  TIP3      OH2           -16.3200366405       -5.3839822861       15.7904303535  W2        17531           0.0000000000
     52592     17531  TIP3      H1            -16.8211966405       -5.4120422861       14.9754003535  W2        17531           0.0000000000
     52593     17531  TIP3      H2            -16.3146666405       -6.2896622861       16.1001603535  W2        17531           0.0000000000
     52594     17532  TIP3      OH2           -16.5697666405       -2.6036022861       12.6744503535  W2        17532           0.0000000000
     52595     17532  TIP3      H1            -15.6237066405       -2.7479022861       12.6554003535  W2        17532           0.0000000000
     52596     17532  TIP3      H2            -16.6821366405       -1.8193222861       13.2115703535  W2        17532           0.0000000000
     52597     17533  TIP3      OH2             1.6280833595       -1.9376322861       18.3568203535  W2        17533           0.0000000000
     52598     17533  TIP3      H1              1.5787633595       -2.8928222861       18.3195803535  W2        17533           0.0000000000
     52599     17533  TIP3      H2              0.8013133595       -1.6701022861       18.7582003535  W2        17533           0.0000000000
     52600     17534  TIP3      OH2            -7.3935166405       -2.3637122861       17.2329603535  W2        17534           0.0000000000
     52601     17534  TIP3      H1             -7.3060566405       -1.5372522861       17.7078703535  W2        17534           0.0000000000
     52602     17534  TIP3      H2             -8.2570066405       -2.6933322861       17.4818903535  W2        17534           0.0000000000
     52603     17535  TIP3      OH2            -6.9789366405        1.4086577139        7.0390203535  W2        17535           0.0000000000
     52604     17535  TIP3      H1             -7.0543366405        1.2873777139        6.0925403535  W2        17535           0.0000000000
     52605     17535  TIP3      H2             -6.9460666405        2.3579277139        7.1574803535  W2        17535           0.0000000000
     52606     17536  TIP3      OH2           -13.3255566405        0.1973577139        8.8199203535  W2        17536           0.0000000000
     52607     17536  TIP3      H1            -13.1735166405       -0.1506022861        9.6985703535  W2        17536           0.0000000000
     52608     17536  TIP3      H2            -14.1765166405       -0.1589122861        8.5646403535  W2        17536           0.0000000000
     52609     17537  TIP3      OH2            -3.8773366405        0.5626777139        4.0412603535  W2        17537           0.0000000000
     52610     17537  TIP3      H1             -3.5024966405       -0.1817122861        3.5705203535  W2        17537           0.0000000000
     52611     17537  TIP3      H2             -3.8729666405        0.2927377139        4.9595903535  W2        17537           0.0000000000
     52612     17538  TIP3      OH2            -4.2085266405        0.4883877139        6.7904803535  W2        17538           0.0000000000
     52613     17538  TIP3      H1             -5.1435466405        0.5885777139        6.9691803535  W2        17538           0.0000000000
     52614     17538  TIP3      H2             -3.9283366405       -0.2210122861        7.3688003535  W2        17538           0.0000000000
     52615     17539  TIP3      OH2            -1.2199366405      -10.4443822861       18.8370403535  W2        17539           0.0000000000
     52616     17539  TIP3      H1             -1.6272566405       -9.9638222861       18.1163703535  W2        17539           0.0000000000
     52617     17539  TIP3      H2             -1.1793666405      -11.3497822861       18.5291203535  W2        17539           0.0000000000
     52618     17540  TIP3      OH2           -14.0709866405       -4.0604422861       16.8337103535  W2        17540           0.0000000000
     52619     17540  TIP3      H1            -13.8548566405       -4.4218822861       17.6932903535  W2        17540           0.0000000000
     52620     17540  TIP3      H2            -14.9265166405       -4.4350622861       16.6240603535  W2        17540           0.0000000000
     52621     17541  TIP3      OH2           -11.4521866405      -15.5903922861       12.8291303535  W2        17541           0.0000000000
     52622     17541  TIP3      H1            -12.3138166405      -15.6775722861       12.4214203535  W2        17541           0.0000000000
     52623     17541  TIP3      H2            -11.4746166405      -14.7343822861       13.2568903535  W2        17541           0.0000000000
     52624     17542  TIP3      OH2            -6.7894066405      -15.8683522861       16.2038303535  W2        17542           0.0000000000
     52625     17542  TIP3      H1             -6.3690966405      -16.2836422861       16.9568903535  W2        17542           0.0000000000
     52626     17542  TIP3      H2             -7.7224466405      -16.0470222861       16.3210303535  W2        17542           0.0000000000
     52627     17543  TIP3      OH2            -3.4629166405      -12.1128322861       17.0572803535  W2        17543           0.0000000000
     52628     17543  TIP3      H1             -3.9769666405      -12.2386122861       17.8548803535  W2        17543           0.0000000000
     52629     17543  TIP3      H2             -3.6184466405      -11.2005222861       16.8129003535  W2        17543           0.0000000000
     52630     17544  TIP3      OH2            -2.7004266405       -7.2518322861        2.8185803535  W2        17544           0.0000000000
     52631     17544  TIP3      H1             -2.6583466405       -7.4744422861        1.8885803535  W2        17544           0.0000000000
     52632     17544  TIP3      H2             -1.8512166405       -6.8531222861        3.0085703535  W2        17544           0.0000000000
     52633     17545  TIP3      OH2            -7.1276766405      -13.3760122861        3.4889103535  W2        17545           0.0000000000
     52634     17545  TIP3      H1             -7.3811966405      -13.3568522861        4.4117203535  W2        17545           0.0000000000
     52635     17545  TIP3      H2             -7.3844666405      -14.2474722861        3.1875303535  W2        17545           0.0000000000
     52636     17546  TIP3      OH2           -11.3611766405      -10.6249422861       13.9241503535  W2        17546           0.0000000000
     52637     17546  TIP3      H1            -12.0029666405      -10.6652122861       14.6331603535  W2        17546           0.0000000000
     52638     17546  TIP3      H2            -11.3239766405       -9.6984722861       13.6864503535  W2        17546           0.0000000000
     52639     17547  TIP3      OH2           -11.3642666405      -10.4039322861        8.8361503535  W2        17547           0.0000000000
     52640     17547  TIP3      H1            -12.2569766405      -10.7443222861        8.7775303535  W2        17547           0.0000000000
     52641     17547  TIP3      H2            -10.9136066405      -10.7808422861        8.0804703535  W2        17547           0.0000000000
     52642     17548  TIP3      OH2            -5.8287166405       -9.9879022861        7.6532303535  W2        17548           0.0000000000
     52643     17548  TIP3      H1             -6.2376866405       -9.1730422861        7.3617103535  W2        17548           0.0000000000
     52644     17548  TIP3      H2             -5.1080966405      -10.1278922861        7.0389403535  W2        17548           0.0000000000
     52645     17549  TIP3      OH2            -6.7265566405       -9.8122622861       19.1413003535  W2        17549           0.0000000000
     52646     17549  TIP3      H1             -7.2891766405      -10.5171022861       19.4620803535  W2        17549           0.0000000000
     52647     17549  TIP3      H2             -5.9002166405       -9.9330722861       19.6090603535  W2        17549           0.0000000000
     52648     17550  TIP3      OH2            -4.8239466405      -10.5418622861       10.4672003535  W2        17550           0.0000000000
     52649     17550  TIP3      H1             -5.0194966405       -9.9361822861        9.7522603535  W2        17550           0.0000000000
     52650     17550  TIP3      H2             -4.6426866405      -11.3753422861       10.0328303535  W2        17550           0.0000000000
     52651     17551  TIP3      OH2           -13.6111266405      -10.3045922861       15.7913503535  W2        17551           0.0000000000
     52652     17551  TIP3      H1            -13.6491866405       -9.9044322861       16.6600603535  W2        17551           0.0000000000
     52653     17551  TIP3      H2            -14.1020166405      -11.1213522861       15.8816403535  W2        17551           0.0000000000
     52654     17552  TIP3      OH2           -10.2453866405      -12.9303622861        2.5899503535  W2        17552           0.0000000000
     52655     17552  TIP3      H1            -10.6763166405      -13.3753522861        3.3196903535  W2        17552           0.0000000000
     52656     17552  TIP3      H2            -10.9635166405      -12.5587322861        2.0777003535  W2        17552           0.0000000000
     52657     17553  TIP3      OH2           -17.0030466405      -13.1884122861        9.6418203535  W2        17553           0.0000000000
     52658     17553  TIP3      H1            -16.3722766405      -13.2172022861       10.3612103535  W2        17553           0.0000000000
     52659     17553  TIP3      H2            -16.5536166405      -13.6135422861        8.9114103535  W2        17553           0.0000000000
     52660     17554  TIP3      OH2           -15.7288366405      -12.4422122861        5.0658603535  W2        17554           0.0000000000
     52661     17554  TIP3      H1            -15.2546666405      -11.8512222861        4.4809503535  W2        17554           0.0000000000
     52662     17554  TIP3      H2            -16.4461966405      -11.9119222861        5.4128703535  W2        17554           0.0000000000
     52663     17555  TIP3      OH2            -5.5600266405       -8.9037322861       15.1384403535  W2        17555           0.0000000000
     52664     17555  TIP3      H1             -5.2365466405       -9.5347622861       14.4954903535  W2        17555           0.0000000000
     52665     17555  TIP3      H2             -6.0000966405       -9.4385122861       15.7991803535  W2        17555           0.0000000000
     52666     17556  TIP3      OH2            -8.7827366405      -12.9761822861        9.9225603535  W2        17556           0.0000000000
     52667     17556  TIP3      H1             -9.6936266405      -12.9195022861       10.2111603535  W2        17556           0.0000000000
     52668     17556  TIP3      H2             -8.2774466405      -13.0366322861       10.7332803535  W2        17556           0.0000000000
     52669     17557  TIP3      OH2           -13.9543966405      -11.3475522861        8.7493203535  W2        17557           0.0000000000
     52670     17557  TIP3      H1            -14.8435966405      -11.2480022861        8.4092803535  W2        17557           0.0000000000
     52671     17557  TIP3      H2            -13.6579066405      -12.1892522861        8.4031103535  W2        17557           0.0000000000
     52672     17558  TIP3      OH2           -10.3012166405      -11.3472922861        6.4057803535  W2        17558           0.0000000000
     52673     17558  TIP3      H1             -9.3696666405      -11.2182922861        6.5840903535  W2        17558           0.0000000000
     52674     17558  TIP3      H2            -10.5161866405      -10.6778622861        5.7562503535  W2        17558           0.0000000000
     52675     17559  TIP3      OH2            -4.3775466405      -13.7415522861       13.1867403535  W2        17559           0.0000000000
     52676     17559  TIP3      H1             -5.0543866405      -13.6102422861       13.8507103535  W2        17559           0.0000000000
     52677     17559  TIP3      H2             -4.8630566405      -13.8966022861       12.3765103535  W2        17559           0.0000000000
     52678     17560  TIP3      OH2           -11.6271966405      -10.1530722861        3.9723903535  W2        17560           0.0000000000
     52679     17560  TIP3      H1            -12.1696866405      -10.5326922861        3.2811503535  W2        17560           0.0000000000
     52680     17560  TIP3      H2            -10.7937066405       -9.9586022861        3.5438003535  W2        17560           0.0000000000
     52681     17561  TIP3      OH2            -1.0900366405        1.9299877139       19.4635003535  W2        17561           0.0000000000
     52682     17561  TIP3      H1             -0.8901666405        2.3541777139       18.6290303535  W2        17561           0.0000000000
     52683     17561  TIP3      H2             -0.4346666405        2.2738077139       20.0705403535  W2        17561           0.0000000000
     52684     17562  TIP3      OH2           -13.4920566405       -5.5958822861       19.0715503535  W2        17562           0.0000000000
     52685     17562  TIP3      H1            -12.7598166405       -5.3412922861       19.6330003535  W2        17562           0.0000000000
     52686     17562  TIP3      H2            -14.2721866405       -5.3913422861       19.5870903535  W2        17562           0.0000000000
     52687     17563  TIP3      OH2            -7.4627666405      -10.1888822861       11.8095203535  W2        17563           0.0000000000
     52688     17563  TIP3      H1             -6.8984266405      -10.7352222861       11.2624803535  W2        17563           0.0000000000
     52689     17563  TIP3      H2             -7.6104266405      -10.7106922861       12.5982803535  W2        17563           0.0000000000
     52690     17564  TIP3      OH2           -12.4607966405      -14.0522722861        8.2280003535  W2        17564           0.0000000000
     52691     17564  TIP3      H1            -12.7778466405      -14.9547422861        8.1925403535  W2        17564           0.0000000000
     52692     17564  TIP3      H2            -11.6793866405      -14.0505322861        7.6751603535  W2        17564           0.0000000000
     52693     17565  TIP3      OH2            -8.8361766405      -11.8002722861       14.2235603535  W2        17565           0.0000000000
     52694     17565  TIP3      H1             -9.6716466405      -11.3463222861       14.3338003535  W2        17565           0.0000000000
     52695     17565  TIP3      H2             -8.3121166405      -11.5244222861       14.9755503535  W2        17565           0.0000000000
     52696     17566  TIP3      OH2            -8.2919166405       -5.5875022861        5.9082003535  W2        17566           0.0000000000
     52697     17566  TIP3      H1             -9.0368166405       -6.0949722861        5.5859903535  W2        17566           0.0000000000
     52698     17566  TIP3      H2             -8.4261966405       -5.5387022861        6.8546803535  W2        17566           0.0000000000
     52699     17567  TIP3      OH2            -1.1420266405       -6.4546822861       14.6949603535  W2        17567           0.0000000000
     52700     17567  TIP3      H1             -0.5001466405       -5.9980522861       14.1511803535  W2        17567           0.0000000000
     52701     17567  TIP3      H2             -1.9723366405       -6.3414422861       14.2323703535  W2        17567           0.0000000000
     52702     17568  TIP3      OH2            -4.3942366405      -12.7735122861        4.1074603535  W2        17568           0.0000000000
     52703     17568  TIP3      H1             -5.3328166405      -12.6619522861        3.9563403535  W2        17568           0.0000000000
     52704     17568  TIP3      H2             -4.0970266405      -11.9168222861        4.4140303535  W2        17568           0.0000000000
     52705     17569  TIP3      OH2            -6.7727066405       -5.4031722861       17.1451103535  W2        17569           0.0000000000
     52706     17569  TIP3      H1             -7.1180966405       -5.7849322861       17.9520703535  W2        17569           0.0000000000
     52707     17569  TIP3      H2             -6.9726966405       -4.4698122861       17.2164003535  W2        17569           0.0000000000
     52708     17570  TIP3      OH2            -3.6758866405      -10.9062422861        5.7682003535  W2        17570           0.0000000000
     52709     17570  TIP3      H1             -2.7839866405      -11.0437422861        6.0873203535  W2        17570           0.0000000000
     52710     17570  TIP3      H2             -3.6195266405      -10.1156322861        5.2315503535  W2        17570           0.0000000000
     52711     17571  TIP3      OH2           -13.1670866405       -6.2925022861       11.6779903535  W2        17571           0.0000000000
     52712     17571  TIP3      H1            -12.4223666405       -6.2949322861       11.0766403535  W2        17571           0.0000000000
     52713     17571  TIP3      H2            -13.0894266405       -7.1161222861       12.1595003535  W2        17571           0.0000000000
     52714     17572  TIP3      OH2            -6.1665066405       -4.1290722861        4.9336603535  W2        17572           0.0000000000
     52715     17572  TIP3      H1             -6.4616666405       -3.3022822861        5.3151403535  W2        17572           0.0000000000
     52716     17572  TIP3      H2             -6.8695066405       -4.7483822861        5.1298003535  W2        17572           0.0000000000
     52717     17573  TIP3      OH2           -16.1591166405       -7.8318122861       16.9928403535  W2        17573           0.0000000000
     52718     17573  TIP3      H1            -15.9362566405       -8.2498522861       17.8245903535  W2        17573           0.0000000000
     52719     17573  TIP3      H2            -16.7611066405       -8.4443122861       16.5701203535  W2        17573           0.0000000000
     52720     17574  TIP3      OH2            -9.1426266405       -8.3148222861       19.2058103535  W2        17574           0.0000000000
     52721     17574  TIP3      H1             -9.4385466405       -8.4805222861       18.3107203535  W2        17574           0.0000000000
     52722     17574  TIP3      H2             -8.2111066405       -8.5347922861       19.1952003535  W2        17574           0.0000000000
     52723     17575  TIP3      OH2            -4.5223466405       -2.9416222861       17.0956103535  W2        17575           0.0000000000
     52724     17575  TIP3      H1             -5.4229166405       -2.7583622861       16.8280003535  W2        17575           0.0000000000
     52725     17575  TIP3      H2             -4.4882366405       -2.6826922861       18.0164903535  W2        17575           0.0000000000
     52726     17576  TIP3      OH2             1.2089833595      -10.6968322861        5.4628703535  W2        17576           0.0000000000
     52727     17576  TIP3      H1              0.6546133595      -11.0930322861        4.7906203535  W2        17576           0.0000000000
     52728     17576  TIP3      H2              1.3093433595       -9.7863122861        5.1852003535  W2        17576           0.0000000000
     52729     17577  TIP3      OH2             1.1721833595       -4.8966622861       18.3000203535  W2        17577           0.0000000000
     52730     17577  TIP3      H1              0.3210333595       -4.6582822861       17.9326603535  W2        17577           0.0000000000
     52731     17577  TIP3      H2              1.7625233595       -4.9133422861       17.5467303535  W2        17577           0.0000000000
     52732     17578  TIP3      OH2            -0.4958466405       -1.9107922861        5.9280803535  W2        17578           0.0000000000
     52733     17578  TIP3      H1             -0.8687366405       -2.7364122861        6.2371403535  W2        17578           0.0000000000
     52734     17578  TIP3      H2             -0.2184966405       -2.0938522861        5.0304203535  W2        17578           0.0000000000
     52735     17579  TIP3      OH2            -3.3354566405       -7.1028422861       12.9492703535  W2        17579           0.0000000000
     52736     17579  TIP3      H1             -4.2637666405       -7.3346522861       12.9222003535  W2        17579           0.0000000000
     52737     17579  TIP3      H2             -2.8843466405       -7.8798622861       12.6191503535  W2        17579           0.0000000000
     52738     17580  TIP3      OH2           -10.7921466405       -2.7746822861        9.0821403535  W2        17580           0.0000000000
     52739     17580  TIP3      H1            -10.2649266405       -2.0012422861        8.8820203535  W2        17580           0.0000000000
     52740     17580  TIP3      H2            -11.6722966405       -2.5497622861        8.7805403535  W2        17580           0.0000000000
     52741     17581  TIP3      OH2           -15.0373766405       -7.9122722861        3.6693803535  W2        17581           0.0000000000
     52742     17581  TIP3      H1            -14.4213866405       -7.2855522861        4.0488603535  W2        17581           0.0000000000
     52743     17581  TIP3      H2            -15.8991166405       -7.5962922861        3.9410303535  W2        17581           0.0000000000
     52744     17582  TIP3      OH2            -9.3649166405       -5.1116922861        8.6585703535  W2        17582           0.0000000000
     52745     17582  TIP3      H1             -9.6059166405       -4.1862522861        8.7001003535  W2        17582           0.0000000000
     52746     17582  TIP3      H2            -10.1055566405       -5.5705622861        9.0549603535  W2        17582           0.0000000000
     52747     17583  TIP3      OH2            -8.8502566405       -0.9623322861       14.9736803535  W2        17583           0.0000000000
     52748     17583  TIP3      H1             -8.4877866405       -0.1077722861       14.7401203535  W2        17583           0.0000000000
     52749     17583  TIP3      H2             -8.3187366405       -1.2541722861       15.7143103535  W2        17583           0.0000000000
     52750     17584  TIP3      OH2           -10.6818366405       -0.0899322861        8.2037903535  W2        17584           0.0000000000
     52751     17584  TIP3      H1            -11.6317866405        0.0158077139        8.2551203535  W2        17584           0.0000000000
     52752     17584  TIP3      H2            -10.3300266405        0.7308077139        8.5485403535  W2        17584           0.0000000000
     52753     17585  TIP3      OH2            -5.3061766405       -4.8632622861       14.6742403535  W2        17585           0.0000000000
     52754     17585  TIP3      H1             -5.7320466405       -5.0910922861       15.5006403535  W2        17585           0.0000000000
     52755     17585  TIP3      H2             -4.7255966405       -5.6020822861       14.4917703535  W2        17585           0.0000000000
     52756     17586  TIP3      OH2            -3.1032866405       -3.9342122861        3.7481403535  W2        17586           0.0000000000
     52757     17586  TIP3      H1             -2.7499766405       -4.3142322861        4.5524903535  W2        17586           0.0000000000
     52758     17586  TIP3      H2             -4.0519366405       -4.0277322861        3.8350703535  W2        17586           0.0000000000
     52759     17587  TIP3      OH2            -2.6477566405       -0.3113122861       17.1437203535  W2        17587           0.0000000000
     52760     17587  TIP3      H1             -3.2494366405       -0.8670222861       16.6483503535  W2        17587           0.0000000000
     52761     17587  TIP3      H2             -2.3663866405        0.3556677139       16.5174603535  W2        17587           0.0000000000
     52762     17588  TIP3      OH2             1.4001533595        0.5450377139        3.9491603535  W2        17588           0.0000000000
     52763     17588  TIP3      H1              2.1439433595        1.1310877139        3.8093203535  W2        17588           0.0000000000
     52764     17588  TIP3      H2              0.7059633595        1.1136177139        4.2824003535  W2        17588           0.0000000000
     52765     17589  TIP3      OH2           -14.5251666405      -13.0785422861       16.5509803535  W2        17589           0.0000000000
     52766     17589  TIP3      H1            -15.4179366405      -12.7400022861       16.4833803535  W2        17589           0.0000000000
     52767     17589  TIP3      H2            -14.6238866405      -13.9339322861       16.9690603535  W2        17589           0.0000000000
     52768     17590  TIP3      OH2            -2.2373566405       -5.2620122861        5.9749303535  W2        17590           0.0000000000
     52769     17590  TIP3      H1             -2.5145966405       -5.9900822861        6.5310403535  W2        17590           0.0000000000
     52770     17590  TIP3      H2             -1.3100566405       -5.1428122861        6.1801903535  W2        17590           0.0000000000
     52771     17591  TIP3      OH2           -14.8739666405       -1.2741022861       14.9859203535  W2        17591           0.0000000000
     52772     17591  TIP3      H1            -14.6569366405       -2.2058622861       14.9548903535  W2        17591           0.0000000000
     52773     17591  TIP3      H2            -14.6276166405       -0.9996022861       15.8692003535  W2        17591           0.0000000000
     52774     17592  TIP3      OH2            -9.0125066405       -2.8226022861        2.1951403535  W2        17592           0.0000000000
     52775     17592  TIP3      H1             -8.7735266405       -3.5707922861        1.6480303535  W2        17592           0.0000000000
     52776     17592  TIP3      H2             -9.2813766405       -3.2104322861        3.0279203535  W2        17592           0.0000000000
     52777     17593  TIP3      OH2           -10.0754466405       -3.2522222861        4.6514003535  W2        17593           0.0000000000
     52778     17593  TIP3      H1             -9.9286466405       -3.7722422861        5.4414903535  W2        17593           0.0000000000
     52779     17593  TIP3      H2            -10.0782766405       -2.3454622861        4.9579903535  W2        17593           0.0000000000
     52780     17594  TIP3      OH2           -13.6223366405       -5.9998922861        5.1619403535  W2        17594           0.0000000000
     52781     17594  TIP3      H1            -14.3084066405       -5.6476422861        5.7289103535  W2        17594           0.0000000000
     52782     17594  TIP3      H2            -13.0995466405       -5.2369322861        4.9153703535  W2        17594           0.0000000000
     52783     17595  TIP3      OH2            -5.7908266405      -13.3375122861       15.4408403535  W2        17595           0.0000000000
     52784     17595  TIP3      H1             -5.0920366405      -13.2636422861       16.0908103535  W2        17595           0.0000000000
     52785     17595  TIP3      H2             -6.1716866405      -14.2020122861       15.5951303535  W2        17595           0.0000000000
     52786     17596  TIP3      OH2            -5.0063366405      -13.6853422861        6.5380703535  W2        17596           0.0000000000
     52787     17596  TIP3      H1             -4.7865066405      -13.2138022861        5.7346103535  W2        17596           0.0000000000
     52788     17596  TIP3      H2             -4.4479366405      -13.2910822861        7.2081303535  W2        17596           0.0000000000
     52789     17597  TIP3      OH2            -7.3377266405       -1.5548622861        5.4008203535  W2        17597           0.0000000000
     52790     17597  TIP3      H1             -8.1541166405       -1.0578922861        5.4532503535  W2        17597           0.0000000000
     52791     17597  TIP3      H2             -6.8080966405       -1.0795122861        4.7607003535  W2        17597           0.0000000000
     52792     17598  TIP3      OH2            -7.8063466405      -11.9574622861        7.3729103535  W2        17598           0.0000000000
     52793     17598  TIP3      H1             -6.9940866405      -11.4531422861        7.4190803535  W2        17598           0.0000000000
     52794     17598  TIP3      H2             -8.0510466405      -12.1024922861        8.2868703535  W2        17598           0.0000000000
     52795     17599  TIP3      OH2            -7.2707066405      -10.9711922861       16.5575703535  W2        17599           0.0000000000
     52796     17599  TIP3      H1             -7.1516766405      -10.3976522861       17.3146103535  W2        17599           0.0000000000
     52797     17599  TIP3      H2             -6.6152466405      -11.6592522861       16.6723503535  W2        17599           0.0000000000
     52798     17600  TIP3      OH2            -6.9226766405      -14.8761622861        8.3110203535  W2        17600           0.0000000000
     52799     17600  TIP3      H1             -7.2693266405      -14.2591022861        8.9554503535  W2        17600           0.0000000000
     52800     17600  TIP3      H2             -6.2639866405      -14.3755922861        7.8295703535  W2        17600           0.0000000000
     52801     17601  TIP3      OH2            -9.9994166405       -0.5111422861        5.3825103535  W2        17601           0.0000000000
     52802     17601  TIP3      H1             -9.8385466405        0.2886077139        4.8817703535  W2        17601           0.0000000000
     52803     17601  TIP3      H2            -10.1966366405       -0.2045422861        6.2675703535  W2        17601           0.0000000000
     52804     17602  TIP3      OH2           -11.2649766405      -13.8132222861        4.9982703535  W2        17602           0.0000000000
     52805     17602  TIP3      H1            -11.3484966405      -12.9249122861        5.3449103535  W2        17602           0.0000000000
     52806     17602  TIP3      H2            -10.3749466405      -14.0785522861        5.2299503535  W2        17602           0.0000000000
     52807     17603  TIP3      OH2            -1.0661266405      -13.0641622861       17.3925403535  W2        17603           0.0000000000
     52808     17603  TIP3      H1             -1.9825466405      -12.8019922861       17.3049103535  W2        17603           0.0000000000
     52809     17603  TIP3      H2             -0.7306266405      -13.0672622861       16.4960703535  W2        17603           0.0000000000
     52810     17604  TIP3      OH2            -2.4640266405       -9.3140622861       11.4882703535  W2        17604           0.0000000000
     52811     17604  TIP3      H1             -3.2615866405       -9.7290422861       11.1597703535  W2        17604           0.0000000000
     52812     17604  TIP3      H2             -2.0189166405      -10.0046922861       11.9793203535  W2        17604           0.0000000000
     52813     17605  TIP3      OH2           -13.0064466405       -3.3860022861        4.0587203535  W2        17605           0.0000000000
     52814     17605  TIP3      H1            -12.4142966405       -2.6865222861        4.3349603535  W2        17605           0.0000000000
     52815     17605  TIP3      H2            -12.5471466405       -3.8190522861        3.3391803535  W2        17605           0.0000000000
     52816     17606  TIP3      OH2           -14.6905266405      -10.7217022861        3.1746603535  W2        17606           0.0000000000
     52817     17606  TIP3      H1            -14.7352666405       -9.7823922861        3.3533603535  W2        17606           0.0000000000
     52818     17606  TIP3      H2            -15.5782066405      -10.9572122861        2.9048703535  W2        17606           0.0000000000
     52819     17607  TIP3      OH2            -1.3775666405       -0.0578122861       13.1106203535  W2        17607           0.0000000000
     52820     17607  TIP3      H1             -1.5331366405        0.6206277139       12.4535503535  W2        17607           0.0000000000
     52821     17607  TIP3      H2             -0.4449266405        0.0141177139       13.3136803535  W2        17607           0.0000000000
     52822     17608  TIP3      OH2           -13.8823266405      -15.9400422861       11.8477603535  W2        17608           0.0000000000
     52823     17608  TIP3      H1            -14.1113466405      -15.8807922861       10.9202603535  W2        17608           0.0000000000
     52824     17608  TIP3      H2            -14.3249866405      -16.7314922861       12.1541703535  W2        17608           0.0000000000
     52825     17609  TIP3      OH2           -14.9519966405       -1.9993322861        8.0083403535  W2        17609           0.0000000000
     52826     17609  TIP3      H1            -15.7841366405       -1.5270622861        8.0354803535  W2        17609           0.0000000000
     52827     17609  TIP3      H2            -14.4061666405       -1.4895722861        7.4096503535  W2        17609           0.0000000000
     52828     17610  TIP3      OH2           -15.6636266405        0.6130377139       19.3381403535  W2        17610           0.0000000000
     52829     17610  TIP3      H1            -15.1234066405        0.3964377139       20.0980603535  W2        17610           0.0000000000
     52830     17610  TIP3      H2            -16.1448266405       -0.1923622861       19.1483903535  W2        17610           0.0000000000
     52831     17611  TIP3      OH2           -11.0662866405       -0.4675222861       20.9585603535  W2        17611           0.0000000000
     52832     17611  TIP3      H1            -10.2985666405       -0.9264422861       21.2994803535  W2        17611           0.0000000000
     52833     17611  TIP3      H2            -11.0876666405       -0.6935422861       20.0286803535  W2        17611           0.0000000000
     52834     17612  TIP3      OH2            -6.9743266405       -0.9594622861        2.3337403535  W2        17612           0.0000000000
     52835     17612  TIP3      H1             -7.6182266405       -1.5906022861        2.6551103535  W2        17612           0.0000000000
     52836     17612  TIP3      H2             -6.2124966405       -1.4906622861        2.1020903535  W2        17612           0.0000000000
     52837     17613  TIP3      OH2            -4.4894166405       -2.0874122861       19.6877103535  W2        17613           0.0000000000
     52838     17613  TIP3      H1             -4.8404666405       -2.9441122861       19.9307503535  W2        17613           0.0000000000
     52839     17613  TIP3      H2             -3.7630966405       -1.9447422861       20.2946103535  W2        17613           0.0000000000
     52840     17614  TIP3      OH2            -2.3700366405       -1.1424722861        2.5675403535  W2        17614           0.0000000000
     52841     17614  TIP3      H1             -2.0869966405       -1.9369522861        3.0202303535  W2        17614           0.0000000000
     52842     17614  TIP3      H2             -1.6302466405       -0.9093722861        2.0066503535  W2        17614           0.0000000000
     52843     17615  TIP3      OH2           -15.7566766405       -5.5765522861       20.2925703535  W2        17615           0.0000000000
     52844     17615  TIP3      H1            -15.6126266405       -6.4784822861       20.0062403535  W2        17615           0.0000000000
     52845     17615  TIP3      H2            -16.5289366405       -5.2903422861       19.8048003535  W2        17615           0.0000000000
     52846     17616  TIP3      OH2           -11.4153066405       -5.2329822861        2.4250303535  W2        17616           0.0000000000
     52847     17616  TIP3      H1            -11.3508966405       -6.0270222861        2.9556703535  W2        17616           0.0000000000
     52848     17616  TIP3      H2            -10.7623866405       -5.3517022861        1.7352303535  W2        17616           0.0000000000
     52849     17617  TIP3      OH2            -9.1010666405       -5.6067422861       19.7252103535  W2        17617           0.0000000000
     52850     17617  TIP3      H1             -9.4296866405       -5.3359322861       18.8679503535  W2        17617           0.0000000000
     52851     17617  TIP3      H2             -8.9492466405       -6.5477622861       19.6377103535  W2        17617           0.0000000000
     52852     17618  TIP3      OH2            -6.0629666405       -4.1858122861        2.1608303535  W2        17618           0.0000000000
     52853     17618  TIP3      H1             -6.3315566405       -4.0056022861        3.0617203535  W2        17618           0.0000000000
     52854     17618  TIP3      H2             -6.2694066405       -5.1111922861        2.0294103535  W2        17618           0.0000000000
     52855     17619  TIP3      OH2            -3.3665466405       -5.6910122861       17.1084403535  W2        17619           0.0000000000
     52856     17619  TIP3      H1             -2.6210666405       -5.1026422861       16.9888403535  W2        17619           0.0000000000
     52857     17619  TIP3      H2             -4.1238666405       -5.1090422861       17.1717503535  W2        17619           0.0000000000
     52858     17620  TIP3      OH2           -14.9240266405       -8.3762222861       19.7125003535  W2        17620           0.0000000000
     52859     17620  TIP3      H1            -14.5159066405       -9.2335622861       19.5915603535  W2        17620           0.0000000000
     52860     17620  TIP3      H2            -15.1842666405       -8.3620922861       20.6335303535  W2        17620           0.0000000000
     52861     17621  TIP3      OH2           -10.2659266405       -7.2603622861        4.7308303535  W2        17621           0.0000000000
     52862     17621  TIP3      H1            -10.7257266405       -7.7445322861        5.4166803535  W2        17621           0.0000000000
     52863     17621  TIP3      H2            -10.0110566405       -7.9288222861        4.0948803535  W2        17621           0.0000000000
     52864     17622  TIP3      OH2           -10.9769966405       -9.3676522861       17.0867903535  W2        17622           0.0000000000
     52865     17622  TIP3      H1            -11.5953866405       -8.6929922861       17.3672603535  W2        17622           0.0000000000
     52866     17622  TIP3      H2            -10.6328766405       -9.0462622861       16.2534103535  W2        17622           0.0000000000
     52867     17623  TIP3      OH2            -9.1948866405       -9.0171822861        2.9931503535  W2        17623           0.0000000000
     52868     17623  TIP3      H1             -9.3753866405       -9.1720622861        2.0659803535  W2        17623           0.0000000000
     52869     17623  TIP3      H2             -8.2448366405       -8.9093122861        3.0379403535  W2        17623           0.0000000000
     52870     17624  TIP3      OH2            -5.9571766405       -6.8961222861       20.3642703535  W2        17624           0.0000000000
     52871     17624  TIP3      H1             -5.0040566405       -6.8122122861       20.3368703535  W2        17624           0.0000000000
     52872     17624  TIP3      H2             -6.1177166405       -7.6079422861       20.9837603535  W2        17624           0.0000000000
     52873     17625  TIP3      OH2             0.1949433595       -6.6627622861        2.4389603535  W2        17625           0.0000000000
     52874     17625  TIP3      H1             -0.0785766405       -7.0872122861        1.6257903535  W2        17625           0.0000000000
     52875     17625  TIP3      H2              0.2343533595       -5.7313122861        2.2220003535  W2        17625           0.0000000000
     52876     17626  TIP3      OH2           -10.6376266405      -12.0125722861       18.1691003535  W2        17626           0.0000000000
     52877     17626  TIP3      H1            -10.4875366405      -12.7414422861       17.5670703535  W2        17626           0.0000000000
     52878     17626  TIP3      H2            -10.6353866405      -11.2354022861       17.6103203535  W2        17626           0.0000000000
     52879     17627  TIP3      OH2           -10.2250566405      -13.6429922861       15.6618403535  W2        17627           0.0000000000
     52880     17627  TIP3      H1             -9.6893066405      -13.1913222861       15.0097703535  W2        17627           0.0000000000
     52881     17627  TIP3      H2            -11.0770966405      -13.7510122861       15.2392503535  W2        17627           0.0000000000
     52882     17628  TIP3      OH2            -8.6432166405       -8.2033722861       15.9013603535  W2        17628           0.0000000000
     52883     17628  TIP3      H1             -7.8927366405       -8.3596222861       15.3281403535  W2        17628           0.0000000000
     52884     17628  TIP3      H2             -8.9823866405       -7.3517122861       15.6259103535  W2        17628           0.0000000000
     52885     17629  TIP3      OH2            -4.2275966405      -10.3881922861       20.9298903535  W2        17629           0.0000000000
     52886     17629  TIP3      H1             -4.0354666405      -11.3192522861       20.8183403535  W2        17629           0.0000000000
     52887     17629  TIP3      H2             -3.3699666405       -9.9632422861       20.9194303535  W2        17629           0.0000000000
     52888     17630  TIP3      OH2            -2.9108766405       -7.5996722861       19.0071603535  W2        17630           0.0000000000
     52889     17630  TIP3      H1             -3.1923766405       -6.8902122861       18.4295403535  W2        17630           0.0000000000
     52890     17630  TIP3      H2             -1.9684466405       -7.6723722861       18.8562803535  W2        17630           0.0000000000
     52891     17631  TIP3      OH2           -12.1589966405      -10.8142222861       20.0806603535  W2        17631           0.0000000000
     52892     17631  TIP3      H1            -12.9260966405      -11.3467422861       19.8704203535  W2        17631           0.0000000000
     52893     17631  TIP3      H2            -11.4800966405      -11.1241822861       19.4812903535  W2        17631           0.0000000000
     52894     17632  TIP3      OH2            -9.4195066405      -16.1864222861       16.0932003535  W2        17632           0.0000000000
     52895     17632  TIP3      H1             -9.5175466405      -15.2401022861       15.9878203535  W2        17632           0.0000000000
     52896     17632  TIP3      H2            -10.1618866405      -16.5590422861       15.6175503535  W2        17632           0.0000000000
     52897     17633  TIP3      OH2            -8.1554566405      -11.8648822861       19.6570403535  W2        17633           0.0000000000
     52898     17633  TIP3      H1             -8.3909166405      -12.0842122861       20.5585303535  W2        17633           0.0000000000
     52899     17633  TIP3      H2             -8.9387666405      -12.0717622861       19.1472903535  W2        17633           0.0000000000
     52900     17634  TIP3      OH2            -5.4397966405      -12.7375322861       18.7323903535  W2        17634           0.0000000000
     52901     17634  TIP3      H1             -6.3872566405      -12.7055622861       18.8647203535  W2        17634           0.0000000000
     52902     17634  TIP3      H2             -5.1271266405      -13.3628222861       19.3862103535  W2        17634           0.0000000000
     52903     17635  TIP3      OH2            -3.8056466405      -14.1034222861       20.7375803535  W2        17635           0.0000000000
     52904     17635  TIP3      H1             -3.9024666405      -15.0556922861       20.7317703535  W2        17635           0.0000000000
     52905     17635  TIP3      H2             -4.1273366405      -13.8347422861       21.5981303535  W2        17635           0.0000000000
     52906     17636  TIP3      OH2           -13.9787166405      -12.8938422861       19.7851303535  W2        17636           0.0000000000
     52907     17636  TIP3      H1            -13.7669766405      -13.6002322861       19.1748803535  W2        17636           0.0000000000
     52908     17636  TIP3      H2            -14.0899666405      -13.3312422861       20.6292503535  W2        17636           0.0000000000
     52909     17637  TIP3      OH2            -9.1976966405      -16.8926822861       18.7644803535  W2        17637           0.0000000000
     52910     17637  TIP3      H1             -8.4858566405      -17.5324622861       18.7503903535  W2        17637           0.0000000000
     52911     17637  TIP3      H2             -9.2986566405      -16.6258522861       17.8507903535  W2        17637           0.0000000000
     52912     17638  TIP3      OH2            -8.8439466405      -15.2098422861       20.8181103535  W2        17638           0.0000000000
     52913     17638  TIP3      H1             -8.9757266405      -15.6854622861       19.9979603535  W2        17638           0.0000000000
     52914     17638  TIP3      H2             -9.4432066405      -14.4654822861       20.7628203535  W2        17638           0.0000000000
     52915     17639  TIP3      OH2            -9.2977166405        1.6731877139        3.9945103535  W2        17639           0.0000000000
     52916     17639  TIP3      H1             -8.3646466405        1.8310577139        4.1383503535  W2        17639           0.0000000000
     52917     17639  TIP3      H2             -9.5618366405        2.3484877139        3.3696603535  W2        17639           0.0000000000
     52918     17640  TIP3      OH2           -15.7292266405       -3.6904322861        3.4773203535  W2        17640           0.0000000000
     52919     17640  TIP3      H1            -14.8153066405       -3.6115422861        3.7507103535  W2        17640           0.0000000000
     52920     17640  TIP3      H2            -15.7219166405       -4.3774722861        2.8108803535  W2        17640           0.0000000000
     52921     17641  TIP3      OH2           -17.0801666405        1.7024177139        8.5547103535  W2        17641           0.0000000000
     52922     17641  TIP3      H1            -17.7274566405        1.2405877139        8.0218303535  W2        17641           0.0000000000
     52923     17641  TIP3      H2            -16.7257066405        1.0307477139        9.1373303535  W2        17641           0.0000000000
     52924     17642  TIP3      OH2           -16.2102466405       -0.2168822861       10.3593303535  W2        17642           0.0000000000
     52925     17642  TIP3      H1            -16.5445666405       -1.0971522861       10.5313503535  W2        17642           0.0000000000
     52926     17642  TIP3      H2            -15.9880066405        0.1286177139       11.2238903535  W2        17642           0.0000000000
     52927     17643  TIP3      OH2             1.3382333595        0.5927577139       13.3398103535  W2        17643           0.0000000000
     52928     17643  TIP3      H1              1.3169033595        0.7775977139       14.2787503535  W2        17643           0.0000000000
     52929     17643  TIP3      H2              2.0288533595        1.1611577139       12.9989503535  W2        17643           0.0000000000
     52930     17644  TIP3      OH2             0.9015233595        0.1598677139       16.2617203535  W2        17644           0.0000000000
     52931     17644  TIP3      H1              0.4143933595       -0.5757222861       15.8904603535  W2        17644           0.0000000000
     52932     17644  TIP3      H2              1.4507933595       -0.2337422861       16.9396603535  W2        17644           0.0000000000
     52933     17645  TIP3      OH2            -0.6477466405       -4.0503222861       20.8997503535  W2        17645           0.0000000000
     52934     17645  TIP3      H1             -1.5136366405       -4.1553522861       21.2939803535  W2        17645           0.0000000000
     52935     17645  TIP3      H2             -0.2711566405       -3.2919922861       21.3462203535  W2        17645           0.0000000000
     52936     17646  TIP3      OH2             0.6532233595       -5.7939522861        6.4140003535  W2        17646           0.0000000000
     52937     17646  TIP3      H1              1.5033633595       -5.3728622861        6.5411603535  W2        17646           0.0000000000
     52938     17646  TIP3      H2              0.6587333595       -6.5339422861        7.0211403535  W2        17646           0.0000000000
     52939     17647  TIP3      OH2             1.0477833595       -7.7402122861        8.2375703535  W2        17647           0.0000000000
     52940     17647  TIP3      H1              0.3212433595       -8.2199522861        8.6353303535  W2        17647           0.0000000000
     52941     17647  TIP3      H2              1.6291133595       -7.5347422861        8.9697303535  W2        17647           0.0000000000
     52942     17648  TIP3      OH2             0.8069033595       -4.9554622861       13.1853303535  W2        17648           0.0000000000
     52943     17648  TIP3      H1              1.6403233595       -5.3334622861       12.9046903535  W2        17648           0.0000000000
     52944     17648  TIP3      H2              0.9189333595       -4.0123422861       13.0662403535  W2        17648           0.0000000000
     52945     17649  TIP3      OH2            -0.7068666405       -2.0777122861       15.4921703535  W2        17649           0.0000000000
     52946     17649  TIP3      H1             -1.3543366405       -1.7525622861       16.1176903535  W2        17649           0.0000000000
     52947     17649  TIP3      H2             -1.2244666405       -2.5179422861       14.8180003535  W2        17649           0.0000000000
     52948     17650  TIP3      OH2             1.3160933595       -7.8393622861        4.6287003535  W2        17650           0.0000000000
     52949     17650  TIP3      H1              0.7942033595       -7.4829522861        3.9097903535  W2        17650           0.0000000000
     52950     17650  TIP3      H2              1.2830133595       -7.1645822861        5.3067903535  W2        17650           0.0000000000
     52951     17651  TIP3      OH2            -0.3350066405      -10.5998022861        3.1794103535  W2        17651           0.0000000000
     52952     17651  TIP3      H1             -0.2385666405       -9.9331022861        2.4993803535  W2        17651           0.0000000000
     52953     17651  TIP3      H2             -0.4750466405      -11.4151722861        2.6979603535  W2        17651           0.0000000000
     52954     17652  TIP3      OH2            -1.1655366405       -9.2195622861        8.8004403535  W2        17652           0.0000000000
     52955     17652  TIP3      H1             -1.3156566405      -10.1647022861        8.7802203535  W2        17652           0.0000000000
     52956     17652  TIP3      H2             -1.5190866405       -8.9384222861        9.6443503535  W2        17652           0.0000000000
     52957     17653  TIP3      OH2           -16.1302966405       -7.1413422861       12.8108203535  W2        17653           0.0000000000
     52958     17653  TIP3      H1            -15.9460066405       -7.2231722861       11.8751103535  W2        17653           0.0000000000
     52959     17653  TIP3      H2            -15.2810066405       -7.2656422861       13.2344603535  W2        17653           0.0000000000
     52960     17654  TIP3      OH2            -0.3092466405       -7.2492322861       18.4392703535  W2        17654           0.0000000000
     52961     17654  TIP3      H1              0.2734833595       -7.9840022861       18.6309903535  W2        17654           0.0000000000
     52962     17654  TIP3      H2              0.2546833595       -6.4772022861       18.4858503535  W2        17654           0.0000000000
     52963     17655  TIP3      OH2             1.1874633595       -9.3466522861       19.1238103535  W2        17655           0.0000000000
     52964     17655  TIP3      H1              0.3241333595       -9.7254422861       18.9582803535  W2        17655           0.0000000000
     52965     17655  TIP3      H2              1.7918333595      -10.0851722861       19.0493903535  W2        17655           0.0000000000
     52966     17656  TIP3      OH2            -1.0876266405      -13.1918222861        2.2969603535  W2        17656           0.0000000000
     52967     17656  TIP3      H1             -0.4770466405      -13.5631422861        2.9337803535  W2        17656           0.0000000000
     52968     17656  TIP3      H2             -1.9244766405      -13.6131322861        2.4929603535  W2        17656           0.0000000000
     52969     17657  TIP3      OH2            -1.4550566405      -11.6369822861        7.2629503535  W2        17657           0.0000000000
     52970     17657  TIP3      H1             -1.1753466405      -12.5439422861        7.3871203535  W2        17657           0.0000000000
     52971     17657  TIP3      H2             -0.6958866405      -11.2028322861        6.8738703535  W2        17657           0.0000000000
     52972     17658  TIP3      OH2            -0.8432266405      -11.0552422861       12.6988403535  W2        17658           0.0000000000
     52973     17658  TIP3      H1              0.0895733595      -10.8432522861       12.6644403535  W2        17658           0.0000000000
     52974     17658  TIP3      H2             -1.0784766405      -10.9540322861       13.6211403535  W2        17658           0.0000000000
     52975     17659  TIP3      OH2            -0.8140366405      -10.3187122861       15.4747803535  W2        17659           0.0000000000
     52976     17659  TIP3      H1             -1.6569066405      -10.0506722861       15.8407603535  W2        17659           0.0000000000
     52977     17659  TIP3      H2             -0.3716066405       -9.4965222861       15.2638903535  W2        17659           0.0000000000
     52978     17660  TIP3      OH2           -16.5328166405      -11.8708422861       18.9517003535  W2        17660           0.0000000000
     52979     17660  TIP3      H1            -15.6133266405      -11.9930122861       19.1880103535  W2        17660           0.0000000000
     52980     17660  TIP3      H2            -16.9823666405      -12.6208722861       19.3410503535  W2        17660           0.0000000000
     52981     17661  TIP3      OH2             1.4691233595      -16.3386922861       20.8282803535  W2        17661           0.0000000000
     52982     17661  TIP3      H1              1.8188233595      -16.9923422861       20.2227503535  W2        17661           0.0000000000
     52983     17661  TIP3      H2              1.6160733595      -15.5012822861       20.3885403535  W2        17661           0.0000000000
     52984     17662  TIP3      OH2            -0.8415766405      -14.3740522861        7.3111503535  W2        17662           0.0000000000
     52985     17662  TIP3      H1             -0.6590766405      -14.8229022861        8.1366503535  W2        17662           0.0000000000
     52986     17662  TIP3      H2             -1.4412866405      -14.9586122861        6.8476103535  W2        17662           0.0000000000
     52987     17663  TIP3      OH2           -15.3115666405      -13.5586822861       11.8429903535  W2        17663           0.0000000000
     52988     17663  TIP3      H1            -14.8664066405      -14.3504322861       12.1449603535  W2        17663           0.0000000000
     52989     17663  TIP3      H2            -14.8452666405      -12.8421622861       12.2735503535  W2        17663           0.0000000000
     52990     17664  TIP3      OH2           -17.0075366405      -10.5593822861       12.9120103535  W2        17664           0.0000000000
     52991     17664  TIP3      H1            -16.5155566405      -10.7803322861       12.1212103535  W2        17664           0.0000000000
     52992     17664  TIP3      H2            -16.6454466405       -9.7190422861       13.1929603535  W2        17664           0.0000000000
     52993     17665  TIP3      OH2             0.9888433595      -14.2292322861       19.1774103535  W2        17665           0.0000000000
     52994     17665  TIP3      H1              0.0714133595      -13.9585222861       19.1417603535  W2        17665           0.0000000000
     52995     17665  TIP3      H2              1.1117833595      -14.7643922861       18.3933803535  W2        17665           0.0000000000
     52996     17666  TIP3      OH2             1.0250433595      -14.3062422861        3.8391803535  W2        17666           0.0000000000
     52997     17666  TIP3      H1              1.4373033595      -15.0276722861        3.3639803535  W2        17666           0.0000000000
     52998     17666  TIP3      H2              1.7066933595      -13.6367822861        3.8976103535  W2        17666           0.0000000000
     52999     17667  TIP3      OH2           -16.6938866405      -14.3014722861        6.9662503535  W2        17667           0.0000000000
     53000     17667  TIP3      H1            -17.6190466405      -14.0928122861        6.8368003535  W2        17667           0.0000000000
     53001     17667  TIP3      H2            -16.2398966405      -13.8173922861        6.2764803535  W2        17667           0.0000000000
     53002     17668  TIP3      OH2            -1.9231666405        0.6826977139        8.9119903535  W2        17668           0.0000000000
     53003     17668  TIP3      H1             -1.2708766405        0.3349077139        8.3039003535  W2        17668           0.0000000000
     53004     17668  TIP3      H2             -1.4127866405        1.1710177139        9.5579603535  W2        17668           0.0000000000
     53005     17669  TIP3      OH2           -16.7303466405      -15.5635722861       15.3105003535  W2        17669           0.0000000000
     53006     17669  TIP3      H1            -17.3952966405      -15.8095422861       15.9535903535  W2        17669           0.0000000000
     53007     17669  TIP3      H2            -17.1732166405      -14.9415322861       14.7333003535  W2        17669           0.0000000000
     53008     17670  TIP3      OH2           -14.5384166405       -2.3881622861       19.4550803535  W2        17670           0.0000000000
     53009     17670  TIP3      H1            -15.3591666405       -2.2135122861       18.9945503535  W2        17670           0.0000000000
     53010     17670  TIP3      H2            -14.7906366405       -2.4616922861       20.3755203535  W2        17670           0.0000000000
     53011     17671  TIP3      OH2           -11.5841266405       -1.4140422861       15.7134803535  W2        17671           0.0000000000
     53012     17671  TIP3      H1            -12.0090166405       -0.6041922861       15.4309403535  W2        17671           0.0000000000
     53013     17671  TIP3      H2            -10.6798466405       -1.3286322861       15.4114603535  W2        17671           0.0000000000
     53014     17672  TIP3      OH2            -7.2729866405       -0.0150422861       18.6728503535  W2        17672           0.0000000000
     53015     17672  TIP3      H1             -7.0882366405       -0.3484322861       19.5508803535  W2        17672           0.0000000000
     53016     17672  TIP3      H2             -6.4265366405        0.2948177139       18.3507703535  W2        17672           0.0000000000
     53017     17673  TIP3      OH2            -4.9279466405        1.2708477139       17.9169903535  W2        17673           0.0000000000
     53018     17673  TIP3      H1             -4.2510566405        0.6380777139       17.6769103535  W2        17673           0.0000000000
     53019     17673  TIP3      H2             -4.6060666405        1.6718977139       18.7243203535  W2        17673           0.0000000000
     53020     17674  TIP3      OH2            -0.0105666405      -16.1396022861       16.9964903535  W2        17674           0.0000000000
     53021     17674  TIP3      H1             -0.8232166405      -15.8145722861       16.6089603535  W2        17674           0.0000000000
     53022     17674  TIP3      H2              0.2222833595      -16.8997522861       16.4634003535  W2        17674           0.0000000000
     53023     17675  TIP3      OH2           -14.1824566405        1.8423477139       15.7610103535  W2        17675           0.0000000000
     53024     17675  TIP3      H1            -14.9028166405        2.2824477139       15.3097803535  W2        17675           0.0000000000
     53025     17675  TIP3      H2            -14.5480566405        1.5918177139       16.6094103535  W2        17675           0.0000000000
     53026     17676  TIP3      OH2           -11.7151966405        1.4427377139       14.7907303535  W2        17676           0.0000000000
     53027     17676  TIP3      H1            -12.5799766405        1.5145877139       15.1947403535  W2        17676           0.0000000000
     53028     17676  TIP3      H2            -11.7702966405        1.9894677139       14.0069803535  W2        17676           0.0000000000
     53029     17677  TIP3      OH2            -7.0046366405        1.3306277139       13.9663303535  W2        17677           0.0000000000
     53030     17677  TIP3      H1             -7.4612366405        1.8595977139       13.3121703535  W2        17677           0.0000000000
     53031     17677  TIP3      H2             -6.8418366405        1.9337677139       14.6915603535  W2        17677           0.0000000000
     53032     17678  TIP3      OH2            -4.6770066405        0.2085877139       14.9113603535  W2        17678           0.0000000000
     53033     17678  TIP3      H1             -5.5816366405        0.3736077139       14.6455703535  W2        17678           0.0000000000
     53034     17678  TIP3      H2             -4.2481466405        1.0618077139       14.8457003535  W2        17678           0.0000000000
     53035     17679  TIP3      OH2            -2.0728166405        1.7784977139       15.2061403535  W2        17679           0.0000000000
     53036     17679  TIP3      H1             -2.2546166405        2.6943877139       14.9956303535  W2        17679           0.0000000000
     53037     17679  TIP3      H2             -1.8960366405        1.3682077139       14.3596003535  W2        17679           0.0000000000
     53038     17680  TIP3      OH2           -14.7676466405        0.4655977139       12.6711903535  W2        17680           0.0000000000
     53039     17680  TIP3      H1            -14.7860466405        0.0401077139       13.5284203535  W2        17680           0.0000000000
     53040     17680  TIP3      H2            -13.9628566405        0.1470977139       12.2624103535  W2        17680           0.0000000000
     53041     17681  TIP3      OH2           -12.6263366405       -0.8245322861       11.3261803535  W2        17681           0.0000000000
     53042     17681  TIP3      H1            -12.8452666405       -1.7407922861       11.4957803535  W2        17681           0.0000000000
     53043     17681  TIP3      H2            -11.8021166405       -0.6844922861       11.7923203535  W2        17681           0.0000000000
     53044     17682  TIP3      OH2           -10.0890866405       -0.3546022861       12.1749803535  W2        17682           0.0000000000
     53045     17682  TIP3      H1             -9.8765166405       -1.2427022861       11.8880703535  W2        17682           0.0000000000
     53046     17682  TIP3      H2            -10.0245766405       -0.3888322861       13.1293803535  W2        17682           0.0000000000
     53047     17683  TIP3      OH2            -6.5807166405      -14.6905422861       11.3193103535  W2        17683           0.0000000000
     53048     17683  TIP3      H1             -7.2550366405      -15.3199822861       11.5748903535  W2        17683           0.0000000000
     53049     17683  TIP3      H2             -6.0167966405      -15.1746522861       10.7161003535  W2        17683           0.0000000000
     53050     17684  TIP3      OH2            -1.4379966405      -16.5831422861       11.4320203535  W2        17684           0.0000000000
     53051     17684  TIP3      H1             -0.8342366405      -16.0356022861       10.9301203535  W2        17684           0.0000000000
     53052     17684  TIP3      H2             -2.3077966405      -16.2641022861       11.1914303535  W2        17684           0.0000000000
     53053     17685  TIP3      OH2             0.2890433595      -15.4442722861        9.7651103535  W2        17685           0.0000000000
     53054     17685  TIP3      H1              0.9007933595      -15.9587022861        9.2384703535  W2        17685           0.0000000000
     53055     17685  TIP3      H2              0.6713833595      -14.5670622861        9.7885503535  W2        17685           0.0000000000
     53056     17686  TIP3      OH2           -14.2539666405      -16.0565122861        9.1413003535  W2        17686           0.0000000000
     53057     17686  TIP3      H1            -15.0309866405      -16.2910222861        8.6338903535  W2        17686           0.0000000000
     53058     17686  TIP3      H2            -13.7236066405      -16.8533022861        9.1501003535  W2        17686           0.0000000000
     53059     17687  TIP3      OH2           -15.4176266405      -16.2587022861        4.9449103535  W2        17687           0.0000000000
     53060     17687  TIP3      H1            -14.9785566405      -15.6476522861        4.3532603535  W2        17687           0.0000000000
     53061     17687  TIP3      H2            -16.0513866405      -15.7202922861        5.4189103535  W2        17687           0.0000000000
     53062     17688  TIP3      OH2            -9.6747066405      -16.1298022861        8.9546103535  W2        17688           0.0000000000
     53063     17688  TIP3      H1             -8.8003666405      -15.7413722861        8.9250403535  W2        17688           0.0000000000
     53064     17688  TIP3      H2             -9.8106266405      -16.3450222861        9.8773303535  W2        17688           0.0000000000
     53065     17689  TIP3      OH2            -4.1178666405      -16.0998222861       10.6037803535  W2        17689           0.0000000000
     53066     17689  TIP3      H1             -4.0417066405      -16.0046622861        9.6543803535  W2        17689           0.0000000000
     53067     17689  TIP3      H2             -4.3929466405      -17.0075322861       10.7326903535  W2        17689           0.0000000000
     53068     17690  TIP3      OH2            -2.7646066405      -16.0740422861        6.2962803535  W2        17690           0.0000000000
     53069     17690  TIP3      H1             -3.4674966405      -15.4591222861        6.0864203535  W2        17690           0.0000000000
     53070     17690  TIP3      H2             -3.2094666405      -16.9113722861        6.4273703535  W2        17690           0.0000000000
     53071     17691  TIP3      OH2           -15.5166766405       -0.3104822861        5.8424203535  W2        17691           0.0000000000
     53072     17691  TIP3      H1            -16.2016866405       -0.3485922861        5.1749303535  W2        17691           0.0000000000
     53073     17691  TIP3      H2            -15.5129566405        0.6022777139        6.1306303535  W2        17691           0.0000000000
     53074     17692  TIP3      OH2           -13.5567166405      -14.3425522861        3.3873203535  W2        17692           0.0000000000
     53075     17692  TIP3      H1            -13.0653766405      -14.9723122861        2.8598703535  W2        17692           0.0000000000
     53076     17692  TIP3      H2            -12.9330866405      -14.0466122861        4.0504403535  W2        17692           0.0000000000
     53077     17693  TIP3      OH2            -8.5307066405      -14.0494022861        5.8443703535  W2        17693           0.0000000000
     53078     17693  TIP3      H1             -8.3525766405      -14.6960822861        6.5272303535  W2        17693           0.0000000000
     53079     17693  TIP3      H2             -8.5840866405      -13.2156322861        6.3114803535  W2        17693           0.0000000000
     53080     17694  TIP3      OH2            -6.6523266405        0.8990077139        4.2400403535  W2        17694           0.0000000000
     53081     17694  TIP3      H1             -5.7863066405        1.2657477139        4.0618603535  W2        17694           0.0000000000
     53082     17694  TIP3      H2             -6.8990466405        0.4598077139        3.4261203535  W2        17694           0.0000000000
     53083     17695  TIP3      OH2             0.0566333595        0.4620377139        6.9191503535  W2        17695           0.0000000000
     53084     17695  TIP3      H1             -0.1376566405       -0.2857522861        6.3541103535  W2        17695           0.0000000000
     53085     17695  TIP3      H2              0.0176433595        1.2200477139        6.3359403535  W2        17695           0.0000000000
     53086     17696  TIP3      OH2           -14.2961666405      -15.5423222861       18.6589203535  W2        17696           0.0000000000
     53087     17696  TIP3      H1            -14.6623466405      -16.3080622861       19.1013903535  W2        17696           0.0000000000
     53088     17696  TIP3      H2            -13.3833166405      -15.5133022861       18.9454303535  W2        17696           0.0000000000
     53089     17697  TIP3      OH2           -12.3230866405      -16.1918822861       20.1946303535  W2        17697           0.0000000000
     53090     17697  TIP3      H1            -11.4247266405      -16.4658622861       20.0099703535  W2        17697           0.0000000000
     53091     17697  TIP3      H2            -12.7097766405      -16.9342822861       20.6588903535  W2        17697           0.0000000000
     53092     17698  TIP3      OH2           -13.6985566405        0.6095977139        2.8676303535  W2        17698           0.0000000000
     53093     17698  TIP3      H1            -13.9660966405        0.8958877139        3.7409403535  W2        17698           0.0000000000
     53094     17698  TIP3      H2            -12.9272966405        0.0635177139        3.0198803535  W2        17698           0.0000000000
     53095     17699  TIP3      OH2            -3.9018566405      -16.8593522861       20.3769103535  W2        17699           0.0000000000
     53096     17699  TIP3      H1             -3.8251366405      -17.2852822861       21.2306803535  W2        17699           0.0000000000
     53097     17699  TIP3      H2             -3.0081966405      -16.8458822861       20.0342603535  W2        17699           0.0000000000
     53098     17700  TIP3      OH2            -0.7257466405       -0.7867222861       19.0693303535  W2        17700           0.0000000000
     53099     17700  TIP3      H1             -1.5075566405       -0.9729222861       18.5493903535  W2        17700           0.0000000000
     53100     17700  TIP3      H2             -0.7977566405        0.1427077139       19.2865803535  W2        17700           0.0000000000
     53101     17701  TIP3      OH2            13.6802933595       -6.9002822861        9.1000503535  W2        17701           0.0000000000
     53102     17701  TIP3      H1             13.7694033595       -5.9564622861        8.9677603535  W2        17701           0.0000000000
     53103     17701  TIP3      H2             13.0420533595       -7.1756422861        8.4419903535  W2        17701           0.0000000000
     53104     17702  TIP3      OH2            12.6134233595       -7.6452122861       12.5188703535  W2        17702           0.0000000000
     53105     17702  TIP3      H1             12.5751733595       -8.2915822861       13.2238303535  W2        17702           0.0000000000
     53106     17702  TIP3      H2             12.2910733595       -8.1117722861       11.7477403535  W2        17702           0.0000000000
     53107     17703  TIP3      OH2             4.9819233595       -8.0310022861       14.1118603535  W2        17703           0.0000000000
     53108     17703  TIP3      H1              5.0231333595       -8.6566722861       14.8351003535  W2        17703           0.0000000000
     53109     17703  TIP3      H2              5.6846933595       -7.4071422861       14.2939003535  W2        17703           0.0000000000
     53110     17704  TIP3      OH2            16.3194433595       -4.7061722861       10.8203803535  W2        17704           0.0000000000
     53111     17704  TIP3      H1             15.8787133595       -5.4265722861       11.2709403535  W2        17704           0.0000000000
     53112     17704  TIP3      H2             16.3064133595       -3.9854522861       11.4501503535  W2        17704           0.0000000000
     53113     17705  TIP3      OH2             5.9052333595       -3.5811122861       12.6467703535  W2        17705           0.0000000000
     53114     17705  TIP3      H1              5.5357533595       -4.3830622861       12.2772003535  W2        17705           0.0000000000
     53115     17705  TIP3      H2              6.8463433595       -3.7496222861       12.6931103535  W2        17705           0.0000000000
     53116     17706  TIP3      OH2             2.5152833595       -9.9208522861        8.0396503535  W2        17706           0.0000000000
     53117     17706  TIP3      H1              2.0676233595       -9.0749822861        8.0213003535  W2        17706           0.0000000000
     53118     17706  TIP3      H2              1.9544033595      -10.5004322861        7.5241603535  W2        17706           0.0000000000
     53119     17707  TIP3      OH2             3.2258933595       -7.7588922861       10.1654503535  W2        17707           0.0000000000
     53120     17707  TIP3      H1              3.4392433595       -8.5287322861       10.6927503535  W2        17707           0.0000000000
     53121     17707  TIP3      H2              3.9636533595       -7.6692222861        9.5622103535  W2        17707           0.0000000000
     53122     17708  TIP3      OH2            13.4309933595        0.3979977139       11.0324203535  W2        17708           0.0000000000
     53123     17708  TIP3      H1             14.0506333595       -0.2785322861       10.7593403535  W2        17708           0.0000000000
     53124     17708  TIP3      H2             13.2227333595        0.1800777139       11.9409103535  W2        17708           0.0000000000
     53125     17709  TIP3      OH2            11.0028633595       -5.2130722861       12.9249703535  W2        17709           0.0000000000
     53126     17709  TIP3      H1             11.3066533595       -5.8989322861       12.3303803535  W2        17709           0.0000000000
     53127     17709  TIP3      H2             11.7242633595       -5.0942022861       13.5427703535  W2        17709           0.0000000000
     53128     17710  TIP3      OH2            19.6658433595      -13.6115422861       13.7855903535  W2        17710           0.0000000000
     53129     17710  TIP3      H1             19.7150633595      -13.0014222861       14.5215003535  W2        17710           0.0000000000
     53130     17710  TIP3      H2             20.0913533595      -13.1504522861       13.0627003535  W2        17710           0.0000000000
     53131     17711  TIP3      OH2            14.1435633595      -10.8188322861       13.2524503535  W2        17711           0.0000000000
     53132     17711  TIP3      H1             14.2861533595      -11.7651322861       13.2726103535  W2        17711           0.0000000000
     53133     17711  TIP3      H2             14.0374633595      -10.6118522861       12.3239403535  W2        17711           0.0000000000
     53134     17712  TIP3      OH2             7.2983933595      -12.7171922861       10.5249303535  W2        17712           0.0000000000
     53135     17712  TIP3      H1              7.3415033595      -11.8573422861       10.1065603535  W2        17712           0.0000000000
     53136     17712  TIP3      H2              6.8408033595      -13.2697222861        9.8912503535  W2        17712           0.0000000000
     53137     17713  TIP3      OH2            15.0206633595      -12.5866322861        8.9257603535  W2        17713           0.0000000000
     53138     17713  TIP3      H1             15.6670933595      -12.9153122861        9.5505203535  W2        17713           0.0000000000
     53139     17713  TIP3      H2             15.5306033595      -12.0687322861        8.3029003535  W2        17713           0.0000000000
     53140     17714  TIP3      OH2             3.9185433595      -10.3206122861       11.2870703535  W2        17714           0.0000000000
     53141     17714  TIP3      H1              4.5722033595      -10.8704422861       11.7190803535  W2        17714           0.0000000000
     53142     17714  TIP3      H2              3.9424733595      -10.5947122861       10.3702703535  W2        17714           0.0000000000
     53143     17715  TIP3      OH2             9.0749933595       -8.7704822861       10.5022203535  W2        17715           0.0000000000
     53144     17715  TIP3      H1              9.6910933595       -9.2969422861       11.0116203535  W2        17715           0.0000000000
     53145     17715  TIP3      H2              8.4888733595       -9.4106122861       10.0985803535  W2        17715           0.0000000000
     53146     17716  TIP3      OH2            20.0573033595      -12.1336222861       16.0215703535  W2        17716           0.0000000000
     53147     17716  TIP3      H1             19.3687633595      -11.4755522861       15.9262303535  W2        17716           0.0000000000
     53148     17716  TIP3      H2             20.0727633595      -12.3308322861       16.9581103535  W2        17716           0.0000000000
     53149     17717  TIP3      OH2             6.1085833595      -13.7993522861       14.5990103535  W2        17717           0.0000000000
     53150     17717  TIP3      H1              5.8897533595      -13.2692922861       13.8326103535  W2        17717           0.0000000000
     53151     17717  TIP3      H2              5.4406733595      -13.5728022861       15.2461503535  W2        17717           0.0000000000
     53152     17718  TIP3      OH2            13.4775633595       -4.2992422861        8.1429203535  W2        17718           0.0000000000
     53153     17718  TIP3      H1             13.1820733595       -4.6220122861        7.2916103535  W2        17718           0.0000000000
     53154     17718  TIP3      H2             13.1533433595       -3.3995722861        8.1841803535  W2        17718           0.0000000000
     53155     17719  TIP3      OH2             8.6777233595       -6.1237822861       14.8863803535  W2        17719           0.0000000000
     53156     17719  TIP3      H1              7.9376333595       -5.5256322861       14.9899003535  W2        17719           0.0000000000
     53157     17719  TIP3      H2              9.3916733595       -5.5698222861       14.5707403535  W2        17719           0.0000000000
     53158     17720  TIP3      OH2            16.7845033595      -13.2957022861       10.9063503535  W2        17720           0.0000000000
     53159     17720  TIP3      H1             16.5693033595      -14.0613622861       11.4389503535  W2        17720           0.0000000000
     53160     17720  TIP3      H2             17.4402433595      -12.8232422861       11.4192003535  W2        17720           0.0000000000
     53161     17721  TIP3      OH2             5.7023133595      -11.9071722861       12.5512303535  W2        17721           0.0000000000
     53162     17721  TIP3      H1              6.3159433595      -11.2744122861       12.9244703535  W2        17721           0.0000000000
     53163     17721  TIP3      H2              6.2143833595      -12.3796722861       11.8949203535  W2        17721           0.0000000000
     53164     17722  TIP3      OH2             7.0851533595       -4.1594822861       15.6735303535  W2        17722           0.0000000000
     53165     17722  TIP3      H1              7.0799133595       -3.2801322861       15.2954603535  W2        17722           0.0000000000
     53166     17722  TIP3      H2              6.2315633595       -4.2430722861       16.0985203535  W2        17722           0.0000000000
     53167     17723  TIP3      OH2             3.2062433595       -4.4886922861        6.4554603535  W2        17723           0.0000000000
     53168     17723  TIP3      H1              2.9343333595       -4.2595922861        5.5667503535  W2        17723           0.0000000000
     53169     17723  TIP3      H2              3.2518133595       -3.6508122861        6.9159903535  W2        17723           0.0000000000
     53170     17724  TIP3      OH2            16.8312133595       -2.8671022861       13.1683103535  W2        17724           0.0000000000
     53171     17724  TIP3      H1             15.8895833595       -2.8087122861       13.3300003535  W2        17724           0.0000000000
     53172     17724  TIP3      H2             17.1078233595       -1.9610522861       13.0312803535  W2        17724           0.0000000000
     53173     17725  TIP3      OH2            17.1319133595      -14.5805722861       14.5857003535  W2        17725           0.0000000000
     53174     17725  TIP3      H1             16.3958333595      -13.9698622861       14.5478303535  W2        17725           0.0000000000
     53175     17725  TIP3      H2             17.8153133595      -14.1656722861       14.0593403535  W2        17725           0.0000000000
     53176     17726  TIP3      OH2            10.1350533595      -16.4938422861       12.0515003535  W2        17726           0.0000000000
     53177     17726  TIP3      H1             10.0174733595      -17.4422422861       11.9973303535  W2        17726           0.0000000000
     53178     17726  TIP3      H2              9.2800633595      -16.1612322861       12.3246103535  W2        17726           0.0000000000
     53179     17727  TIP3      OH2            15.0833333595       -1.0857522861        9.7934703535  W2        17727           0.0000000000
     53180     17727  TIP3      H1             15.5085633595       -1.7929622861        9.3084303535  W2        17727           0.0000000000
     53181     17727  TIP3      H2             15.4003333595       -0.2844822861        9.3766903535  W2        17727           0.0000000000
     53182     17728  TIP3      OH2            16.2429833595       -3.1849022861        8.3021303535  W2        17728           0.0000000000
     53183     17728  TIP3      H1             15.9854633595       -3.8748922861        7.6907203535  W2        17728           0.0000000000
     53184     17728  TIP3      H2             16.3140633595       -3.6277822861        9.1477203535  W2        17728           0.0000000000
     53185     17729  TIP3      OH2            17.9290033595       -4.6182322861       16.7794803535  W2        17729           0.0000000000
     53186     17729  TIP3      H1             18.0686333595       -5.2099822861       16.0401803535  W2        17729           0.0000000000
     53187     17729  TIP3      H2             18.0962833595       -3.7456422861       16.4233603535  W2        17729           0.0000000000
     53188     17730  TIP3      OH2            12.4015433595       -7.6562822861        6.5520803535  W2        17730           0.0000000000
     53189     17730  TIP3      H1             11.6900933595       -7.1213122861        6.2001303535  W2        17730           0.0000000000
     53190     17730  TIP3      H2             13.0925033595       -7.6010722861        5.8919703535  W2        17730           0.0000000000
     53191     17731  TIP3      OH2            12.4554633595       -9.1988522861        3.5905803535  W2        17731           0.0000000000
     53192     17731  TIP3      H1             13.1564533595       -9.1761622861        4.2419803535  W2        17731           0.0000000000
     53193     17731  TIP3      H2             12.7577533595       -9.8268822861        2.9345103535  W2        17731           0.0000000000
     53194     17732  TIP3      OH2            19.7709333595       -8.2784322861       14.8455203535  W2        17732           0.0000000000
     53195     17732  TIP3      H1             19.1183433595       -7.5838722861       14.9346103535  W2        17732           0.0000000000
     53196     17732  TIP3      H2             20.2359633595       -8.0683422861       14.0356803535  W2        17732           0.0000000000
     53197     17733  TIP3      OH2            15.8073133595       -7.4469522861        7.5036703535  W2        17733           0.0000000000
     53198     17733  TIP3      H1             15.0754133595       -7.2185822861        8.0767303535  W2        17733           0.0000000000
     53199     17733  TIP3      H2             16.2545333595       -8.1606822861        7.9584203535  W2        17733           0.0000000000
     53200     17734  TIP3      OH2            15.7046633595       -9.2726922861       16.5713703535  W2        17734           0.0000000000
     53201     17734  TIP3      H1             15.7845733595       -8.5092522861       17.1432203535  W2        17734           0.0000000000
     53202     17734  TIP3      H2             15.1034333595       -8.9934522861       15.8808803535  W2        17734           0.0000000000
     53203     17735  TIP3      OH2             7.4526833595       -6.8163322861        9.3861703535  W2        17735           0.0000000000
     53204     17735  TIP3      H1              7.1222033595       -7.1869922861        8.5678703535  W2        17735           0.0000000000
     53205     17735  TIP3      H2              8.0410933595       -7.4869322861        9.7330003535  W2        17735           0.0000000000
     53206     17736  TIP3      OH2             8.8194333595       -3.3882722861       12.0673903535  W2        17736           0.0000000000
     53207     17736  TIP3      H1              8.7245633595       -3.9669622861       11.3108503535  W2        17736           0.0000000000
     53208     17736  TIP3      H2              9.5487933595       -3.7597022861       12.5636703535  W2        17736           0.0000000000
     53209     17737  TIP3      OH2             7.8192333595       -8.0477722861       13.0196703535  W2        17737           0.0000000000
     53210     17737  TIP3      H1              8.3844833595       -7.9263522861       12.2567903535  W2        17737           0.0000000000
     53211     17737  TIP3      H2              8.1381233595       -7.4102722861       13.6585203535  W2        17737           0.0000000000
     53212     17738  TIP3      OH2            14.1284533595       -2.5445822861       13.7537203535  W2        17738           0.0000000000
     53213     17738  TIP3      H1             13.8881133595       -1.8822722861       14.4016403535  W2        17738           0.0000000000
     53214     17738  TIP3      H2             13.9302733595       -3.3790622861       14.1786803535  W2        17738           0.0000000000
     53215     17739  TIP3      OH2             8.6993033595       -3.6485022861       17.7368603535  W2        17739           0.0000000000
     53216     17739  TIP3      H1              8.3880533595       -2.8661822861       18.1921803535  W2        17739           0.0000000000
     53217     17739  TIP3      H2              8.0493233595       -3.8015922861       17.0510603535  W2        17739           0.0000000000
     53218     17740  TIP3      OH2            14.6782633595       -8.2846622861        5.1887903535  W2        17740           0.0000000000
     53219     17740  TIP3      H1             15.2578133595       -8.1346322861        5.9356803535  W2        17740           0.0000000000
     53220     17740  TIP3      H2             15.0922633595       -7.8139222861        4.4654303535  W2        17740           0.0000000000
     53221     17741  TIP3      OH2             5.6192933595       -7.4503922861       16.9654303535  W2        17741           0.0000000000
     53222     17741  TIP3      H1              5.6896133595       -6.7997122861       17.6639303535  W2        17741           0.0000000000
     53223     17741  TIP3      H2              4.7285133595       -7.3476422861       16.6305203535  W2        17741           0.0000000000
     53224     17742  TIP3      OH2            12.4047533595       -1.5478122861        8.6241003535  W2        17742           0.0000000000
     53225     17742  TIP3      H1             12.8785133595       -1.2521822861        9.4015203535  W2        17742           0.0000000000
     53226     17742  TIP3      H2             11.8416833595       -0.8096522861        8.3910603535  W2        17742           0.0000000000
     53227     17743  TIP3      OH2             6.9388933595       -1.5770022861       18.5002403535  W2        17743           0.0000000000
     53228     17743  TIP3      H1              6.9464233595       -1.7130322861       17.5527903535  W2        17743           0.0000000000
     53229     17743  TIP3      H2              6.0229333595       -1.6941922861       18.7522403535  W2        17743           0.0000000000
     53230     17744  TIP3      OH2            18.3771033595      -16.5346222861        5.0017603535  W2        17744           0.0000000000
     53231     17744  TIP3      H1             17.4771733595      -16.3957222861        5.2968203535  W2        17744           0.0000000000
     53232     17744  TIP3      H2             18.6289433595      -15.7031622861        4.5999303535  W2        17744           0.0000000000
     53233     17745  TIP3      OH2             6.4429533595       -7.7469022861        6.9754503535  W2        17745           0.0000000000
     53234     17745  TIP3      H1              6.1510833595       -6.9787322861        6.4845803535  W2        17745           0.0000000000
     53235     17745  TIP3      H2              5.7684733595       -8.4062822861        6.8125903535  W2        17745           0.0000000000
     53236     17746  TIP3      OH2            19.5662433595       -2.1683822861        3.3781503535  W2        17746           0.0000000000
     53237     17746  TIP3      H1             19.6395933595       -1.2293622861        3.5486803535  W2        17746           0.0000000000
     53238     17746  TIP3      H2             20.4717533595       -2.4735222861        3.3218803535  W2        17746           0.0000000000
     53239     17747  TIP3      OH2             2.5359633595       -5.3839822861       15.7904303535  W2        17747           0.0000000000
     53240     17747  TIP3      H1              2.0348033595       -5.4120422861       14.9754003535  W2        17747           0.0000000000
     53241     17747  TIP3      H2              2.5413333595       -6.2896622861       16.1001603535  W2        17747           0.0000000000
     53242     17748  TIP3      OH2             2.2862333595       -2.6036022861       12.6744503535  W2        17748           0.0000000000
     53243     17748  TIP3      H1              3.2322933595       -2.7479022861       12.6554003535  W2        17748           0.0000000000
     53244     17748  TIP3      H2              2.1738633595       -1.8193222861       13.2115703535  W2        17748           0.0000000000
     53245     17749  TIP3      OH2            20.4840833595       -1.9376322861       18.3568203535  W2        17749           0.0000000000
     53246     17749  TIP3      H1             20.4347633595       -2.8928222861       18.3195803535  W2        17749           0.0000000000
     53247     17749  TIP3      H2             19.6573133595       -1.6701022861       18.7582003535  W2        17749           0.0000000000
     53248     17750  TIP3      OH2            11.4624833595       -2.3637122861       17.2329603535  W2        17750           0.0000000000
     53249     17750  TIP3      H1             11.5499433595       -1.5372522861       17.7078703535  W2        17750           0.0000000000
     53250     17750  TIP3      H2             10.5989933595       -2.6933322861       17.4818903535  W2        17750           0.0000000000
     53251     17751  TIP3      OH2            11.8770633595        1.4086577139        7.0390203535  W2        17751           0.0000000000
     53252     17751  TIP3      H1             11.8016633595        1.2873777139        6.0925403535  W2        17751           0.0000000000
     53253     17751  TIP3      H2             11.9099333595        2.3579277139        7.1574803535  W2        17751           0.0000000000
     53254     17752  TIP3      OH2             5.5304433595        0.1973577139        8.8199203535  W2        17752           0.0000000000
     53255     17752  TIP3      H1              5.6824833595       -0.1506022861        9.6985703535  W2        17752           0.0000000000
     53256     17752  TIP3      H2              4.6794833595       -0.1589122861        8.5646403535  W2        17752           0.0000000000
     53257     17753  TIP3      OH2            14.9786633595        0.5626777139        4.0412603535  W2        17753           0.0000000000
     53258     17753  TIP3      H1             15.3535033595       -0.1817122861        3.5705203535  W2        17753           0.0000000000
     53259     17753  TIP3      H2             14.9830333595        0.2927377139        4.9595903535  W2        17753           0.0000000000
     53260     17754  TIP3      OH2            14.6474733595        0.4883877139        6.7904803535  W2        17754           0.0000000000
     53261     17754  TIP3      H1             13.7124533595        0.5885777139        6.9691803535  W2        17754           0.0000000000
     53262     17754  TIP3      H2             14.9276633595       -0.2210122861        7.3688003535  W2        17754           0.0000000000
     53263     17755  TIP3      OH2            17.6360633595      -10.4443822861       18.8370403535  W2        17755           0.0000000000
     53264     17755  TIP3      H1             17.2287433595       -9.9638222861       18.1163703535  W2        17755           0.0000000000
     53265     17755  TIP3      H2             17.6766333595      -11.3497822861       18.5291203535  W2        17755           0.0000000000
     53266     17756  TIP3      OH2             4.7850133595       -4.0604422861       16.8337103535  W2        17756           0.0000000000
     53267     17756  TIP3      H1              5.0011433595       -4.4218822861       17.6932903535  W2        17756           0.0000000000
     53268     17756  TIP3      H2              3.9294833595       -4.4350622861       16.6240603535  W2        17756           0.0000000000
     53269     17757  TIP3      OH2             7.4038133595      -15.5903922861       12.8291303535  W2        17757           0.0000000000
     53270     17757  TIP3      H1              6.5421833595      -15.6775722861       12.4214203535  W2        17757           0.0000000000
     53271     17757  TIP3      H2              7.3813833595      -14.7343822861       13.2568903535  W2        17757           0.0000000000
     53272     17758  TIP3      OH2            12.0665933595      -15.8683522861       16.2038303535  W2        17758           0.0000000000
     53273     17758  TIP3      H1             12.4869033595      -16.2836422861       16.9568903535  W2        17758           0.0000000000
     53274     17758  TIP3      H2             11.1335533595      -16.0470222861       16.3210303535  W2        17758           0.0000000000
     53275     17759  TIP3      OH2            15.3930833595      -12.1128322861       17.0572803535  W2        17759           0.0000000000
     53276     17759  TIP3      H1             14.8790333595      -12.2386122861       17.8548803535  W2        17759           0.0000000000
     53277     17759  TIP3      H2             15.2375533595      -11.2005222861       16.8129003535  W2        17759           0.0000000000
     53278     17760  TIP3      OH2            16.1555733595       -7.2518322861        2.8185803535  W2        17760           0.0000000000
     53279     17760  TIP3      H1             16.1976533595       -7.4744422861        1.8885803535  W2        17760           0.0000000000
     53280     17760  TIP3      H2             17.0047833595       -6.8531222861        3.0085703535  W2        17760           0.0000000000
     53281     17761  TIP3      OH2            11.7283233595      -13.3760122861        3.4889103535  W2        17761           0.0000000000
     53282     17761  TIP3      H1             11.4748033595      -13.3568522861        4.4117203535  W2        17761           0.0000000000
     53283     17761  TIP3      H2             11.4715333595      -14.2474722861        3.1875303535  W2        17761           0.0000000000
     53284     17762  TIP3      OH2             7.4948233595      -10.6249422861       13.9241503535  W2        17762           0.0000000000
     53285     17762  TIP3      H1              6.8530333595      -10.6652122861       14.6331603535  W2        17762           0.0000000000
     53286     17762  TIP3      H2              7.5320233595       -9.6984722861       13.6864503535  W2        17762           0.0000000000
     53287     17763  TIP3      OH2             7.4917333595      -10.4039322861        8.8361503535  W2        17763           0.0000000000
     53288     17763  TIP3      H1              6.5990233595      -10.7443222861        8.7775303535  W2        17763           0.0000000000
     53289     17763  TIP3      H2              7.9423933595      -10.7808422861        8.0804703535  W2        17763           0.0000000000
     53290     17764  TIP3      OH2            13.0272833595       -9.9879022861        7.6532303535  W2        17764           0.0000000000
     53291     17764  TIP3      H1             12.6183133595       -9.1730422861        7.3617103535  W2        17764           0.0000000000
     53292     17764  TIP3      H2             13.7479033595      -10.1278922861        7.0389403535  W2        17764           0.0000000000
     53293     17765  TIP3      OH2            12.1294433595       -9.8122622861       19.1413003535  W2        17765           0.0000000000
     53294     17765  TIP3      H1             11.5668233595      -10.5171022861       19.4620803535  W2        17765           0.0000000000
     53295     17765  TIP3      H2             12.9557833595       -9.9330722861       19.6090603535  W2        17765           0.0000000000
     53296     17766  TIP3      OH2            14.0320533595      -10.5418622861       10.4672003535  W2        17766           0.0000000000
     53297     17766  TIP3      H1             13.8365033595       -9.9361822861        9.7522603535  W2        17766           0.0000000000
     53298     17766  TIP3      H2             14.2133133595      -11.3753422861       10.0328303535  W2        17766           0.0000000000
     53299     17767  TIP3      OH2             5.2448733595      -10.3045922861       15.7913503535  W2        17767           0.0000000000
     53300     17767  TIP3      H1              5.2068133595       -9.9044322861       16.6600603535  W2        17767           0.0000000000
     53301     17767  TIP3      H2              4.7539833595      -11.1213522861       15.8816403535  W2        17767           0.0000000000
     53302     17768  TIP3      OH2             8.6106133595      -12.9303622861        2.5899503535  W2        17768           0.0000000000
     53303     17768  TIP3      H1              8.1796833595      -13.3753522861        3.3196903535  W2        17768           0.0000000000
     53304     17768  TIP3      H2              7.8924833595      -12.5587322861        2.0777003535  W2        17768           0.0000000000
     53305     17769  TIP3      OH2             1.8529533595      -13.1884122861        9.6418203535  W2        17769           0.0000000000
     53306     17769  TIP3      H1              2.4837233595      -13.2172022861       10.3612103535  W2        17769           0.0000000000
     53307     17769  TIP3      H2              2.3023833595      -13.6135422861        8.9114103535  W2        17769           0.0000000000
     53308     17770  TIP3      OH2             3.1271633595      -12.4422122861        5.0658603535  W2        17770           0.0000000000
     53309     17770  TIP3      H1              3.6013333595      -11.8512222861        4.4809503535  W2        17770           0.0000000000
     53310     17770  TIP3      H2              2.4098033595      -11.9119222861        5.4128703535  W2        17770           0.0000000000
     53311     17771  TIP3      OH2            13.2959733595       -8.9037322861       15.1384403535  W2        17771           0.0000000000
     53312     17771  TIP3      H1             13.6194533595       -9.5347622861       14.4954903535  W2        17771           0.0000000000
     53313     17771  TIP3      H2             12.8559033595       -9.4385122861       15.7991803535  W2        17771           0.0000000000
     53314     17772  TIP3      OH2            10.0732633595      -12.9761822861        9.9225603535  W2        17772           0.0000000000
     53315     17772  TIP3      H1              9.1623733595      -12.9195022861       10.2111603535  W2        17772           0.0000000000
     53316     17772  TIP3      H2             10.5785533595      -13.0366322861       10.7332803535  W2        17772           0.0000000000
     53317     17773  TIP3      OH2             4.9016033595      -11.3475522861        8.7493203535  W2        17773           0.0000000000
     53318     17773  TIP3      H1              4.0124033595      -11.2480022861        8.4092803535  W2        17773           0.0000000000
     53319     17773  TIP3      H2              5.1980933595      -12.1892522861        8.4031103535  W2        17773           0.0000000000
     53320     17774  TIP3      OH2             8.5547833595      -11.3472922861        6.4057803535  W2        17774           0.0000000000
     53321     17774  TIP3      H1              9.4863333595      -11.2182922861        6.5840903535  W2        17774           0.0000000000
     53322     17774  TIP3      H2              8.3398133595      -10.6778622861        5.7562503535  W2        17774           0.0000000000
     53323     17775  TIP3      OH2            14.4784533595      -13.7415522861       13.1867403535  W2        17775           0.0000000000
     53324     17775  TIP3      H1             13.8016133595      -13.6102422861       13.8507103535  W2        17775           0.0000000000
     53325     17775  TIP3      H2             13.9929433595      -13.8966022861       12.3765103535  W2        17775           0.0000000000
     53326     17776  TIP3      OH2             7.2288033595      -10.1530722861        3.9723903535  W2        17776           0.0000000000
     53327     17776  TIP3      H1              6.6863133595      -10.5326922861        3.2811503535  W2        17776           0.0000000000
     53328     17776  TIP3      H2              8.0622933595       -9.9586022861        3.5438003535  W2        17776           0.0000000000
     53329     17777  TIP3      OH2            17.7659633595        1.9299877139       19.4635003535  W2        17777           0.0000000000
     53330     17777  TIP3      H1             17.9658333595        2.3541777139       18.6290303535  W2        17777           0.0000000000
     53331     17777  TIP3      H2             18.4213333595        2.2738077139       20.0705403535  W2        17777           0.0000000000
     53332     17778  TIP3      OH2             5.3639433595       -5.5958822861       19.0715503535  W2        17778           0.0000000000
     53333     17778  TIP3      H1              6.0961833595       -5.3412922861       19.6330003535  W2        17778           0.0000000000
     53334     17778  TIP3      H2              4.5838133595       -5.3913422861       19.5870903535  W2        17778           0.0000000000
     53335     17779  TIP3      OH2            11.3932333595      -10.1888822861       11.8095203535  W2        17779           0.0000000000
     53336     17779  TIP3      H1             11.9575733595      -10.7352222861       11.2624803535  W2        17779           0.0000000000
     53337     17779  TIP3      H2             11.2455733595      -10.7106922861       12.5982803535  W2        17779           0.0000000000
     53338     17780  TIP3      OH2             6.3952033595      -14.0522722861        8.2280003535  W2        17780           0.0000000000
     53339     17780  TIP3      H1              6.0781533595      -14.9547422861        8.1925403535  W2        17780           0.0000000000
     53340     17780  TIP3      H2              7.1766133595      -14.0505322861        7.6751603535  W2        17780           0.0000000000
     53341     17781  TIP3      OH2            10.0198233595      -11.8002722861       14.2235603535  W2        17781           0.0000000000
     53342     17781  TIP3      H1              9.1843533595      -11.3463222861       14.3338003535  W2        17781           0.0000000000
     53343     17781  TIP3      H2             10.5438833595      -11.5244222861       14.9755503535  W2        17781           0.0000000000
     53344     17782  TIP3      OH2            10.5640833595       -5.5875022861        5.9082003535  W2        17782           0.0000000000
     53345     17782  TIP3      H1              9.8191833595       -6.0949722861        5.5859903535  W2        17782           0.0000000000
     53346     17782  TIP3      H2             10.4298033595       -5.5387022861        6.8546803535  W2        17782           0.0000000000
     53347     17783  TIP3      OH2            17.7139733595       -6.4546822861       14.6949603535  W2        17783           0.0000000000
     53348     17783  TIP3      H1             18.3558533595       -5.9980522861       14.1511803535  W2        17783           0.0000000000
     53349     17783  TIP3      H2             16.8836633595       -6.3414422861       14.2323703535  W2        17783           0.0000000000
     53350     17784  TIP3      OH2            14.4617633595      -12.7735122861        4.1074603535  W2        17784           0.0000000000
     53351     17784  TIP3      H1             13.5231833595      -12.6619522861        3.9563403535  W2        17784           0.0000000000
     53352     17784  TIP3      H2             14.7589733595      -11.9168222861        4.4140303535  W2        17784           0.0000000000
     53353     17785  TIP3      OH2            12.0832933595       -5.4031722861       17.1451103535  W2        17785           0.0000000000
     53354     17785  TIP3      H1             11.7379033595       -5.7849322861       17.9520703535  W2        17785           0.0000000000
     53355     17785  TIP3      H2             11.8833033595       -4.4698122861       17.2164003535  W2        17785           0.0000000000
     53356     17786  TIP3      OH2            15.1801133595      -10.9062422861        5.7682003535  W2        17786           0.0000000000
     53357     17786  TIP3      H1             16.0720133595      -11.0437422861        6.0873203535  W2        17786           0.0000000000
     53358     17786  TIP3      H2             15.2364733595      -10.1156322861        5.2315503535  W2        17786           0.0000000000
     53359     17787  TIP3      OH2             5.6889133595       -6.2925022861       11.6779903535  W2        17787           0.0000000000
     53360     17787  TIP3      H1              6.4336333595       -6.2949322861       11.0766403535  W2        17787           0.0000000000
     53361     17787  TIP3      H2              5.7665733595       -7.1161222861       12.1595003535  W2        17787           0.0000000000
     53362     17788  TIP3      OH2            12.6894933595       -4.1290722861        4.9336603535  W2        17788           0.0000000000
     53363     17788  TIP3      H1             12.3943333595       -3.3022822861        5.3151403535  W2        17788           0.0000000000
     53364     17788  TIP3      H2             11.9864933595       -4.7483822861        5.1298003535  W2        17788           0.0000000000
     53365     17789  TIP3      OH2             2.6968833595       -7.8318122861       16.9928403535  W2        17789           0.0000000000
     53366     17789  TIP3      H1              2.9197433595       -8.2498522861       17.8245903535  W2        17789           0.0000000000
     53367     17789  TIP3      H2              2.0948933595       -8.4443122861       16.5701203535  W2        17789           0.0000000000
     53368     17790  TIP3      OH2             9.7133733595       -8.3148222861       19.2058103535  W2        17790           0.0000000000
     53369     17790  TIP3      H1              9.4174533595       -8.4805222861       18.3107203535  W2        17790           0.0000000000
     53370     17790  TIP3      H2             10.6448933595       -8.5347922861       19.1952003535  W2        17790           0.0000000000
     53371     17791  TIP3      OH2            14.3336533595       -2.9416222861       17.0956103535  W2        17791           0.0000000000
     53372     17791  TIP3      H1             13.4330833595       -2.7583622861       16.8280003535  W2        17791           0.0000000000
     53373     17791  TIP3      H2             14.3677633595       -2.6826922861       18.0164903535  W2        17791           0.0000000000
     53374     17792  TIP3      OH2            20.0649833595      -10.6968322861        5.4628703535  W2        17792           0.0000000000
     53375     17792  TIP3      H1             19.5106133595      -11.0930322861        4.7906203535  W2        17792           0.0000000000
     53376     17792  TIP3      H2             20.1653433595       -9.7863122861        5.1852003535  W2        17792           0.0000000000
     53377     17793  TIP3      OH2            20.0281833595       -4.8966622861       18.3000203535  W2        17793           0.0000000000
     53378     17793  TIP3      H1             19.1770333595       -4.6582822861       17.9326603535  W2        17793           0.0000000000
     53379     17793  TIP3      H2             20.6185233595       -4.9133422861       17.5467303535  W2        17793           0.0000000000
     53380     17794  TIP3      OH2            18.3601533595       -1.9107922861        5.9280803535  W2        17794           0.0000000000
     53381     17794  TIP3      H1             17.9872633595       -2.7364122861        6.2371403535  W2        17794           0.0000000000
     53382     17794  TIP3      H2             18.6375033595       -2.0938522861        5.0304203535  W2        17794           0.0000000000
     53383     17795  TIP3      OH2            15.5205433595       -7.1028422861       12.9492703535  W2        17795           0.0000000000
     53384     17795  TIP3      H1             14.5922333595       -7.3346522861       12.9222003535  W2        17795           0.0000000000
     53385     17795  TIP3      H2             15.9716533595       -7.8798622861       12.6191503535  W2        17795           0.0000000000
     53386     17796  TIP3      OH2             8.0638533595       -2.7746822861        9.0821403535  W2        17796           0.0000000000
     53387     17796  TIP3      H1              8.5910733595       -2.0012422861        8.8820203535  W2        17796           0.0000000000
     53388     17796  TIP3      H2              7.1837033595       -2.5497622861        8.7805403535  W2        17796           0.0000000000
     53389     17797  TIP3      OH2             3.8186233595       -7.9122722861        3.6693803535  W2        17797           0.0000000000
     53390     17797  TIP3      H1              4.4346133595       -7.2855522861        4.0488603535  W2        17797           0.0000000000
     53391     17797  TIP3      H2              2.9568833595       -7.5962922861        3.9410303535  W2        17797           0.0000000000
     53392     17798  TIP3      OH2             9.4910833595       -5.1116922861        8.6585703535  W2        17798           0.0000000000
     53393     17798  TIP3      H1              9.2500833595       -4.1862522861        8.7001003535  W2        17798           0.0000000000
     53394     17798  TIP3      H2              8.7504433595       -5.5705622861        9.0549603535  W2        17798           0.0000000000
     53395     17799  TIP3      OH2            10.0057433595       -0.9623322861       14.9736803535  W2        17799           0.0000000000
     53396     17799  TIP3      H1             10.3682133595       -0.1077722861       14.7401203535  W2        17799           0.0000000000
     53397     17799  TIP3      H2             10.5372633595       -1.2541722861       15.7143103535  W2        17799           0.0000000000
     53398     17800  TIP3      OH2             8.1741633595       -0.0899322861        8.2037903535  W2        17800           0.0000000000
     53399     17800  TIP3      H1              7.2242133595        0.0158077139        8.2551203535  W2        17800           0.0000000000
     53400     17800  TIP3      H2              8.5259733595        0.7308077139        8.5485403535  W2        17800           0.0000000000
     53401     17801  TIP3      OH2            13.5498233595       -4.8632622861       14.6742403535  W2        17801           0.0000000000
     53402     17801  TIP3      H1             13.1239533595       -5.0910922861       15.5006403535  W2        17801           0.0000000000
     53403     17801  TIP3      H2             14.1304033595       -5.6020822861       14.4917703535  W2        17801           0.0000000000
     53404     17802  TIP3      OH2            15.7527133595       -3.9342122861        3.7481403535  W2        17802           0.0000000000
     53405     17802  TIP3      H1             16.1060233595       -4.3142322861        4.5524903535  W2        17802           0.0000000000
     53406     17802  TIP3      H2             14.8040633595       -4.0277322861        3.8350703535  W2        17802           0.0000000000
     53407     17803  TIP3      OH2            16.2082433595       -0.3113122861       17.1437203535  W2        17803           0.0000000000
     53408     17803  TIP3      H1             15.6065633595       -0.8670222861       16.6483503535  W2        17803           0.0000000000
     53409     17803  TIP3      H2             16.4896133595        0.3556677139       16.5174603535  W2        17803           0.0000000000
     53410     17804  TIP3      OH2            20.2561533595        0.5450377139        3.9491603535  W2        17804           0.0000000000
     53411     17804  TIP3      H1             20.9999433595        1.1310877139        3.8093203535  W2        17804           0.0000000000
     53412     17804  TIP3      H2             19.5619633595        1.1136177139        4.2824003535  W2        17804           0.0000000000
     53413     17805  TIP3      OH2             4.3308333595      -13.0785422861       16.5509803535  W2        17805           0.0000000000
     53414     17805  TIP3      H1              3.4380633595      -12.7400022861       16.4833803535  W2        17805           0.0000000000
     53415     17805  TIP3      H2              4.2321133595      -13.9339322861       16.9690603535  W2        17805           0.0000000000
     53416     17806  TIP3      OH2            16.6186433595       -5.2620122861        5.9749303535  W2        17806           0.0000000000
     53417     17806  TIP3      H1             16.3414033595       -5.9900822861        6.5310403535  W2        17806           0.0000000000
     53418     17806  TIP3      H2             17.5459433595       -5.1428122861        6.1801903535  W2        17806           0.0000000000
     53419     17807  TIP3      OH2             3.9820333595       -1.2741022861       14.9859203535  W2        17807           0.0000000000
     53420     17807  TIP3      H1              4.1990633595       -2.2058622861       14.9548903535  W2        17807           0.0000000000
     53421     17807  TIP3      H2              4.2283833595       -0.9996022861       15.8692003535  W2        17807           0.0000000000
     53422     17808  TIP3      OH2             9.8434933595       -2.8226022861        2.1951403535  W2        17808           0.0000000000
     53423     17808  TIP3      H1             10.0824733595       -3.5707922861        1.6480303535  W2        17808           0.0000000000
     53424     17808  TIP3      H2              9.5746233595       -3.2104322861        3.0279203535  W2        17808           0.0000000000
     53425     17809  TIP3      OH2             8.7805533595       -3.2522222861        4.6514003535  W2        17809           0.0000000000
     53426     17809  TIP3      H1              8.9273533595       -3.7722422861        5.4414903535  W2        17809           0.0000000000
     53427     17809  TIP3      H2              8.7777233595       -2.3454622861        4.9579903535  W2        17809           0.0000000000
     53428     17810  TIP3      OH2             5.2336633595       -5.9998922861        5.1619403535  W2        17810           0.0000000000
     53429     17810  TIP3      H1              4.5475933595       -5.6476422861        5.7289103535  W2        17810           0.0000000000
     53430     17810  TIP3      H2              5.7564533595       -5.2369322861        4.9153703535  W2        17810           0.0000000000
     53431     17811  TIP3      OH2            13.0651733595      -13.3375122861       15.4408403535  W2        17811           0.0000000000
     53432     17811  TIP3      H1             13.7639633595      -13.2636422861       16.0908103535  W2        17811           0.0000000000
     53433     17811  TIP3      H2             12.6843133595      -14.2020122861       15.5951303535  W2        17811           0.0000000000
     53434     17812  TIP3      OH2            13.8496633595      -13.6853422861        6.5380703535  W2        17812           0.0000000000
     53435     17812  TIP3      H1             14.0694933595      -13.2138022861        5.7346103535  W2        17812           0.0000000000
     53436     17812  TIP3      H2             14.4080633595      -13.2910822861        7.2081303535  W2        17812           0.0000000000
     53437     17813  TIP3      OH2            11.5182733595       -1.5548622861        5.4008203535  W2        17813           0.0000000000
     53438     17813  TIP3      H1             10.7018833595       -1.0578922861        5.4532503535  W2        17813           0.0000000000
     53439     17813  TIP3      H2             12.0479033595       -1.0795122861        4.7607003535  W2        17813           0.0000000000
     53440     17814  TIP3      OH2            11.0496533595      -11.9574622861        7.3729103535  W2        17814           0.0000000000
     53441     17814  TIP3      H1             11.8619133595      -11.4531422861        7.4190803535  W2        17814           0.0000000000
     53442     17814  TIP3      H2             10.8049533595      -12.1024922861        8.2868703535  W2        17814           0.0000000000
     53443     17815  TIP3      OH2            11.5852933595      -10.9711922861       16.5575703535  W2        17815           0.0000000000
     53444     17815  TIP3      H1             11.7043233595      -10.3976522861       17.3146103535  W2        17815           0.0000000000
     53445     17815  TIP3      H2             12.2407533595      -11.6592522861       16.6723503535  W2        17815           0.0000000000
     53446     17816  TIP3      OH2            11.9333233595      -14.8761622861        8.3110203535  W2        17816           0.0000000000
     53447     17816  TIP3      H1             11.5866733595      -14.2591022861        8.9554503535  W2        17816           0.0000000000
     53448     17816  TIP3      H2             12.5920133595      -14.3755922861        7.8295703535  W2        17816           0.0000000000
     53449     17817  TIP3      OH2             8.8565833595       -0.5111422861        5.3825103535  W2        17817           0.0000000000
     53450     17817  TIP3      H1              9.0174533595        0.2886077139        4.8817703535  W2        17817           0.0000000000
     53451     17817  TIP3      H2              8.6593633595       -0.2045422861        6.2675703535  W2        17817           0.0000000000
     53452     17818  TIP3      OH2             7.5910233595      -13.8132222861        4.9982703535  W2        17818           0.0000000000
     53453     17818  TIP3      H1              7.5075033595      -12.9249122861        5.3449103535  W2        17818           0.0000000000
     53454     17818  TIP3      H2              8.4810533595      -14.0785522861        5.2299503535  W2        17818           0.0000000000
     53455     17819  TIP3      OH2            17.7898733595      -13.0641622861       17.3925403535  W2        17819           0.0000000000
     53456     17819  TIP3      H1             16.8734533595      -12.8019922861       17.3049103535  W2        17819           0.0000000000
     53457     17819  TIP3      H2             18.1253733595      -13.0672622861       16.4960703535  W2        17819           0.0000000000
     53458     17820  TIP3      OH2            16.3919733595       -9.3140622861       11.4882703535  W2        17820           0.0000000000
     53459     17820  TIP3      H1             15.5944133595       -9.7290422861       11.1597703535  W2        17820           0.0000000000
     53460     17820  TIP3      H2             16.8370833595      -10.0046922861       11.9793203535  W2        17820           0.0000000000
     53461     17821  TIP3      OH2             5.8495533595       -3.3860022861        4.0587203535  W2        17821           0.0000000000
     53462     17821  TIP3      H1              6.4417033595       -2.6865222861        4.3349603535  W2        17821           0.0000000000
     53463     17821  TIP3      H2              6.3088533595       -3.8190522861        3.3391803535  W2        17821           0.0000000000
     53464     17822  TIP3      OH2             4.1654733595      -10.7217022861        3.1746603535  W2        17822           0.0000000000
     53465     17822  TIP3      H1              4.1207333595       -9.7823922861        3.3533603535  W2        17822           0.0000000000
     53466     17822  TIP3      H2              3.2777933595      -10.9572122861        2.9048703535  W2        17822           0.0000000000
     53467     17823  TIP3      OH2            17.4784333595       -0.0578122861       13.1106203535  W2        17823           0.0000000000
     53468     17823  TIP3      H1             17.3228633595        0.6206277139       12.4535503535  W2        17823           0.0000000000
     53469     17823  TIP3      H2             18.4110733595        0.0141177139       13.3136803535  W2        17823           0.0000000000
     53470     17824  TIP3      OH2             4.9736733595      -15.9400422861       11.8477603535  W2        17824           0.0000000000
     53471     17824  TIP3      H1              4.7446533595      -15.8807922861       10.9202603535  W2        17824           0.0000000000
     53472     17824  TIP3      H2              4.5310133595      -16.7314922861       12.1541703535  W2        17824           0.0000000000
     53473     17825  TIP3      OH2             3.9040033595       -1.9993322861        8.0083403535  W2        17825           0.0000000000
     53474     17825  TIP3      H1              3.0718633595       -1.5270622861        8.0354803535  W2        17825           0.0000000000
     53475     17825  TIP3      H2              4.4498333595       -1.4895722861        7.4096503535  W2        17825           0.0000000000
     53476     17826  TIP3      OH2             3.1923733595        0.6130377139       19.3381403535  W2        17826           0.0000000000
     53477     17826  TIP3      H1              3.7325933595        0.3964377139       20.0980603535  W2        17826           0.0000000000
     53478     17826  TIP3      H2              2.7111733595       -0.1923622861       19.1483903535  W2        17826           0.0000000000
     53479     17827  TIP3      OH2             7.7897133595       -0.4675222861       20.9585603535  W2        17827           0.0000000000
     53480     17827  TIP3      H1              8.5574333595       -0.9264422861       21.2994803535  W2        17827           0.0000000000
     53481     17827  TIP3      H2              7.7683333595       -0.6935422861       20.0286803535  W2        17827           0.0000000000
     53482     17828  TIP3      OH2            11.8816733595       -0.9594622861        2.3337403535  W2        17828           0.0000000000
     53483     17828  TIP3      H1             11.2377733595       -1.5906022861        2.6551103535  W2        17828           0.0000000000
     53484     17828  TIP3      H2             12.6435033595       -1.4906622861        2.1020903535  W2        17828           0.0000000000
     53485     17829  TIP3      OH2            14.3665833595       -2.0874122861       19.6877103535  W2        17829           0.0000000000
     53486     17829  TIP3      H1             14.0155333595       -2.9441122861       19.9307503535  W2        17829           0.0000000000
     53487     17829  TIP3      H2             15.0929033595       -1.9447422861       20.2946103535  W2        17829           0.0000000000
     53488     17830  TIP3      OH2            16.4859633595       -1.1424722861        2.5675403535  W2        17830           0.0000000000
     53489     17830  TIP3      H1             16.7690033595       -1.9369522861        3.0202303535  W2        17830           0.0000000000
     53490     17830  TIP3      H2             17.2257533595       -0.9093722861        2.0066503535  W2        17830           0.0000000000
     53491     17831  TIP3      OH2             3.0993233595       -5.5765522861       20.2925703535  W2        17831           0.0000000000
     53492     17831  TIP3      H1              3.2433733595       -6.4784822861       20.0062403535  W2        17831           0.0000000000
     53493     17831  TIP3      H2              2.3270633595       -5.2903422861       19.8048003535  W2        17831           0.0000000000
     53494     17832  TIP3      OH2             7.4406933595       -5.2329822861        2.4250303535  W2        17832           0.0000000000
     53495     17832  TIP3      H1              7.5051033595       -6.0270222861        2.9556703535  W2        17832           0.0000000000
     53496     17832  TIP3      H2              8.0936133595       -5.3517022861        1.7352303535  W2        17832           0.0000000000
     53497     17833  TIP3      OH2             9.7549333595       -5.6067422861       19.7252103535  W2        17833           0.0000000000
     53498     17833  TIP3      H1              9.4263133595       -5.3359322861       18.8679503535  W2        17833           0.0000000000
     53499     17833  TIP3      H2              9.9067533595       -6.5477622861       19.6377103535  W2        17833           0.0000000000
     53500     17834  TIP3      OH2            12.7930333595       -4.1858122861        2.1608303535  W2        17834           0.0000000000
     53501     17834  TIP3      H1             12.5244433595       -4.0056022861        3.0617203535  W2        17834           0.0000000000
     53502     17834  TIP3      H2             12.5865933595       -5.1111922861        2.0294103535  W2        17834           0.0000000000
     53503     17835  TIP3      OH2            15.4894533595       -5.6910122861       17.1084403535  W2        17835           0.0000000000
     53504     17835  TIP3      H1             16.2349333595       -5.1026422861       16.9888403535  W2        17835           0.0000000000
     53505     17835  TIP3      H2             14.7321333595       -5.1090422861       17.1717503535  W2        17835           0.0000000000
     53506     17836  TIP3      OH2             3.9319733595       -8.3762222861       19.7125003535  W2        17836           0.0000000000
     53507     17836  TIP3      H1              4.3400933595       -9.2335622861       19.5915603535  W2        17836           0.0000000000
     53508     17836  TIP3      H2              3.6717333595       -8.3620922861       20.6335303535  W2        17836           0.0000000000
     53509     17837  TIP3      OH2             8.5900733595       -7.2603622861        4.7308303535  W2        17837           0.0000000000
     53510     17837  TIP3      H1              8.1302733595       -7.7445322861        5.4166803535  W2        17837           0.0000000000
     53511     17837  TIP3      H2              8.8449433595       -7.9288222861        4.0948803535  W2        17837           0.0000000000
     53512     17838  TIP3      OH2             7.8790033595       -9.3676522861       17.0867903535  W2        17838           0.0000000000
     53513     17838  TIP3      H1              7.2606133595       -8.6929922861       17.3672603535  W2        17838           0.0000000000
     53514     17838  TIP3      H2              8.2231233595       -9.0462622861       16.2534103535  W2        17838           0.0000000000
     53515     17839  TIP3      OH2             9.6611133595       -9.0171822861        2.9931503535  W2        17839           0.0000000000
     53516     17839  TIP3      H1              9.4806133595       -9.1720622861        2.0659803535  W2        17839           0.0000000000
     53517     17839  TIP3      H2             10.6111633595       -8.9093122861        3.0379403535  W2        17839           0.0000000000
     53518     17840  TIP3      OH2            12.8988233595       -6.8961222861       20.3642703535  W2        17840           0.0000000000
     53519     17840  TIP3      H1             13.8519433595       -6.8122122861       20.3368703535  W2        17840           0.0000000000
     53520     17840  TIP3      H2             12.7382833595       -7.6079422861       20.9837603535  W2        17840           0.0000000000
     53521     17841  TIP3      OH2            19.0509433595       -6.6627622861        2.4389603535  W2        17841           0.0000000000
     53522     17841  TIP3      H1             18.7774233595       -7.0872122861        1.6257903535  W2        17841           0.0000000000
     53523     17841  TIP3      H2             19.0903533595       -5.7313122861        2.2220003535  W2        17841           0.0000000000
     53524     17842  TIP3      OH2             8.2183733595      -12.0125722861       18.1691003535  W2        17842           0.0000000000
     53525     17842  TIP3      H1              8.3684633595      -12.7414422861       17.5670703535  W2        17842           0.0000000000
     53526     17842  TIP3      H2              8.2206133595      -11.2354022861       17.6103203535  W2        17842           0.0000000000
     53527     17843  TIP3      OH2             8.6309433595      -13.6429922861       15.6618403535  W2        17843           0.0000000000
     53528     17843  TIP3      H1              9.1666933595      -13.1913222861       15.0097703535  W2        17843           0.0000000000
     53529     17843  TIP3      H2              7.7789033595      -13.7510122861       15.2392503535  W2        17843           0.0000000000
     53530     17844  TIP3      OH2            10.2127833595       -8.2033722861       15.9013603535  W2        17844           0.0000000000
     53531     17844  TIP3      H1             10.9632633595       -8.3596222861       15.3281403535  W2        17844           0.0000000000
     53532     17844  TIP3      H2              9.8736133595       -7.3517122861       15.6259103535  W2        17844           0.0000000000
     53533     17845  TIP3      OH2            14.6284033595      -10.3881922861       20.9298903535  W2        17845           0.0000000000
     53534     17845  TIP3      H1             14.8205333595      -11.3192522861       20.8183403535  W2        17845           0.0000000000
     53535     17845  TIP3      H2             15.4860333595       -9.9632422861       20.9194303535  W2        17845           0.0000000000
     53536     17846  TIP3      OH2            15.9451233595       -7.5996722861       19.0071603535  W2        17846           0.0000000000
     53537     17846  TIP3      H1             15.6636233595       -6.8902122861       18.4295403535  W2        17846           0.0000000000
     53538     17846  TIP3      H2             16.8875533595       -7.6723722861       18.8562803535  W2        17846           0.0000000000
     53539     17847  TIP3      OH2             6.6970033595      -10.8142222861       20.0806603535  W2        17847           0.0000000000
     53540     17847  TIP3      H1              5.9299033595      -11.3467422861       19.8704203535  W2        17847           0.0000000000
     53541     17847  TIP3      H2              7.3759033595      -11.1241822861       19.4812903535  W2        17847           0.0000000000
     53542     17848  TIP3      OH2             9.4364933595      -16.1864222861       16.0932003535  W2        17848           0.0000000000
     53543     17848  TIP3      H1              9.3384533595      -15.2401022861       15.9878203535  W2        17848           0.0000000000
     53544     17848  TIP3      H2              8.6941133595      -16.5590422861       15.6175503535  W2        17848           0.0000000000
     53545     17849  TIP3      OH2            10.7005433595      -11.8648822861       19.6570403535  W2        17849           0.0000000000
     53546     17849  TIP3      H1             10.4650833595      -12.0842122861       20.5585303535  W2        17849           0.0000000000
     53547     17849  TIP3      H2              9.9172333595      -12.0717622861       19.1472903535  W2        17849           0.0000000000
     53548     17850  TIP3      OH2            13.4162033595      -12.7375322861       18.7323903535  W2        17850           0.0000000000
     53549     17850  TIP3      H1             12.4687433595      -12.7055622861       18.8647203535  W2        17850           0.0000000000
     53550     17850  TIP3      H2             13.7288733595      -13.3628222861       19.3862103535  W2        17850           0.0000000000
     53551     17851  TIP3      OH2            15.0503533595      -14.1034222861       20.7375803535  W2        17851           0.0000000000
     53552     17851  TIP3      H1             14.9535333595      -15.0556922861       20.7317703535  W2        17851           0.0000000000
     53553     17851  TIP3      H2             14.7286633595      -13.8347422861       21.5981303535  W2        17851           0.0000000000
     53554     17852  TIP3      OH2             4.8772833595      -12.8938422861       19.7851303535  W2        17852           0.0000000000
     53555     17852  TIP3      H1              5.0890233595      -13.6002322861       19.1748803535  W2        17852           0.0000000000
     53556     17852  TIP3      H2              4.7660333595      -13.3312422861       20.6292503535  W2        17852           0.0000000000
     53557     17853  TIP3      OH2             9.6583033595      -16.8926822861       18.7644803535  W2        17853           0.0000000000
     53558     17853  TIP3      H1             10.3701433595      -17.5324622861       18.7503903535  W2        17853           0.0000000000
     53559     17853  TIP3      H2              9.5573433595      -16.6258522861       17.8507903535  W2        17853           0.0000000000
     53560     17854  TIP3      OH2            10.0120533595      -15.2098422861       20.8181103535  W2        17854           0.0000000000
     53561     17854  TIP3      H1              9.8802733595      -15.6854622861       19.9979603535  W2        17854           0.0000000000
     53562     17854  TIP3      H2              9.4127933595      -14.4654822861       20.7628203535  W2        17854           0.0000000000
     53563     17855  TIP3      OH2             9.5582833595        1.6731877139        3.9945103535  W2        17855           0.0000000000
     53564     17855  TIP3      H1             10.4913533595        1.8310577139        4.1383503535  W2        17855           0.0000000000
     53565     17855  TIP3      H2              9.2941633595        2.3484877139        3.3696603535  W2        17855           0.0000000000
     53566     17856  TIP3      OH2             3.1267733595       -3.6904322861        3.4773203535  W2        17856           0.0000000000
     53567     17856  TIP3      H1              4.0406933595       -3.6115422861        3.7507103535  W2        17856           0.0000000000
     53568     17856  TIP3      H2              3.1340833595       -4.3774722861        2.8108803535  W2        17856           0.0000000000
     53569     17857  TIP3      OH2             1.7758333595        1.7024177139        8.5547103535  W2        17857           0.0000000000
     53570     17857  TIP3      H1              1.1285433595        1.2405877139        8.0218303535  W2        17857           0.0000000000
     53571     17857  TIP3      H2              2.1302933595        1.0307477139        9.1373303535  W2        17857           0.0000000000
     53572     17858  TIP3      OH2             2.6457533595       -0.2168822861       10.3593303535  W2        17858           0.0000000000
     53573     17858  TIP3      H1              2.3114333595       -1.0971522861       10.5313503535  W2        17858           0.0000000000
     53574     17858  TIP3      H2              2.8679933595        0.1286177139       11.2238903535  W2        17858           0.0000000000
     53575     17859  TIP3      OH2            20.1942333595        0.5927577139       13.3398103535  W2        17859           0.0000000000
     53576     17859  TIP3      H1             20.1729033595        0.7775977139       14.2787503535  W2        17859           0.0000000000
     53577     17859  TIP3      H2             20.8848533595        1.1611577139       12.9989503535  W2        17859           0.0000000000
     53578     17860  TIP3      OH2            19.7575233595        0.1598677139       16.2617203535  W2        17860           0.0000000000
     53579     17860  TIP3      H1             19.2703933595       -0.5757222861       15.8904603535  W2        17860           0.0000000000
     53580     17860  TIP3      H2             20.3067933595       -0.2337422861       16.9396603535  W2        17860           0.0000000000
     53581     17861  TIP3      OH2            18.2082533595       -4.0503222861       20.8997503535  W2        17861           0.0000000000
     53582     17861  TIP3      H1             17.3423633595       -4.1553522861       21.2939803535  W2        17861           0.0000000000
     53583     17861  TIP3      H2             18.5848433595       -3.2919922861       21.3462203535  W2        17861           0.0000000000
     53584     17862  TIP3      OH2            19.5092233595       -5.7939522861        6.4140003535  W2        17862           0.0000000000
     53585     17862  TIP3      H1             20.3593633595       -5.3728622861        6.5411603535  W2        17862           0.0000000000
     53586     17862  TIP3      H2             19.5147333595       -6.5339422861        7.0211403535  W2        17862           0.0000000000
     53587     17863  TIP3      OH2            19.9037833595       -7.7402122861        8.2375703535  W2        17863           0.0000000000
     53588     17863  TIP3      H1             19.1772433595       -8.2199522861        8.6353303535  W2        17863           0.0000000000
     53589     17863  TIP3      H2             20.4851133595       -7.5347422861        8.9697303535  W2        17863           0.0000000000
     53590     17864  TIP3      OH2            19.6629033595       -4.9554622861       13.1853303535  W2        17864           0.0000000000
     53591     17864  TIP3      H1             20.4963233595       -5.3334622861       12.9046903535  W2        17864           0.0000000000
     53592     17864  TIP3      H2             19.7749333595       -4.0123422861       13.0662403535  W2        17864           0.0000000000
     53593     17865  TIP3      OH2            18.1491333595       -2.0777122861       15.4921703535  W2        17865           0.0000000000
     53594     17865  TIP3      H1             17.5016633595       -1.7525622861       16.1176903535  W2        17865           0.0000000000
     53595     17865  TIP3      H2             17.6315333595       -2.5179422861       14.8180003535  W2        17865           0.0000000000
     53596     17866  TIP3      OH2            20.1720933595       -7.8393622861        4.6287003535  W2        17866           0.0000000000
     53597     17866  TIP3      H1             19.6502033595       -7.4829522861        3.9097903535  W2        17866           0.0000000000
     53598     17866  TIP3      H2             20.1390133595       -7.1645822861        5.3067903535  W2        17866           0.0000000000
     53599     17867  TIP3      OH2            18.5209933595      -10.5998022861        3.1794103535  W2        17867           0.0000000000
     53600     17867  TIP3      H1             18.6174333595       -9.9331022861        2.4993803535  W2        17867           0.0000000000
     53601     17867  TIP3      H2             18.3809533595      -11.4151722861        2.6979603535  W2        17867           0.0000000000
     53602     17868  TIP3      OH2            17.6904633595       -9.2195622861        8.8004403535  W2        17868           0.0000000000
     53603     17868  TIP3      H1             17.5403433595      -10.1647022861        8.7802203535  W2        17868           0.0000000000
     53604     17868  TIP3      H2             17.3369133595       -8.9384222861        9.6443503535  W2        17868           0.0000000000
     53605     17869  TIP3      OH2             2.7257033595       -7.1413422861       12.8108203535  W2        17869           0.0000000000
     53606     17869  TIP3      H1              2.9099933595       -7.2231722861       11.8751103535  W2        17869           0.0000000000
     53607     17869  TIP3      H2              3.5749933595       -7.2656422861       13.2344603535  W2        17869           0.0000000000
     53608     17870  TIP3      OH2            18.5467533595       -7.2492322861       18.4392703535  W2        17870           0.0000000000
     53609     17870  TIP3      H1             19.1294833595       -7.9840022861       18.6309903535  W2        17870           0.0000000000
     53610     17870  TIP3      H2             19.1106833595       -6.4772022861       18.4858503535  W2        17870           0.0000000000
     53611     17871  TIP3      OH2            20.0434633595       -9.3466522861       19.1238103535  W2        17871           0.0000000000
     53612     17871  TIP3      H1             19.1801333595       -9.7254422861       18.9582803535  W2        17871           0.0000000000
     53613     17871  TIP3      H2             20.6478333595      -10.0851722861       19.0493903535  W2        17871           0.0000000000
     53614     17872  TIP3      OH2            17.7683733595      -13.1918222861        2.2969603535  W2        17872           0.0000000000
     53615     17872  TIP3      H1             18.3789533595      -13.5631422861        2.9337803535  W2        17872           0.0000000000
     53616     17872  TIP3      H2             16.9315233595      -13.6131322861        2.4929603535  W2        17872           0.0000000000
     53617     17873  TIP3      OH2            17.4009433595      -11.6369822861        7.2629503535  W2        17873           0.0000000000
     53618     17873  TIP3      H1             17.6806533595      -12.5439422861        7.3871203535  W2        17873           0.0000000000
     53619     17873  TIP3      H2             18.1601133595      -11.2028322861        6.8738703535  W2        17873           0.0000000000
     53620     17874  TIP3      OH2            18.0127733595      -11.0552422861       12.6988403535  W2        17874           0.0000000000
     53621     17874  TIP3      H1             18.9455733595      -10.8432522861       12.6644403535  W2        17874           0.0000000000
     53622     17874  TIP3      H2             17.7775233595      -10.9540322861       13.6211403535  W2        17874           0.0000000000
     53623     17875  TIP3      OH2            18.0419633595      -10.3187122861       15.4747803535  W2        17875           0.0000000000
     53624     17875  TIP3      H1             17.1990933595      -10.0506722861       15.8407603535  W2        17875           0.0000000000
     53625     17875  TIP3      H2             18.4843933595       -9.4965222861       15.2638903535  W2        17875           0.0000000000
     53626     17876  TIP3      OH2             2.3231833595      -11.8708422861       18.9517003535  W2        17876           0.0000000000
     53627     17876  TIP3      H1              3.2426733595      -11.9930122861       19.1880103535  W2        17876           0.0000000000
     53628     17876  TIP3      H2              1.8736333595      -12.6208722861       19.3410503535  W2        17876           0.0000000000
     53629     17877  TIP3      OH2            20.3251233595      -16.3386922861       20.8282803535  W2        17877           0.0000000000
     53630     17877  TIP3      H1             20.6748233595      -16.9923422861       20.2227503535  W2        17877           0.0000000000
     53631     17877  TIP3      H2             20.4720733595      -15.5012822861       20.3885403535  W2        17877           0.0000000000
     53632     17878  TIP3      OH2            18.0144233595      -14.3740522861        7.3111503535  W2        17878           0.0000000000
     53633     17878  TIP3      H1             18.1969233595      -14.8229022861        8.1366503535  W2        17878           0.0000000000
     53634     17878  TIP3      H2             17.4147133595      -14.9586122861        6.8476103535  W2        17878           0.0000000000
     53635     17879  TIP3      OH2             3.5444333595      -13.5586822861       11.8429903535  W2        17879           0.0000000000
     53636     17879  TIP3      H1              3.9895933595      -14.3504322861       12.1449603535  W2        17879           0.0000000000
     53637     17879  TIP3      H2              4.0107333595      -12.8421622861       12.2735503535  W2        17879           0.0000000000
     53638     17880  TIP3      OH2             1.8484633595      -10.5593822861       12.9120103535  W2        17880           0.0000000000
     53639     17880  TIP3      H1              2.3404433595      -10.7803322861       12.1212103535  W2        17880           0.0000000000
     53640     17880  TIP3      H2              2.2105533595       -9.7190422861       13.1929603535  W2        17880           0.0000000000
     53641     17881  TIP3      OH2            19.8448433595      -14.2292322861       19.1774103535  W2        17881           0.0000000000
     53642     17881  TIP3      H1             18.9274133595      -13.9585222861       19.1417603535  W2        17881           0.0000000000
     53643     17881  TIP3      H2             19.9677833595      -14.7643922861       18.3933803535  W2        17881           0.0000000000
     53644     17882  TIP3      OH2            19.8810433595      -14.3062422861        3.8391803535  W2        17882           0.0000000000
     53645     17882  TIP3      H1             20.2933033595      -15.0276722861        3.3639803535  W2        17882           0.0000000000
     53646     17882  TIP3      H2             20.5626933595      -13.6367822861        3.8976103535  W2        17882           0.0000000000
     53647     17883  TIP3      OH2             2.1621133595      -14.3014722861        6.9662503535  W2        17883           0.0000000000
     53648     17883  TIP3      H1              1.2369533595      -14.0928122861        6.8368003535  W2        17883           0.0000000000
     53649     17883  TIP3      H2              2.6161033595      -13.8173922861        6.2764803535  W2        17883           0.0000000000
     53650     17884  TIP3      OH2            16.9328333595        0.6826977139        8.9119903535  W2        17884           0.0000000000
     53651     17884  TIP3      H1             17.5851233595        0.3349077139        8.3039003535  W2        17884           0.0000000000
     53652     17884  TIP3      H2             17.4432133595        1.1710177139        9.5579603535  W2        17884           0.0000000000
     53653     17885  TIP3      OH2             2.1256533595      -15.5635722861       15.3105003535  W2        17885           0.0000000000
     53654     17885  TIP3      H1              1.4607033595      -15.8095422861       15.9535903535  W2        17885           0.0000000000
     53655     17885  TIP3      H2              1.6827833595      -14.9415322861       14.7333003535  W2        17885           0.0000000000
     53656     17886  TIP3      OH2             4.3175833595       -2.3881622861       19.4550803535  W2        17886           0.0000000000
     53657     17886  TIP3      H1              3.4968333595       -2.2135122861       18.9945503535  W2        17886           0.0000000000
     53658     17886  TIP3      H2              4.0653633595       -2.4616922861       20.3755203535  W2        17886           0.0000000000
     53659     17887  TIP3      OH2             7.2718733595       -1.4140422861       15.7134803535  W2        17887           0.0000000000
     53660     17887  TIP3      H1              6.8469833595       -0.6041922861       15.4309403535  W2        17887           0.0000000000
     53661     17887  TIP3      H2              8.1761533595       -1.3286322861       15.4114603535  W2        17887           0.0000000000
     53662     17888  TIP3      OH2            11.5830133595       -0.0150422861       18.6728503535  W2        17888           0.0000000000
     53663     17888  TIP3      H1             11.7677633595       -0.3484322861       19.5508803535  W2        17888           0.0000000000
     53664     17888  TIP3      H2             12.4294633595        0.2948177139       18.3507703535  W2        17888           0.0000000000
     53665     17889  TIP3      OH2            13.9280533595        1.2708477139       17.9169903535  W2        17889           0.0000000000
     53666     17889  TIP3      H1             14.6049433595        0.6380777139       17.6769103535  W2        17889           0.0000000000
     53667     17889  TIP3      H2             14.2499333595        1.6718977139       18.7243203535  W2        17889           0.0000000000
     53668     17890  TIP3      OH2            18.8454333595      -16.1396022861       16.9964903535  W2        17890           0.0000000000
     53669     17890  TIP3      H1             18.0327833595      -15.8145722861       16.6089603535  W2        17890           0.0000000000
     53670     17890  TIP3      H2             19.0782833595      -16.8997522861       16.4634003535  W2        17890           0.0000000000
     53671     17891  TIP3      OH2             4.6735433595        1.8423477139       15.7610103535  W2        17891           0.0000000000
     53672     17891  TIP3      H1              3.9531833595        2.2824477139       15.3097803535  W2        17891           0.0000000000
     53673     17891  TIP3      H2              4.3079433595        1.5918177139       16.6094103535  W2        17891           0.0000000000
     53674     17892  TIP3      OH2             7.1408033595        1.4427377139       14.7907303535  W2        17892           0.0000000000
     53675     17892  TIP3      H1              6.2760233595        1.5145877139       15.1947403535  W2        17892           0.0000000000
     53676     17892  TIP3      H2              7.0857033595        1.9894677139       14.0069803535  W2        17892           0.0000000000
     53677     17893  TIP3      OH2            11.8513633595        1.3306277139       13.9663303535  W2        17893           0.0000000000
     53678     17893  TIP3      H1             11.3947633595        1.8595977139       13.3121703535  W2        17893           0.0000000000
     53679     17893  TIP3      H2             12.0141633595        1.9337677139       14.6915603535  W2        17893           0.0000000000
     53680     17894  TIP3      OH2            14.1789933595        0.2085877139       14.9113603535  W2        17894           0.0000000000
     53681     17894  TIP3      H1             13.2743633595        0.3736077139       14.6455703535  W2        17894           0.0000000000
     53682     17894  TIP3      H2             14.6078533595        1.0618077139       14.8457003535  W2        17894           0.0000000000
     53683     17895  TIP3      OH2            16.7831833595        1.7784977139       15.2061403535  W2        17895           0.0000000000
     53684     17895  TIP3      H1             16.6013833595        2.6943877139       14.9956303535  W2        17895           0.0000000000
     53685     17895  TIP3      H2             16.9599633595        1.3682077139       14.3596003535  W2        17895           0.0000000000
     53686     17896  TIP3      OH2             4.0883533595        0.4655977139       12.6711903535  W2        17896           0.0000000000
     53687     17896  TIP3      H1              4.0699533595        0.0401077139       13.5284203535  W2        17896           0.0000000000
     53688     17896  TIP3      H2              4.8931433595        0.1470977139       12.2624103535  W2        17896           0.0000000000
     53689     17897  TIP3      OH2             6.2296633595       -0.8245322861       11.3261803535  W2        17897           0.0000000000
     53690     17897  TIP3      H1              6.0107333595       -1.7407922861       11.4957803535  W2        17897           0.0000000000
     53691     17897  TIP3      H2              7.0538833595       -0.6844922861       11.7923203535  W2        17897           0.0000000000
     53692     17898  TIP3      OH2             8.7669133595       -0.3546022861       12.1749803535  W2        17898           0.0000000000
     53693     17898  TIP3      H1              8.9794833595       -1.2427022861       11.8880703535  W2        17898           0.0000000000
     53694     17898  TIP3      H2              8.8314233595       -0.3888322861       13.1293803535  W2        17898           0.0000000000
     53695     17899  TIP3      OH2            12.2752833595      -14.6905422861       11.3193103535  W2        17899           0.0000000000
     53696     17899  TIP3      H1             11.6009633595      -15.3199822861       11.5748903535  W2        17899           0.0000000000
     53697     17899  TIP3      H2             12.8392033595      -15.1746522861       10.7161003535  W2        17899           0.0000000000
     53698     17900  TIP3      OH2            17.4180033595      -16.5831422861       11.4320203535  W2        17900           0.0000000000
     53699     17900  TIP3      H1             18.0217633595      -16.0356022861       10.9301203535  W2        17900           0.0000000000
     53700     17900  TIP3      H2             16.5482033595      -16.2641022861       11.1914303535  W2        17900           0.0000000000
     53701     17901  TIP3      OH2            19.1450433595      -15.4442722861        9.7651103535  W2        17901           0.0000000000
     53702     17901  TIP3      H1             19.7567933595      -15.9587022861        9.2384703535  W2        17901           0.0000000000
     53703     17901  TIP3      H2             19.5273833595      -14.5670622861        9.7885503535  W2        17901           0.0000000000
     53704     17902  TIP3      OH2             4.6020333595      -16.0565122861        9.1413003535  W2        17902           0.0000000000
     53705     17902  TIP3      H1              3.8250133595      -16.2910222861        8.6338903535  W2        17902           0.0000000000
     53706     17902  TIP3      H2              5.1323933595      -16.8533022861        9.1501003535  W2        17902           0.0000000000
     53707     17903  TIP3      OH2             3.4383733595      -16.2587022861        4.9449103535  W2        17903           0.0000000000
     53708     17903  TIP3      H1              3.8774433595      -15.6476522861        4.3532603535  W2        17903           0.0000000000
     53709     17903  TIP3      H2              2.8046133595      -15.7202922861        5.4189103535  W2        17903           0.0000000000
     53710     17904  TIP3      OH2             9.1812933595      -16.1298022861        8.9546103535  W2        17904           0.0000000000
     53711     17904  TIP3      H1             10.0556333595      -15.7413722861        8.9250403535  W2        17904           0.0000000000
     53712     17904  TIP3      H2              9.0453733595      -16.3450222861        9.8773303535  W2        17904           0.0000000000
     53713     17905  TIP3      OH2            14.7381333595      -16.0998222861       10.6037803535  W2        17905           0.0000000000
     53714     17905  TIP3      H1             14.8142933595      -16.0046622861        9.6543803535  W2        17905           0.0000000000
     53715     17905  TIP3      H2             14.4630533595      -17.0075322861       10.7326903535  W2        17905           0.0000000000
     53716     17906  TIP3      OH2            16.0913933595      -16.0740422861        6.2962803535  W2        17906           0.0000000000
     53717     17906  TIP3      H1             15.3885033595      -15.4591222861        6.0864203535  W2        17906           0.0000000000
     53718     17906  TIP3      H2             15.6465333595      -16.9113722861        6.4273703535  W2        17906           0.0000000000
     53719     17907  TIP3      OH2             3.3393233595       -0.3104822861        5.8424203535  W2        17907           0.0000000000
     53720     17907  TIP3      H1              2.6543133595       -0.3485922861        5.1749303535  W2        17907           0.0000000000
     53721     17907  TIP3      H2              3.3430433595        0.6022777139        6.1306303535  W2        17907           0.0000000000
     53722     17908  TIP3      OH2             5.2992833595      -14.3425522861        3.3873203535  W2        17908           0.0000000000
     53723     17908  TIP3      H1              5.7906233595      -14.9723122861        2.8598703535  W2        17908           0.0000000000
     53724     17908  TIP3      H2              5.9229133595      -14.0466122861        4.0504403535  W2        17908           0.0000000000
     53725     17909  TIP3      OH2            10.3252933595      -14.0494022861        5.8443703535  W2        17909           0.0000000000
     53726     17909  TIP3      H1             10.5034233595      -14.6960822861        6.5272303535  W2        17909           0.0000000000
     53727     17909  TIP3      H2             10.2719133595      -13.2156322861        6.3114803535  W2        17909           0.0000000000
     53728     17910  TIP3      OH2            12.2036733595        0.8990077139        4.2400403535  W2        17910           0.0000000000
     53729     17910  TIP3      H1             13.0696933595        1.2657477139        4.0618603535  W2        17910           0.0000000000
     53730     17910  TIP3      H2             11.9569533595        0.4598077139        3.4261203535  W2        17910           0.0000000000
     53731     17911  TIP3      OH2            18.9126333595        0.4620377139        6.9191503535  W2        17911           0.0000000000
     53732     17911  TIP3      H1             18.7183433595       -0.2857522861        6.3541103535  W2        17911           0.0000000000
     53733     17911  TIP3      H2             18.8736433595        1.2200477139        6.3359403535  W2        17911           0.0000000000
     53734     17912  TIP3      OH2             4.5598333595      -15.5423222861       18.6589203535  W2        17912           0.0000000000
     53735     17912  TIP3      H1              4.1936533595      -16.3080622861       19.1013903535  W2        17912           0.0000000000
     53736     17912  TIP3      H2              5.4726833595      -15.5133022861       18.9454303535  W2        17912           0.0000000000
     53737     17913  TIP3      OH2             6.5329133595      -16.1918822861       20.1946303535  W2        17913           0.0000000000
     53738     17913  TIP3      H1              7.4312733595      -16.4658622861       20.0099703535  W2        17913           0.0000000000
     53739     17913  TIP3      H2              6.1462233595      -16.9342822861       20.6588903535  W2        17913           0.0000000000
     53740     17914  TIP3      OH2             5.1574433595        0.6095977139        2.8676303535  W2        17914           0.0000000000
     53741     17914  TIP3      H1              4.8899033595        0.8958877139        3.7409403535  W2        17914           0.0000000000
     53742     17914  TIP3      H2              5.9287033595        0.0635177139        3.0198803535  W2        17914           0.0000000000
     53743     17915  TIP3      OH2            14.9541433595      -16.8593522861       20.3769103535  W2        17915           0.0000000000
     53744     17915  TIP3      H1             15.0308633595      -17.2852822861       21.2306803535  W2        17915           0.0000000000
     53745     17915  TIP3      H2             15.8478033595      -16.8458822861       20.0342603535  W2        17915           0.0000000000
     53746     17916  TIP3      OH2            18.1302533595       -0.7867222861       19.0693303535  W2        17916           0.0000000000
     53747     17916  TIP3      H1             17.3484433595       -0.9729222861       18.5493903535  W2        17916           0.0000000000
     53748     17916  TIP3      H2             18.0582433595        0.1427077139       19.2865803535  W2        17916           0.0000000000
     53749     17917  TIP3      OH2            32.5362933595       -6.9002822861        9.1000503535  W2        17917           0.0000000000
     53750     17917  TIP3      H1             32.6254033595       -5.9564622861        8.9677603535  W2        17917           0.0000000000
     53751     17917  TIP3      H2             31.8980533595       -7.1756422861        8.4419903535  W2        17917           0.0000000000
     53752     17918  TIP3      OH2            31.4694233595       -7.6452122861       12.5188703535  W2        17918           0.0000000000
     53753     17918  TIP3      H1             31.4311733595       -8.2915822861       13.2238303535  W2        17918           0.0000000000
     53754     17918  TIP3      H2             31.1470733595       -8.1117722861       11.7477403535  W2        17918           0.0000000000
     53755     17919  TIP3      OH2            23.8379233595       -8.0310022861       14.1118603535  W2        17919           0.0000000000
     53756     17919  TIP3      H1             23.8791333595       -8.6566722861       14.8351003535  W2        17919           0.0000000000
     53757     17919  TIP3      H2             24.5406933595       -7.4071422861       14.2939003535  W2        17919           0.0000000000
     53758     17920  TIP3      OH2            35.1754433595       -4.7061722861       10.8203803535  W2        17920           0.0000000000
     53759     17920  TIP3      H1             34.7347133595       -5.4265722861       11.2709403535  W2        17920           0.0000000000
     53760     17920  TIP3      H2             35.1624133595       -3.9854522861       11.4501503535  W2        17920           0.0000000000
     53761     17921  TIP3      OH2            24.7612333595       -3.5811122861       12.6467703535  W2        17921           0.0000000000
     53762     17921  TIP3      H1             24.3917533595       -4.3830622861       12.2772003535  W2        17921           0.0000000000
     53763     17921  TIP3      H2             25.7023433595       -3.7496222861       12.6931103535  W2        17921           0.0000000000
     53764     17922  TIP3      OH2            21.3712833595       -9.9208522861        8.0396503535  W2        17922           0.0000000000
     53765     17922  TIP3      H1             20.9236233595       -9.0749822861        8.0213003535  W2        17922           0.0000000000
     53766     17922  TIP3      H2             20.8104033595      -10.5004322861        7.5241603535  W2        17922           0.0000000000
     53767     17923  TIP3      OH2            22.0818933595       -7.7588922861       10.1654503535  W2        17923           0.0000000000
     53768     17923  TIP3      H1             22.2952433595       -8.5287322861       10.6927503535  W2        17923           0.0000000000
     53769     17923  TIP3      H2             22.8196533595       -7.6692222861        9.5622103535  W2        17923           0.0000000000
     53770     17924  TIP3      OH2            32.2869933595        0.3979977139       11.0324203535  W2        17924           0.0000000000
     53771     17924  TIP3      H1             32.9066333595       -0.2785322861       10.7593403535  W2        17924           0.0000000000
     53772     17924  TIP3      H2             32.0787333595        0.1800777139       11.9409103535  W2        17924           0.0000000000
     53773     17925  TIP3      OH2            29.8588633595       -5.2130722861       12.9249703535  W2        17925           0.0000000000
     53774     17925  TIP3      H1             30.1626533595       -5.8989322861       12.3303803535  W2        17925           0.0000000000
     53775     17925  TIP3      H2             30.5802633595       -5.0942022861       13.5427703535  W2        17925           0.0000000000
     53776     17926  TIP3      OH2            38.5218433595      -13.6115422861       13.7855903535  W2        17926           0.0000000000
     53777     17926  TIP3      H1             38.5710633595      -13.0014222861       14.5215003535  W2        17926           0.0000000000
     53778     17926  TIP3      H2             38.9473533595      -13.1504522861       13.0627003535  W2        17926           0.0000000000
     53779     17927  TIP3      OH2            32.9995633595      -10.8188322861       13.2524503535  W2        17927           0.0000000000
     53780     17927  TIP3      H1             33.1421533595      -11.7651322861       13.2726103535  W2        17927           0.0000000000
     53781     17927  TIP3      H2             32.8934633595      -10.6118522861       12.3239403535  W2        17927           0.0000000000
     53782     17928  TIP3      OH2            26.1543933595      -12.7171922861       10.5249303535  W2        17928           0.0000000000
     53783     17928  TIP3      H1             26.1975033595      -11.8573422861       10.1065603535  W2        17928           0.0000000000
     53784     17928  TIP3      H2             25.6968033595      -13.2697222861        9.8912503535  W2        17928           0.0000000000
     53785     17929  TIP3      OH2            33.8766633595      -12.5866322861        8.9257603535  W2        17929           0.0000000000
     53786     17929  TIP3      H1             34.5230933595      -12.9153122861        9.5505203535  W2        17929           0.0000000000
     53787     17929  TIP3      H2             34.3866033595      -12.0687322861        8.3029003535  W2        17929           0.0000000000
     53788     17930  TIP3      OH2            22.7745433595      -10.3206122861       11.2870703535  W2        17930           0.0000000000
     53789     17930  TIP3      H1             23.4282033595      -10.8704422861       11.7190803535  W2        17930           0.0000000000
     53790     17930  TIP3      H2             22.7984733595      -10.5947122861       10.3702703535  W2        17930           0.0000000000
     53791     17931  TIP3      OH2            27.9309933595       -8.7704822861       10.5022203535  W2        17931           0.0000000000
     53792     17931  TIP3      H1             28.5470933595       -9.2969422861       11.0116203535  W2        17931           0.0000000000
     53793     17931  TIP3      H2             27.3448733595       -9.4106122861       10.0985803535  W2        17931           0.0000000000
     53794     17932  TIP3      OH2            38.9133033595      -12.1336222861       16.0215703535  W2        17932           0.0000000000
     53795     17932  TIP3      H1             38.2247633595      -11.4755522861       15.9262303535  W2        17932           0.0000000000
     53796     17932  TIP3      H2             38.9287633595      -12.3308322861       16.9581103535  W2        17932           0.0000000000
     53797     17933  TIP3      OH2            24.9645833595      -13.7993522861       14.5990103535  W2        17933           0.0000000000
     53798     17933  TIP3      H1             24.7457533595      -13.2692922861       13.8326103535  W2        17933           0.0000000000
     53799     17933  TIP3      H2             24.2966733595      -13.5728022861       15.2461503535  W2        17933           0.0000000000
     53800     17934  TIP3      OH2            32.3335633595       -4.2992422861        8.1429203535  W2        17934           0.0000000000
     53801     17934  TIP3      H1             32.0380733595       -4.6220122861        7.2916103535  W2        17934           0.0000000000
     53802     17934  TIP3      H2             32.0093433595       -3.3995722861        8.1841803535  W2        17934           0.0000000000
     53803     17935  TIP3      OH2            27.5337233595       -6.1237822861       14.8863803535  W2        17935           0.0000000000
     53804     17935  TIP3      H1             26.7936333595       -5.5256322861       14.9899003535  W2        17935           0.0000000000
     53805     17935  TIP3      H2             28.2476733595       -5.5698222861       14.5707403535  W2        17935           0.0000000000
     53806     17936  TIP3      OH2            35.6405033595      -13.2957022861       10.9063503535  W2        17936           0.0000000000
     53807     17936  TIP3      H1             35.4253033595      -14.0613622861       11.4389503535  W2        17936           0.0000000000
     53808     17936  TIP3      H2             36.2962433595      -12.8232422861       11.4192003535  W2        17936           0.0000000000
     53809     17937  TIP3      OH2            24.5583133595      -11.9071722861       12.5512303535  W2        17937           0.0000000000
     53810     17937  TIP3      H1             25.1719433595      -11.2744122861       12.9244703535  W2        17937           0.0000000000
     53811     17937  TIP3      H2             25.0703833595      -12.3796722861       11.8949203535  W2        17937           0.0000000000
     53812     17938  TIP3      OH2            25.9411533595       -4.1594822861       15.6735303535  W2        17938           0.0000000000
     53813     17938  TIP3      H1             25.9359133595       -3.2801322861       15.2954603535  W2        17938           0.0000000000
     53814     17938  TIP3      H2             25.0875633595       -4.2430722861       16.0985203535  W2        17938           0.0000000000
     53815     17939  TIP3      OH2            22.0622433595       -4.4886922861        6.4554603535  W2        17939           0.0000000000
     53816     17939  TIP3      H1             21.7903333595       -4.2595922861        5.5667503535  W2        17939           0.0000000000
     53817     17939  TIP3      H2             22.1078133595       -3.6508122861        6.9159903535  W2        17939           0.0000000000
     53818     17940  TIP3      OH2            35.6872133595       -2.8671022861       13.1683103535  W2        17940           0.0000000000
     53819     17940  TIP3      H1             34.7455833595       -2.8087122861       13.3300003535  W2        17940           0.0000000000
     53820     17940  TIP3      H2             35.9638233595       -1.9610522861       13.0312803535  W2        17940           0.0000000000
     53821     17941  TIP3      OH2            35.9879133595      -14.5805722861       14.5857003535  W2        17941           0.0000000000
     53822     17941  TIP3      H1             35.2518333595      -13.9698622861       14.5478303535  W2        17941           0.0000000000
     53823     17941  TIP3      H2             36.6713133595      -14.1656722861       14.0593403535  W2        17941           0.0000000000
     53824     17942  TIP3      OH2            28.9910533595      -16.4938422861       12.0515003535  W2        17942           0.0000000000
     53825     17942  TIP3      H1             28.8734733595      -17.4422422861       11.9973303535  W2        17942           0.0000000000
     53826     17942  TIP3      H2             28.1360633595      -16.1612322861       12.3246103535  W2        17942           0.0000000000
     53827     17943  TIP3      OH2            33.9393333595       -1.0857522861        9.7934703535  W2        17943           0.0000000000
     53828     17943  TIP3      H1             34.3645633595       -1.7929622861        9.3084303535  W2        17943           0.0000000000
     53829     17943  TIP3      H2             34.2563333595       -0.2844822861        9.3766903535  W2        17943           0.0000000000
     53830     17944  TIP3      OH2            35.0989833595       -3.1849022861        8.3021303535  W2        17944           0.0000000000
     53831     17944  TIP3      H1             34.8414633595       -3.8748922861        7.6907203535  W2        17944           0.0000000000
     53832     17944  TIP3      H2             35.1700633595       -3.6277822861        9.1477203535  W2        17944           0.0000000000
     53833     17945  TIP3      OH2            36.7850033595       -4.6182322861       16.7794803535  W2        17945           0.0000000000
     53834     17945  TIP3      H1             36.9246333595       -5.2099822861       16.0401803535  W2        17945           0.0000000000
     53835     17945  TIP3      H2             36.9522833595       -3.7456422861       16.4233603535  W2        17945           0.0000000000
     53836     17946  TIP3      OH2            31.2575433595       -7.6562822861        6.5520803535  W2        17946           0.0000000000
     53837     17946  TIP3      H1             30.5460933595       -7.1213122861        6.2001303535  W2        17946           0.0000000000
     53838     17946  TIP3      H2             31.9485033595       -7.6010722861        5.8919703535  W2        17946           0.0000000000
     53839     17947  TIP3      OH2            31.3114633595       -9.1988522861        3.5905803535  W2        17947           0.0000000000
     53840     17947  TIP3      H1             32.0124533595       -9.1761622861        4.2419803535  W2        17947           0.0000000000
     53841     17947  TIP3      H2             31.6137533595       -9.8268822861        2.9345103535  W2        17947           0.0000000000
     53842     17948  TIP3      OH2            38.6269333595       -8.2784322861       14.8455203535  W2        17948           0.0000000000
     53843     17948  TIP3      H1             37.9743433595       -7.5838722861       14.9346103535  W2        17948           0.0000000000
     53844     17948  TIP3      H2             39.0919633595       -8.0683422861       14.0356803535  W2        17948           0.0000000000
     53845     17949  TIP3      OH2            34.6633133595       -7.4469522861        7.5036703535  W2        17949           0.0000000000
     53846     17949  TIP3      H1             33.9314133595       -7.2185822861        8.0767303535  W2        17949           0.0000000000
     53847     17949  TIP3      H2             35.1105333595       -8.1606822861        7.9584203535  W2        17949           0.0000000000
     53848     17950  TIP3      OH2            34.5606633595       -9.2726922861       16.5713703535  W2        17950           0.0000000000
     53849     17950  TIP3      H1             34.6405733595       -8.5092522861       17.1432203535  W2        17950           0.0000000000
     53850     17950  TIP3      H2             33.9594333595       -8.9934522861       15.8808803535  W2        17950           0.0000000000
     53851     17951  TIP3      OH2            26.3086833595       -6.8163322861        9.3861703535  W2        17951           0.0000000000
     53852     17951  TIP3      H1             25.9782033595       -7.1869922861        8.5678703535  W2        17951           0.0000000000
     53853     17951  TIP3      H2             26.8970933595       -7.4869322861        9.7330003535  W2        17951           0.0000000000
     53854     17952  TIP3      OH2            27.6754333595       -3.3882722861       12.0673903535  W2        17952           0.0000000000
     53855     17952  TIP3      H1             27.5805633595       -3.9669622861       11.3108503535  W2        17952           0.0000000000
     53856     17952  TIP3      H2             28.4047933595       -3.7597022861       12.5636703535  W2        17952           0.0000000000
     53857     17953  TIP3      OH2            26.6752333595       -8.0477722861       13.0196703535  W2        17953           0.0000000000
     53858     17953  TIP3      H1             27.2404833595       -7.9263522861       12.2567903535  W2        17953           0.0000000000
     53859     17953  TIP3      H2             26.9941233595       -7.4102722861       13.6585203535  W2        17953           0.0000000000
     53860     17954  TIP3      OH2            32.9844533595       -2.5445822861       13.7537203535  W2        17954           0.0000000000
     53861     17954  TIP3      H1             32.7441133595       -1.8822722861       14.4016403535  W2        17954           0.0000000000
     53862     17954  TIP3      H2             32.7862733595       -3.3790622861       14.1786803535  W2        17954           0.0000000000
     53863     17955  TIP3      OH2            27.5553033595       -3.6485022861       17.7368603535  W2        17955           0.0000000000
     53864     17955  TIP3      H1             27.2440533595       -2.8661822861       18.1921803535  W2        17955           0.0000000000
     53865     17955  TIP3      H2             26.9053233595       -3.8015922861       17.0510603535  W2        17955           0.0000000000
     53866     17956  TIP3      OH2            33.5342633595       -8.2846622861        5.1887903535  W2        17956           0.0000000000
     53867     17956  TIP3      H1             34.1138133595       -8.1346322861        5.9356803535  W2        17956           0.0000000000
     53868     17956  TIP3      H2             33.9482633595       -7.8139222861        4.4654303535  W2        17956           0.0000000000
     53869     17957  TIP3      OH2            24.4752933595       -7.4503922861       16.9654303535  W2        17957           0.0000000000
     53870     17957  TIP3      H1             24.5456133595       -6.7997122861       17.6639303535  W2        17957           0.0000000000
     53871     17957  TIP3      H2             23.5845133595       -7.3476422861       16.6305203535  W2        17957           0.0000000000
     53872     17958  TIP3      OH2            31.2607533595       -1.5478122861        8.6241003535  W2        17958           0.0000000000
     53873     17958  TIP3      H1             31.7345133595       -1.2521822861        9.4015203535  W2        17958           0.0000000000
     53874     17958  TIP3      H2             30.6976833595       -0.8096522861        8.3910603535  W2        17958           0.0000000000
     53875     17959  TIP3      OH2            25.7948933595       -1.5770022861       18.5002403535  W2        17959           0.0000000000
     53876     17959  TIP3      H1             25.8024233595       -1.7130322861       17.5527903535  W2        17959           0.0000000000
     53877     17959  TIP3      H2             24.8789333595       -1.6941922861       18.7522403535  W2        17959           0.0000000000
     53878     17960  TIP3      OH2            37.2331033595      -16.5346222861        5.0017603535  W2        17960           0.0000000000
     53879     17960  TIP3      H1             36.3331733595      -16.3957222861        5.2968203535  W2        17960           0.0000000000
     53880     17960  TIP3      H2             37.4849433595      -15.7031622861        4.5999303535  W2        17960           0.0000000000
     53881     17961  TIP3      OH2            25.2989533595       -7.7469022861        6.9754503535  W2        17961           0.0000000000
     53882     17961  TIP3      H1             25.0070833595       -6.9787322861        6.4845803535  W2        17961           0.0000000000
     53883     17961  TIP3      H2             24.6244733595       -8.4062822861        6.8125903535  W2        17961           0.0000000000
     53884     17962  TIP3      OH2            38.4222433595       -2.1683822861        3.3781503535  W2        17962           0.0000000000
     53885     17962  TIP3      H1             38.4955933595       -1.2293622861        3.5486803535  W2        17962           0.0000000000
     53886     17962  TIP3      H2             39.3277533595       -2.4735222861        3.3218803535  W2        17962           0.0000000000
     53887     17963  TIP3      OH2            21.3919633595       -5.3839822861       15.7904303535  W2        17963           0.0000000000
     53888     17963  TIP3      H1             20.8908033595       -5.4120422861       14.9754003535  W2        17963           0.0000000000
     53889     17963  TIP3      H2             21.3973333595       -6.2896622861       16.1001603535  W2        17963           0.0000000000
     53890     17964  TIP3      OH2            21.1422333595       -2.6036022861       12.6744503535  W2        17964           0.0000000000
     53891     17964  TIP3      H1             22.0882933595       -2.7479022861       12.6554003535  W2        17964           0.0000000000
     53892     17964  TIP3      H2             21.0298633595       -1.8193222861       13.2115703535  W2        17964           0.0000000000
     53893     17965  TIP3      OH2            39.3400833595       -1.9376322861       18.3568203535  W2        17965           0.0000000000
     53894     17965  TIP3      H1             39.2907633595       -2.8928222861       18.3195803535  W2        17965           0.0000000000
     53895     17965  TIP3      H2             38.5133133595       -1.6701022861       18.7582003535  W2        17965           0.0000000000
     53896     17966  TIP3      OH2            30.3184833595       -2.3637122861       17.2329603535  W2        17966           0.0000000000
     53897     17966  TIP3      H1             30.4059433595       -1.5372522861       17.7078703535  W2        17966           0.0000000000
     53898     17966  TIP3      H2             29.4549933595       -2.6933322861       17.4818903535  W2        17966           0.0000000000
     53899     17967  TIP3      OH2            30.7330633595        1.4086577139        7.0390203535  W2        17967           0.0000000000
     53900     17967  TIP3      H1             30.6576633595        1.2873777139        6.0925403535  W2        17967           0.0000000000
     53901     17967  TIP3      H2             30.7659333595        2.3579277139        7.1574803535  W2        17967           0.0000000000
     53902     17968  TIP3      OH2            24.3864433595        0.1973577139        8.8199203535  W2        17968           0.0000000000
     53903     17968  TIP3      H1             24.5384833595       -0.1506022861        9.6985703535  W2        17968           0.0000000000
     53904     17968  TIP3      H2             23.5354833595       -0.1589122861        8.5646403535  W2        17968           0.0000000000
     53905     17969  TIP3      OH2            33.8346633595        0.5626777139        4.0412603535  W2        17969           0.0000000000
     53906     17969  TIP3      H1             34.2095033595       -0.1817122861        3.5705203535  W2        17969           0.0000000000
     53907     17969  TIP3      H2             33.8390333595        0.2927377139        4.9595903535  W2        17969           0.0000000000
     53908     17970  TIP3      OH2            33.5034733595        0.4883877139        6.7904803535  W2        17970           0.0000000000
     53909     17970  TIP3      H1             32.5684533595        0.5885777139        6.9691803535  W2        17970           0.0000000000
     53910     17970  TIP3      H2             33.7836633595       -0.2210122861        7.3688003535  W2        17970           0.0000000000
     53911     17971  TIP3      OH2            36.4920633595      -10.4443822861       18.8370403535  W2        17971           0.0000000000
     53912     17971  TIP3      H1             36.0847433595       -9.9638222861       18.1163703535  W2        17971           0.0000000000
     53913     17971  TIP3      H2             36.5326333595      -11.3497822861       18.5291203535  W2        17971           0.0000000000
     53914     17972  TIP3      OH2            23.6410133595       -4.0604422861       16.8337103535  W2        17972           0.0000000000
     53915     17972  TIP3      H1             23.8571433595       -4.4218822861       17.6932903535  W2        17972           0.0000000000
     53916     17972  TIP3      H2             22.7854833595       -4.4350622861       16.6240603535  W2        17972           0.0000000000
     53917     17973  TIP3      OH2            26.2598133595      -15.5903922861       12.8291303535  W2        17973           0.0000000000
     53918     17973  TIP3      H1             25.3981833595      -15.6775722861       12.4214203535  W2        17973           0.0000000000
     53919     17973  TIP3      H2             26.2373833595      -14.7343822861       13.2568903535  W2        17973           0.0000000000
     53920     17974  TIP3      OH2            30.9225933595      -15.8683522861       16.2038303535  W2        17974           0.0000000000
     53921     17974  TIP3      H1             31.3429033595      -16.2836422861       16.9568903535  W2        17974           0.0000000000
     53922     17974  TIP3      H2             29.9895533595      -16.0470222861       16.3210303535  W2        17974           0.0000000000
     53923     17975  TIP3      OH2            34.2490833595      -12.1128322861       17.0572803535  W2        17975           0.0000000000
     53924     17975  TIP3      H1             33.7350333595      -12.2386122861       17.8548803535  W2        17975           0.0000000000
     53925     17975  TIP3      H2             34.0935533595      -11.2005222861       16.8129003535  W2        17975           0.0000000000
     53926     17976  TIP3      OH2            35.0115733595       -7.2518322861        2.8185803535  W2        17976           0.0000000000
     53927     17976  TIP3      H1             35.0536533595       -7.4744422861        1.8885803535  W2        17976           0.0000000000
     53928     17976  TIP3      H2             35.8607833595       -6.8531222861        3.0085703535  W2        17976           0.0000000000
     53929     17977  TIP3      OH2            30.5843233595      -13.3760122861        3.4889103535  W2        17977           0.0000000000
     53930     17977  TIP3      H1             30.3308033595      -13.3568522861        4.4117203535  W2        17977           0.0000000000
     53931     17977  TIP3      H2             30.3275333595      -14.2474722861        3.1875303535  W2        17977           0.0000000000
     53932     17978  TIP3      OH2            26.3508233595      -10.6249422861       13.9241503535  W2        17978           0.0000000000
     53933     17978  TIP3      H1             25.7090333595      -10.6652122861       14.6331603535  W2        17978           0.0000000000
     53934     17978  TIP3      H2             26.3880233595       -9.6984722861       13.6864503535  W2        17978           0.0000000000
     53935     17979  TIP3      OH2            26.3477333595      -10.4039322861        8.8361503535  W2        17979           0.0000000000
     53936     17979  TIP3      H1             25.4550233595      -10.7443222861        8.7775303535  W2        17979           0.0000000000
     53937     17979  TIP3      H2             26.7983933595      -10.7808422861        8.0804703535  W2        17979           0.0000000000
     53938     17980  TIP3      OH2            31.8832833595       -9.9879022861        7.6532303535  W2        17980           0.0000000000
     53939     17980  TIP3      H1             31.4743133595       -9.1730422861        7.3617103535  W2        17980           0.0000000000
     53940     17980  TIP3      H2             32.6039033595      -10.1278922861        7.0389403535  W2        17980           0.0000000000
     53941     17981  TIP3      OH2            30.9854433595       -9.8122622861       19.1413003535  W2        17981           0.0000000000
     53942     17981  TIP3      H1             30.4228233595      -10.5171022861       19.4620803535  W2        17981           0.0000000000
     53943     17981  TIP3      H2             31.8117833595       -9.9330722861       19.6090603535  W2        17981           0.0000000000
     53944     17982  TIP3      OH2            32.8880533595      -10.5418622861       10.4672003535  W2        17982           0.0000000000
     53945     17982  TIP3      H1             32.6925033595       -9.9361822861        9.7522603535  W2        17982           0.0000000000
     53946     17982  TIP3      H2             33.0693133595      -11.3753422861       10.0328303535  W2        17982           0.0000000000
     53947     17983  TIP3      OH2            24.1008733595      -10.3045922861       15.7913503535  W2        17983           0.0000000000
     53948     17983  TIP3      H1             24.0628133595       -9.9044322861       16.6600603535  W2        17983           0.0000000000
     53949     17983  TIP3      H2             23.6099833595      -11.1213522861       15.8816403535  W2        17983           0.0000000000
     53950     17984  TIP3      OH2            27.4666133595      -12.9303622861        2.5899503535  W2        17984           0.0000000000
     53951     17984  TIP3      H1             27.0356833595      -13.3753522861        3.3196903535  W2        17984           0.0000000000
     53952     17984  TIP3      H2             26.7484833595      -12.5587322861        2.0777003535  W2        17984           0.0000000000
     53953     17985  TIP3      OH2            20.7089533595      -13.1884122861        9.6418203535  W2        17985           0.0000000000
     53954     17985  TIP3      H1             21.3397233595      -13.2172022861       10.3612103535  W2        17985           0.0000000000
     53955     17985  TIP3      H2             21.1583833595      -13.6135422861        8.9114103535  W2        17985           0.0000000000
     53956     17986  TIP3      OH2            21.9831633595      -12.4422122861        5.0658603535  W2        17986           0.0000000000
     53957     17986  TIP3      H1             22.4573333595      -11.8512222861        4.4809503535  W2        17986           0.0000000000
     53958     17986  TIP3      H2             21.2658033595      -11.9119222861        5.4128703535  W2        17986           0.0000000000
     53959     17987  TIP3      OH2            32.1519733595       -8.9037322861       15.1384403535  W2        17987           0.0000000000
     53960     17987  TIP3      H1             32.4754533595       -9.5347622861       14.4954903535  W2        17987           0.0000000000
     53961     17987  TIP3      H2             31.7119033595       -9.4385122861       15.7991803535  W2        17987           0.0000000000
     53962     17988  TIP3      OH2            28.9292633595      -12.9761822861        9.9225603535  W2        17988           0.0000000000
     53963     17988  TIP3      H1             28.0183733595      -12.9195022861       10.2111603535  W2        17988           0.0000000000
     53964     17988  TIP3      H2             29.4345533595      -13.0366322861       10.7332803535  W2        17988           0.0000000000
     53965     17989  TIP3      OH2            23.7576033595      -11.3475522861        8.7493203535  W2        17989           0.0000000000
     53966     17989  TIP3      H1             22.8684033595      -11.2480022861        8.4092803535  W2        17989           0.0000000000
     53967     17989  TIP3      H2             24.0540933595      -12.1892522861        8.4031103535  W2        17989           0.0000000000
     53968     17990  TIP3      OH2            27.4107833595      -11.3472922861        6.4057803535  W2        17990           0.0000000000
     53969     17990  TIP3      H1             28.3423333595      -11.2182922861        6.5840903535  W2        17990           0.0000000000
     53970     17990  TIP3      H2             27.1958133595      -10.6778622861        5.7562503535  W2        17990           0.0000000000
     53971     17991  TIP3      OH2            33.3344533595      -13.7415522861       13.1867403535  W2        17991           0.0000000000
     53972     17991  TIP3      H1             32.6576133595      -13.6102422861       13.8507103535  W2        17991           0.0000000000
     53973     17991  TIP3      H2             32.8489433595      -13.8966022861       12.3765103535  W2        17991           0.0000000000
     53974     17992  TIP3      OH2            26.0848033595      -10.1530722861        3.9723903535  W2        17992           0.0000000000
     53975     17992  TIP3      H1             25.5423133595      -10.5326922861        3.2811503535  W2        17992           0.0000000000
     53976     17992  TIP3      H2             26.9182933595       -9.9586022861        3.5438003535  W2        17992           0.0000000000
     53977     17993  TIP3      OH2            36.6219633595        1.9299877139       19.4635003535  W2        17993           0.0000000000
     53978     17993  TIP3      H1             36.8218333595        2.3541777139       18.6290303535  W2        17993           0.0000000000
     53979     17993  TIP3      H2             37.2773333595        2.2738077139       20.0705403535  W2        17993           0.0000000000
     53980     17994  TIP3      OH2            24.2199433595       -5.5958822861       19.0715503535  W2        17994           0.0000000000
     53981     17994  TIP3      H1             24.9521833595       -5.3412922861       19.6330003535  W2        17994           0.0000000000
     53982     17994  TIP3      H2             23.4398133595       -5.3913422861       19.5870903535  W2        17994           0.0000000000
     53983     17995  TIP3      OH2            30.2492333595      -10.1888822861       11.8095203535  W2        17995           0.0000000000
     53984     17995  TIP3      H1             30.8135733595      -10.7352222861       11.2624803535  W2        17995           0.0000000000
     53985     17995  TIP3      H2             30.1015733595      -10.7106922861       12.5982803535  W2        17995           0.0000000000
     53986     17996  TIP3      OH2            25.2512033595      -14.0522722861        8.2280003535  W2        17996           0.0000000000
     53987     17996  TIP3      H1             24.9341533595      -14.9547422861        8.1925403535  W2        17996           0.0000000000
     53988     17996  TIP3      H2             26.0326133595      -14.0505322861        7.6751603535  W2        17996           0.0000000000
     53989     17997  TIP3      OH2            28.8758233595      -11.8002722861       14.2235603535  W2        17997           0.0000000000
     53990     17997  TIP3      H1             28.0403533595      -11.3463222861       14.3338003535  W2        17997           0.0000000000
     53991     17997  TIP3      H2             29.3998833595      -11.5244222861       14.9755503535  W2        17997           0.0000000000
     53992     17998  TIP3      OH2            29.4200833595       -5.5875022861        5.9082003535  W2        17998           0.0000000000
     53993     17998  TIP3      H1             28.6751833595       -6.0949722861        5.5859903535  W2        17998           0.0000000000
     53994     17998  TIP3      H2             29.2858033595       -5.5387022861        6.8546803535  W2        17998           0.0000000000
     53995     17999  TIP3      OH2            36.5699733595       -6.4546822861       14.6949603535  W2        17999           0.0000000000
     53996     17999  TIP3      H1             37.2118533595       -5.9980522861       14.1511803535  W2        17999           0.0000000000
     53997     17999  TIP3      H2             35.7396633595       -6.3414422861       14.2323703535  W2        17999           0.0000000000
     53998     18000  TIP3      OH2            33.3177633595      -12.7735122861        4.1074603535  W2        18000           0.0000000000
     53999     18000  TIP3      H1             32.3791833595      -12.6619522861        3.9563403535  W2        18000           0.0000000000
     54000     18000  TIP3      H2             33.6149733595      -11.9168222861        4.4140303535  W2        18000           0.0000000000
     54001     18001  TIP3      OH2            30.9392933595       -5.4031722861       17.1451103535  W2        18001           0.0000000000
     54002     18001  TIP3      H1             30.5939033595       -5.7849322861       17.9520703535  W2        18001           0.0000000000
     54003     18001  TIP3      H2             30.7393033595       -4.4698122861       17.2164003535  W2        18001           0.0000000000
     54004     18002  TIP3      OH2            34.0361133595      -10.9062422861        5.7682003535  W2        18002           0.0000000000
     54005     18002  TIP3      H1             34.9280133595      -11.0437422861        6.0873203535  W2        18002           0.0000000000
     54006     18002  TIP3      H2             34.0924733595      -10.1156322861        5.2315503535  W2        18002           0.0000000000
     54007     18003  TIP3      OH2            24.5449133595       -6.2925022861       11.6779903535  W2        18003           0.0000000000
     54008     18003  TIP3      H1             25.2896333595       -6.2949322861       11.0766403535  W2        18003           0.0000000000
     54009     18003  TIP3      H2             24.6225733595       -7.1161222861       12.1595003535  W2        18003           0.0000000000
     54010     18004  TIP3      OH2            31.5454933595       -4.1290722861        4.9336603535  W2        18004           0.0000000000
     54011     18004  TIP3      H1             31.2503333595       -3.3022822861        5.3151403535  W2        18004           0.0000000000
     54012     18004  TIP3      H2             30.8424933595       -4.7483822861        5.1298003535  W2        18004           0.0000000000
     54013     18005  TIP3      OH2            21.5528833595       -7.8318122861       16.9928403535  W2        18005           0.0000000000
     54014     18005  TIP3      H1             21.7757433595       -8.2498522861       17.8245903535  W2        18005           0.0000000000
     54015     18005  TIP3      H2             20.9508933595       -8.4443122861       16.5701203535  W2        18005           0.0000000000
     54016     18006  TIP3      OH2            28.5693733595       -8.3148222861       19.2058103535  W2        18006           0.0000000000
     54017     18006  TIP3      H1             28.2734533595       -8.4805222861       18.3107203535  W2        18006           0.0000000000
     54018     18006  TIP3      H2             29.5008933595       -8.5347922861       19.1952003535  W2        18006           0.0000000000
     54019     18007  TIP3      OH2            33.1896533595       -2.9416222861       17.0956103535  W2        18007           0.0000000000
     54020     18007  TIP3      H1             32.2890833595       -2.7583622861       16.8280003535  W2        18007           0.0000000000
     54021     18007  TIP3      H2             33.2237633595       -2.6826922861       18.0164903535  W2        18007           0.0000000000
     54022     18008  TIP3      OH2            38.9209833595      -10.6968322861        5.4628703535  W2        18008           0.0000000000
     54023     18008  TIP3      H1             38.3666133595      -11.0930322861        4.7906203535  W2        18008           0.0000000000
     54024     18008  TIP3      H2             39.0213433595       -9.7863122861        5.1852003535  W2        18008           0.0000000000
     54025     18009  TIP3      OH2            38.8841833595       -4.8966622861       18.3000203535  W2        18009           0.0000000000
     54026     18009  TIP3      H1             38.0330333595       -4.6582822861       17.9326603535  W2        18009           0.0000000000
     54027     18009  TIP3      H2             39.4745233595       -4.9133422861       17.5467303535  W2        18009           0.0000000000
     54028     18010  TIP3      OH2            37.2161533595       -1.9107922861        5.9280803535  W2        18010           0.0000000000
     54029     18010  TIP3      H1             36.8432633595       -2.7364122861        6.2371403535  W2        18010           0.0000000000
     54030     18010  TIP3      H2             37.4935033595       -2.0938522861        5.0304203535  W2        18010           0.0000000000
     54031     18011  TIP3      OH2            34.3765433595       -7.1028422861       12.9492703535  W2        18011           0.0000000000
     54032     18011  TIP3      H1             33.4482333595       -7.3346522861       12.9222003535  W2        18011           0.0000000000
     54033     18011  TIP3      H2             34.8276533595       -7.8798622861       12.6191503535  W2        18011           0.0000000000
     54034     18012  TIP3      OH2            26.9198533595       -2.7746822861        9.0821403535  W2        18012           0.0000000000
     54035     18012  TIP3      H1             27.4470733595       -2.0012422861        8.8820203535  W2        18012           0.0000000000
     54036     18012  TIP3      H2             26.0397033595       -2.5497622861        8.7805403535  W2        18012           0.0000000000
     54037     18013  TIP3      OH2            22.6746233595       -7.9122722861        3.6693803535  W2        18013           0.0000000000
     54038     18013  TIP3      H1             23.2906133595       -7.2855522861        4.0488603535  W2        18013           0.0000000000
     54039     18013  TIP3      H2             21.8128833595       -7.5962922861        3.9410303535  W2        18013           0.0000000000
     54040     18014  TIP3      OH2            28.3470833595       -5.1116922861        8.6585703535  W2        18014           0.0000000000
     54041     18014  TIP3      H1             28.1060833595       -4.1862522861        8.7001003535  W2        18014           0.0000000000
     54042     18014  TIP3      H2             27.6064433595       -5.5705622861        9.0549603535  W2        18014           0.0000000000
     54043     18015  TIP3      OH2            28.8617433595       -0.9623322861       14.9736803535  W2        18015           0.0000000000
     54044     18015  TIP3      H1             29.2242133595       -0.1077722861       14.7401203535  W2        18015           0.0000000000
     54045     18015  TIP3      H2             29.3932633595       -1.2541722861       15.7143103535  W2        18015           0.0000000000
     54046     18016  TIP3      OH2            27.0301633595       -0.0899322861        8.2037903535  W2        18016           0.0000000000
     54047     18016  TIP3      H1             26.0802133595        0.0158077139        8.2551203535  W2        18016           0.0000000000
     54048     18016  TIP3      H2             27.3819733595        0.7308077139        8.5485403535  W2        18016           0.0000000000
     54049     18017  TIP3      OH2            32.4058233595       -4.8632622861       14.6742403535  W2        18017           0.0000000000
     54050     18017  TIP3      H1             31.9799533595       -5.0910922861       15.5006403535  W2        18017           0.0000000000
     54051     18017  TIP3      H2             32.9864033595       -5.6020822861       14.4917703535  W2        18017           0.0000000000
     54052     18018  TIP3      OH2            34.6087133595       -3.9342122861        3.7481403535  W2        18018           0.0000000000
     54053     18018  TIP3      H1             34.9620233595       -4.3142322861        4.5524903535  W2        18018           0.0000000000
     54054     18018  TIP3      H2             33.6600633595       -4.0277322861        3.8350703535  W2        18018           0.0000000000
     54055     18019  TIP3      OH2            35.0642433595       -0.3113122861       17.1437203535  W2        18019           0.0000000000
     54056     18019  TIP3      H1             34.4625633595       -0.8670222861       16.6483503535  W2        18019           0.0000000000
     54057     18019  TIP3      H2             35.3456133595        0.3556677139       16.5174603535  W2        18019           0.0000000000
     54058     18020  TIP3      OH2            39.1121533595        0.5450377139        3.9491603535  W2        18020           0.0000000000
     54059     18020  TIP3      H1             39.8559433595        1.1310877139        3.8093203535  W2        18020           0.0000000000
     54060     18020  TIP3      H2             38.4179633595        1.1136177139        4.2824003535  W2        18020           0.0000000000
     54061     18021  TIP3      OH2            23.1868333595      -13.0785422861       16.5509803535  W2        18021           0.0000000000
     54062     18021  TIP3      H1             22.2940633595      -12.7400022861       16.4833803535  W2        18021           0.0000000000
     54063     18021  TIP3      H2             23.0881133595      -13.9339322861       16.9690603535  W2        18021           0.0000000000
     54064     18022  TIP3      OH2            35.4746433595       -5.2620122861        5.9749303535  W2        18022           0.0000000000
     54065     18022  TIP3      H1             35.1974033595       -5.9900822861        6.5310403535  W2        18022           0.0000000000
     54066     18022  TIP3      H2             36.4019433595       -5.1428122861        6.1801903535  W2        18022           0.0000000000
     54067     18023  TIP3      OH2            22.8380333595       -1.2741022861       14.9859203535  W2        18023           0.0000000000
     54068     18023  TIP3      H1             23.0550633595       -2.2058622861       14.9548903535  W2        18023           0.0000000000
     54069     18023  TIP3      H2             23.0843833595       -0.9996022861       15.8692003535  W2        18023           0.0000000000
     54070     18024  TIP3      OH2            28.6994933595       -2.8226022861        2.1951403535  W2        18024           0.0000000000
     54071     18024  TIP3      H1             28.9384733595       -3.5707922861        1.6480303535  W2        18024           0.0000000000
     54072     18024  TIP3      H2             28.4306233595       -3.2104322861        3.0279203535  W2        18024           0.0000000000
     54073     18025  TIP3      OH2            27.6365533595       -3.2522222861        4.6514003535  W2        18025           0.0000000000
     54074     18025  TIP3      H1             27.7833533595       -3.7722422861        5.4414903535  W2        18025           0.0000000000
     54075     18025  TIP3      H2             27.6337233595       -2.3454622861        4.9579903535  W2        18025           0.0000000000
     54076     18026  TIP3      OH2            24.0896633595       -5.9998922861        5.1619403535  W2        18026           0.0000000000
     54077     18026  TIP3      H1             23.4035933595       -5.6476422861        5.7289103535  W2        18026           0.0000000000
     54078     18026  TIP3      H2             24.6124533595       -5.2369322861        4.9153703535  W2        18026           0.0000000000
     54079     18027  TIP3      OH2            31.9211733595      -13.3375122861       15.4408403535  W2        18027           0.0000000000
     54080     18027  TIP3      H1             32.6199633595      -13.2636422861       16.0908103535  W2        18027           0.0000000000
     54081     18027  TIP3      H2             31.5403133595      -14.2020122861       15.5951303535  W2        18027           0.0000000000
     54082     18028  TIP3      OH2            32.7056633595      -13.6853422861        6.5380703535  W2        18028           0.0000000000
     54083     18028  TIP3      H1             32.9254933595      -13.2138022861        5.7346103535  W2        18028           0.0000000000
     54084     18028  TIP3      H2             33.2640633595      -13.2910822861        7.2081303535  W2        18028           0.0000000000
     54085     18029  TIP3      OH2            30.3742733595       -1.5548622861        5.4008203535  W2        18029           0.0000000000
     54086     18029  TIP3      H1             29.5578833595       -1.0578922861        5.4532503535  W2        18029           0.0000000000
     54087     18029  TIP3      H2             30.9039033595       -1.0795122861        4.7607003535  W2        18029           0.0000000000
     54088     18030  TIP3      OH2            29.9056533595      -11.9574622861        7.3729103535  W2        18030           0.0000000000
     54089     18030  TIP3      H1             30.7179133595      -11.4531422861        7.4190803535  W2        18030           0.0000000000
     54090     18030  TIP3      H2             29.6609533595      -12.1024922861        8.2868703535  W2        18030           0.0000000000
     54091     18031  TIP3      OH2            30.4412933595      -10.9711922861       16.5575703535  W2        18031           0.0000000000
     54092     18031  TIP3      H1             30.5603233595      -10.3976522861       17.3146103535  W2        18031           0.0000000000
     54093     18031  TIP3      H2             31.0967533595      -11.6592522861       16.6723503535  W2        18031           0.0000000000
     54094     18032  TIP3      OH2            30.7893233595      -14.8761622861        8.3110203535  W2        18032           0.0000000000
     54095     18032  TIP3      H1             30.4426733595      -14.2591022861        8.9554503535  W2        18032           0.0000000000
     54096     18032  TIP3      H2             31.4480133595      -14.3755922861        7.8295703535  W2        18032           0.0000000000
     54097     18033  TIP3      OH2            27.7125833595       -0.5111422861        5.3825103535  W2        18033           0.0000000000
     54098     18033  TIP3      H1             27.8734533595        0.2886077139        4.8817703535  W2        18033           0.0000000000
     54099     18033  TIP3      H2             27.5153633595       -0.2045422861        6.2675703535  W2        18033           0.0000000000
     54100     18034  TIP3      OH2            26.4470233595      -13.8132222861        4.9982703535  W2        18034           0.0000000000
     54101     18034  TIP3      H1             26.3635033595      -12.9249122861        5.3449103535  W2        18034           0.0000000000
     54102     18034  TIP3      H2             27.3370533595      -14.0785522861        5.2299503535  W2        18034           0.0000000000
     54103     18035  TIP3      OH2            36.6458733595      -13.0641622861       17.3925403535  W2        18035           0.0000000000
     54104     18035  TIP3      H1             35.7294533595      -12.8019922861       17.3049103535  W2        18035           0.0000000000
     54105     18035  TIP3      H2             36.9813733595      -13.0672622861       16.4960703535  W2        18035           0.0000000000
     54106     18036  TIP3      OH2            35.2479733595       -9.3140622861       11.4882703535  W2        18036           0.0000000000
     54107     18036  TIP3      H1             34.4504133595       -9.7290422861       11.1597703535  W2        18036           0.0000000000
     54108     18036  TIP3      H2             35.6930833595      -10.0046922861       11.9793203535  W2        18036           0.0000000000
     54109     18037  TIP3      OH2            24.7055533595       -3.3860022861        4.0587203535  W2        18037           0.0000000000
     54110     18037  TIP3      H1             25.2977033595       -2.6865222861        4.3349603535  W2        18037           0.0000000000
     54111     18037  TIP3      H2             25.1648533595       -3.8190522861        3.3391803535  W2        18037           0.0000000000
     54112     18038  TIP3      OH2            23.0214733595      -10.7217022861        3.1746603535  W2        18038           0.0000000000
     54113     18038  TIP3      H1             22.9767333595       -9.7823922861        3.3533603535  W2        18038           0.0000000000
     54114     18038  TIP3      H2             22.1337933595      -10.9572122861        2.9048703535  W2        18038           0.0000000000
     54115     18039  TIP3      OH2            36.3344333595       -0.0578122861       13.1106203535  W2        18039           0.0000000000
     54116     18039  TIP3      H1             36.1788633595        0.6206277139       12.4535503535  W2        18039           0.0000000000
     54117     18039  TIP3      H2             37.2670733595        0.0141177139       13.3136803535  W2        18039           0.0000000000
     54118     18040  TIP3      OH2            23.8296733595      -15.9400422861       11.8477603535  W2        18040           0.0000000000
     54119     18040  TIP3      H1             23.6006533595      -15.8807922861       10.9202603535  W2        18040           0.0000000000
     54120     18040  TIP3      H2             23.3870133595      -16.7314922861       12.1541703535  W2        18040           0.0000000000
     54121     18041  TIP3      OH2            22.7600033595       -1.9993322861        8.0083403535  W2        18041           0.0000000000
     54122     18041  TIP3      H1             21.9278633595       -1.5270622861        8.0354803535  W2        18041           0.0000000000
     54123     18041  TIP3      H2             23.3058333595       -1.4895722861        7.4096503535  W2        18041           0.0000000000
     54124     18042  TIP3      OH2            22.0483733595        0.6130377139       19.3381403535  W2        18042           0.0000000000
     54125     18042  TIP3      H1             22.5885933595        0.3964377139       20.0980603535  W2        18042           0.0000000000
     54126     18042  TIP3      H2             21.5671733595       -0.1923622861       19.1483903535  W2        18042           0.0000000000
     54127     18043  TIP3      OH2            26.6457133595       -0.4675222861       20.9585603535  W2        18043           0.0000000000
     54128     18043  TIP3      H1             27.4134333595       -0.9264422861       21.2994803535  W2        18043           0.0000000000
     54129     18043  TIP3      H2             26.6243333595       -0.6935422861       20.0286803535  W2        18043           0.0000000000
     54130     18044  TIP3      OH2            30.7376733595       -0.9594622861        2.3337403535  W2        18044           0.0000000000
     54131     18044  TIP3      H1             30.0937733595       -1.5906022861        2.6551103535  W2        18044           0.0000000000
     54132     18044  TIP3      H2             31.4995033595       -1.4906622861        2.1020903535  W2        18044           0.0000000000
     54133     18045  TIP3      OH2            33.2225833595       -2.0874122861       19.6877103535  W2        18045           0.0000000000
     54134     18045  TIP3      H1             32.8715333595       -2.9441122861       19.9307503535  W2        18045           0.0000000000
     54135     18045  TIP3      H2             33.9489033595       -1.9447422861       20.2946103535  W2        18045           0.0000000000
     54136     18046  TIP3      OH2            35.3419633595       -1.1424722861        2.5675403535  W2        18046           0.0000000000
     54137     18046  TIP3      H1             35.6250033595       -1.9369522861        3.0202303535  W2        18046           0.0000000000
     54138     18046  TIP3      H2             36.0817533595       -0.9093722861        2.0066503535  W2        18046           0.0000000000
     54139     18047  TIP3      OH2            21.9553233595       -5.5765522861       20.2925703535  W2        18047           0.0000000000
     54140     18047  TIP3      H1             22.0993733595       -6.4784822861       20.0062403535  W2        18047           0.0000000000
     54141     18047  TIP3      H2             21.1830633595       -5.2903422861       19.8048003535  W2        18047           0.0000000000
     54142     18048  TIP3      OH2            26.2966933595       -5.2329822861        2.4250303535  W2        18048           0.0000000000
     54143     18048  TIP3      H1             26.3611033595       -6.0270222861        2.9556703535  W2        18048           0.0000000000
     54144     18048  TIP3      H2             26.9496133595       -5.3517022861        1.7352303535  W2        18048           0.0000000000
     54145     18049  TIP3      OH2            28.6109333595       -5.6067422861       19.7252103535  W2        18049           0.0000000000
     54146     18049  TIP3      H1             28.2823133595       -5.3359322861       18.8679503535  W2        18049           0.0000000000
     54147     18049  TIP3      H2             28.7627533595       -6.5477622861       19.6377103535  W2        18049           0.0000000000
     54148     18050  TIP3      OH2            31.6490333595       -4.1858122861        2.1608303535  W2        18050           0.0000000000
     54149     18050  TIP3      H1             31.3804433595       -4.0056022861        3.0617203535  W2        18050           0.0000000000
     54150     18050  TIP3      H2             31.4425933595       -5.1111922861        2.0294103535  W2        18050           0.0000000000
     54151     18051  TIP3      OH2            34.3454533595       -5.6910122861       17.1084403535  W2        18051           0.0000000000
     54152     18051  TIP3      H1             35.0909333595       -5.1026422861       16.9888403535  W2        18051           0.0000000000
     54153     18051  TIP3      H2             33.5881333595       -5.1090422861       17.1717503535  W2        18051           0.0000000000
     54154     18052  TIP3      OH2            22.7879733595       -8.3762222861       19.7125003535  W2        18052           0.0000000000
     54155     18052  TIP3      H1             23.1960933595       -9.2335622861       19.5915603535  W2        18052           0.0000000000
     54156     18052  TIP3      H2             22.5277333595       -8.3620922861       20.6335303535  W2        18052           0.0000000000
     54157     18053  TIP3      OH2            27.4460733595       -7.2603622861        4.7308303535  W2        18053           0.0000000000
     54158     18053  TIP3      H1             26.9862733595       -7.7445322861        5.4166803535  W2        18053           0.0000000000
     54159     18053  TIP3      H2             27.7009433595       -7.9288222861        4.0948803535  W2        18053           0.0000000000
     54160     18054  TIP3      OH2            26.7350033595       -9.3676522861       17.0867903535  W2        18054           0.0000000000
     54161     18054  TIP3      H1             26.1166133595       -8.6929922861       17.3672603535  W2        18054           0.0000000000
     54162     18054  TIP3      H2             27.0791233595       -9.0462622861       16.2534103535  W2        18054           0.0000000000
     54163     18055  TIP3      OH2            28.5171133595       -9.0171822861        2.9931503535  W2        18055           0.0000000000
     54164     18055  TIP3      H1             28.3366133595       -9.1720622861        2.0659803535  W2        18055           0.0000000000
     54165     18055  TIP3      H2             29.4671633595       -8.9093122861        3.0379403535  W2        18055           0.0000000000
     54166     18056  TIP3      OH2            31.7548233595       -6.8961222861       20.3642703535  W2        18056           0.0000000000
     54167     18056  TIP3      H1             32.7079433595       -6.8122122861       20.3368703535  W2        18056           0.0000000000
     54168     18056  TIP3      H2             31.5942833595       -7.6079422861       20.9837603535  W2        18056           0.0000000000
     54169     18057  TIP3      OH2            37.9069433595       -6.6627622861        2.4389603535  W2        18057           0.0000000000
     54170     18057  TIP3      H1             37.6334233595       -7.0872122861        1.6257903535  W2        18057           0.0000000000
     54171     18057  TIP3      H2             37.9463533595       -5.7313122861        2.2220003535  W2        18057           0.0000000000
     54172     18058  TIP3      OH2            27.0743733595      -12.0125722861       18.1691003535  W2        18058           0.0000000000
     54173     18058  TIP3      H1             27.2244633595      -12.7414422861       17.5670703535  W2        18058           0.0000000000
     54174     18058  TIP3      H2             27.0766133595      -11.2354022861       17.6103203535  W2        18058           0.0000000000
     54175     18059  TIP3      OH2            27.4869433595      -13.6429922861       15.6618403535  W2        18059           0.0000000000
     54176     18059  TIP3      H1             28.0226933595      -13.1913222861       15.0097703535  W2        18059           0.0000000000
     54177     18059  TIP3      H2             26.6349033595      -13.7510122861       15.2392503535  W2        18059           0.0000000000
     54178     18060  TIP3      OH2            29.0687833595       -8.2033722861       15.9013603535  W2        18060           0.0000000000
     54179     18060  TIP3      H1             29.8192633595       -8.3596222861       15.3281403535  W2        18060           0.0000000000
     54180     18060  TIP3      H2             28.7296133595       -7.3517122861       15.6259103535  W2        18060           0.0000000000
     54181     18061  TIP3      OH2            33.4844033595      -10.3881922861       20.9298903535  W2        18061           0.0000000000
     54182     18061  TIP3      H1             33.6765333595      -11.3192522861       20.8183403535  W2        18061           0.0000000000
     54183     18061  TIP3      H2             34.3420333595       -9.9632422861       20.9194303535  W2        18061           0.0000000000
     54184     18062  TIP3      OH2            34.8011233595       -7.5996722861       19.0071603535  W2        18062           0.0000000000
     54185     18062  TIP3      H1             34.5196233595       -6.8902122861       18.4295403535  W2        18062           0.0000000000
     54186     18062  TIP3      H2             35.7435533595       -7.6723722861       18.8562803535  W2        18062           0.0000000000
     54187     18063  TIP3      OH2            25.5530033595      -10.8142222861       20.0806603535  W2        18063           0.0000000000
     54188     18063  TIP3      H1             24.7859033595      -11.3467422861       19.8704203535  W2        18063           0.0000000000
     54189     18063  TIP3      H2             26.2319033595      -11.1241822861       19.4812903535  W2        18063           0.0000000000
     54190     18064  TIP3      OH2            28.2924933595      -16.1864222861       16.0932003535  W2        18064           0.0000000000
     54191     18064  TIP3      H1             28.1944533595      -15.2401022861       15.9878203535  W2        18064           0.0000000000
     54192     18064  TIP3      H2             27.5501133595      -16.5590422861       15.6175503535  W2        18064           0.0000000000
     54193     18065  TIP3      OH2            29.5565433595      -11.8648822861       19.6570403535  W2        18065           0.0000000000
     54194     18065  TIP3      H1             29.3210833595      -12.0842122861       20.5585303535  W2        18065           0.0000000000
     54195     18065  TIP3      H2             28.7732333595      -12.0717622861       19.1472903535  W2        18065           0.0000000000
     54196     18066  TIP3      OH2            32.2722033595      -12.7375322861       18.7323903535  W2        18066           0.0000000000
     54197     18066  TIP3      H1             31.3247433595      -12.7055622861       18.8647203535  W2        18066           0.0000000000
     54198     18066  TIP3      H2             32.5848733595      -13.3628222861       19.3862103535  W2        18066           0.0000000000
     54199     18067  TIP3      OH2            33.9063533595      -14.1034222861       20.7375803535  W2        18067           0.0000000000
     54200     18067  TIP3      H1             33.8095333595      -15.0556922861       20.7317703535  W2        18067           0.0000000000
     54201     18067  TIP3      H2             33.5846633595      -13.8347422861       21.5981303535  W2        18067           0.0000000000
     54202     18068  TIP3      OH2            23.7332833595      -12.8938422861       19.7851303535  W2        18068           0.0000000000
     54203     18068  TIP3      H1             23.9450233595      -13.6002322861       19.1748803535  W2        18068           0.0000000000
     54204     18068  TIP3      H2             23.6220333595      -13.3312422861       20.6292503535  W2        18068           0.0000000000
     54205     18069  TIP3      OH2            28.5143033595      -16.8926822861       18.7644803535  W2        18069           0.0000000000
     54206     18069  TIP3      H1             29.2261433595      -17.5324622861       18.7503903535  W2        18069           0.0000000000
     54207     18069  TIP3      H2             28.4133433595      -16.6258522861       17.8507903535  W2        18069           0.0000000000
     54208     18070  TIP3      OH2            28.8680533595      -15.2098422861       20.8181103535  W2        18070           0.0000000000
     54209     18070  TIP3      H1             28.7362733595      -15.6854622861       19.9979603535  W2        18070           0.0000000000
     54210     18070  TIP3      H2             28.2687933595      -14.4654822861       20.7628203535  W2        18070           0.0000000000
     54211     18071  TIP3      OH2            28.4142833595        1.6731877139        3.9945103535  W2        18071           0.0000000000
     54212     18071  TIP3      H1             29.3473533595        1.8310577139        4.1383503535  W2        18071           0.0000000000
     54213     18071  TIP3      H2             28.1501633595        2.3484877139        3.3696603535  W2        18071           0.0000000000
     54214     18072  TIP3      OH2            21.9827733595       -3.6904322861        3.4773203535  W2        18072           0.0000000000
     54215     18072  TIP3      H1             22.8966933595       -3.6115422861        3.7507103535  W2        18072           0.0000000000
     54216     18072  TIP3      H2             21.9900833595       -4.3774722861        2.8108803535  W2        18072           0.0000000000
     54217     18073  TIP3      OH2            20.6318333595        1.7024177139        8.5547103535  W2        18073           0.0000000000
     54218     18073  TIP3      H1             19.9845433595        1.2405877139        8.0218303535  W2        18073           0.0000000000
     54219     18073  TIP3      H2             20.9862933595        1.0307477139        9.1373303535  W2        18073           0.0000000000
     54220     18074  TIP3      OH2            21.5017533595       -0.2168822861       10.3593303535  W2        18074           0.0000000000
     54221     18074  TIP3      H1             21.1674333595       -1.0971522861       10.5313503535  W2        18074           0.0000000000
     54222     18074  TIP3      H2             21.7239933595        0.1286177139       11.2238903535  W2        18074           0.0000000000
     54223     18075  TIP3      OH2            39.0502333595        0.5927577139       13.3398103535  W2        18075           0.0000000000
     54224     18075  TIP3      H1             39.0289033595        0.7775977139       14.2787503535  W2        18075           0.0000000000
     54225     18075  TIP3      H2             39.7408533595        1.1611577139       12.9989503535  W2        18075           0.0000000000
     54226     18076  TIP3      OH2            38.6135233595        0.1598677139       16.2617203535  W2        18076           0.0000000000
     54227     18076  TIP3      H1             38.1263933595       -0.5757222861       15.8904603535  W2        18076           0.0000000000
     54228     18076  TIP3      H2             39.1627933595       -0.2337422861       16.9396603535  W2        18076           0.0000000000
     54229     18077  TIP3      OH2            37.0642533595       -4.0503222861       20.8997503535  W2        18077           0.0000000000
     54230     18077  TIP3      H1             36.1983633595       -4.1553522861       21.2939803535  W2        18077           0.0000000000
     54231     18077  TIP3      H2             37.4408433595       -3.2919922861       21.3462203535  W2        18077           0.0000000000
     54232     18078  TIP3      OH2            38.3652233595       -5.7939522861        6.4140003535  W2        18078           0.0000000000
     54233     18078  TIP3      H1             39.2153633595       -5.3728622861        6.5411603535  W2        18078           0.0000000000
     54234     18078  TIP3      H2             38.3707333595       -6.5339422861        7.0211403535  W2        18078           0.0000000000
     54235     18079  TIP3      OH2            38.7597833595       -7.7402122861        8.2375703535  W2        18079           0.0000000000
     54236     18079  TIP3      H1             38.0332433595       -8.2199522861        8.6353303535  W2        18079           0.0000000000
     54237     18079  TIP3      H2             39.3411133595       -7.5347422861        8.9697303535  W2        18079           0.0000000000
     54238     18080  TIP3      OH2            38.5189033595       -4.9554622861       13.1853303535  W2        18080           0.0000000000
     54239     18080  TIP3      H1             39.3523233595       -5.3334622861       12.9046903535  W2        18080           0.0000000000
     54240     18080  TIP3      H2             38.6309333595       -4.0123422861       13.0662403535  W2        18080           0.0000000000
     54241     18081  TIP3      OH2            37.0051333595       -2.0777122861       15.4921703535  W2        18081           0.0000000000
     54242     18081  TIP3      H1             36.3576633595       -1.7525622861       16.1176903535  W2        18081           0.0000000000
     54243     18081  TIP3      H2             36.4875333595       -2.5179422861       14.8180003535  W2        18081           0.0000000000
     54244     18082  TIP3      OH2            39.0280933595       -7.8393622861        4.6287003535  W2        18082           0.0000000000
     54245     18082  TIP3      H1             38.5062033595       -7.4829522861        3.9097903535  W2        18082           0.0000000000
     54246     18082  TIP3      H2             38.9950133595       -7.1645822861        5.3067903535  W2        18082           0.0000000000
     54247     18083  TIP3      OH2            37.3769933595      -10.5998022861        3.1794103535  W2        18083           0.0000000000
     54248     18083  TIP3      H1             37.4734333595       -9.9331022861        2.4993803535  W2        18083           0.0000000000
     54249     18083  TIP3      H2             37.2369533595      -11.4151722861        2.6979603535  W2        18083           0.0000000000
     54250     18084  TIP3      OH2            36.5464633595       -9.2195622861        8.8004403535  W2        18084           0.0000000000
     54251     18084  TIP3      H1             36.3963433595      -10.1647022861        8.7802203535  W2        18084           0.0000000000
     54252     18084  TIP3      H2             36.1929133595       -8.9384222861        9.6443503535  W2        18084           0.0000000000
     54253     18085  TIP3      OH2            21.5817033595       -7.1413422861       12.8108203535  W2        18085           0.0000000000
     54254     18085  TIP3      H1             21.7659933595       -7.2231722861       11.8751103535  W2        18085           0.0000000000
     54255     18085  TIP3      H2             22.4309933595       -7.2656422861       13.2344603535  W2        18085           0.0000000000
     54256     18086  TIP3      OH2            37.4027533595       -7.2492322861       18.4392703535  W2        18086           0.0000000000
     54257     18086  TIP3      H1             37.9854833595       -7.9840022861       18.6309903535  W2        18086           0.0000000000
     54258     18086  TIP3      H2             37.9666833595       -6.4772022861       18.4858503535  W2        18086           0.0000000000
     54259     18087  TIP3      OH2            38.8994633595       -9.3466522861       19.1238103535  W2        18087           0.0000000000
     54260     18087  TIP3      H1             38.0361333595       -9.7254422861       18.9582803535  W2        18087           0.0000000000
     54261     18087  TIP3      H2             39.5038333595      -10.0851722861       19.0493903535  W2        18087           0.0000000000
     54262     18088  TIP3      OH2            36.6243733595      -13.1918222861        2.2969603535  W2        18088           0.0000000000
     54263     18088  TIP3      H1             37.2349533595      -13.5631422861        2.9337803535  W2        18088           0.0000000000
     54264     18088  TIP3      H2             35.7875233595      -13.6131322861        2.4929603535  W2        18088           0.0000000000
     54265     18089  TIP3      OH2            36.2569433595      -11.6369822861        7.2629503535  W2        18089           0.0000000000
     54266     18089  TIP3      H1             36.5366533595      -12.5439422861        7.3871203535  W2        18089           0.0000000000
     54267     18089  TIP3      H2             37.0161133595      -11.2028322861        6.8738703535  W2        18089           0.0000000000
     54268     18090  TIP3      OH2            36.8687733595      -11.0552422861       12.6988403535  W2        18090           0.0000000000
     54269     18090  TIP3      H1             37.8015733595      -10.8432522861       12.6644403535  W2        18090           0.0000000000
     54270     18090  TIP3      H2             36.6335233595      -10.9540322861       13.6211403535  W2        18090           0.0000000000
     54271     18091  TIP3      OH2            36.8979633595      -10.3187122861       15.4747803535  W2        18091           0.0000000000
     54272     18091  TIP3      H1             36.0550933595      -10.0506722861       15.8407603535  W2        18091           0.0000000000
     54273     18091  TIP3      H2             37.3403933595       -9.4965222861       15.2638903535  W2        18091           0.0000000000
     54274     18092  TIP3      OH2            21.1791833595      -11.8708422861       18.9517003535  W2        18092           0.0000000000
     54275     18092  TIP3      H1             22.0986733595      -11.9930122861       19.1880103535  W2        18092           0.0000000000
     54276     18092  TIP3      H2             20.7296333595      -12.6208722861       19.3410503535  W2        18092           0.0000000000
     54277     18093  TIP3      OH2            39.1811233595      -16.3386922861       20.8282803535  W2        18093           0.0000000000
     54278     18093  TIP3      H1             39.5308233595      -16.9923422861       20.2227503535  W2        18093           0.0000000000
     54279     18093  TIP3      H2             39.3280733595      -15.5012822861       20.3885403535  W2        18093           0.0000000000
     54280     18094  TIP3      OH2            36.8704233595      -14.3740522861        7.3111503535  W2        18094           0.0000000000
     54281     18094  TIP3      H1             37.0529233595      -14.8229022861        8.1366503535  W2        18094           0.0000000000
     54282     18094  TIP3      H2             36.2707133595      -14.9586122861        6.8476103535  W2        18094           0.0000000000
     54283     18095  TIP3      OH2            22.4004333595      -13.5586822861       11.8429903535  W2        18095           0.0000000000
     54284     18095  TIP3      H1             22.8455933595      -14.3504322861       12.1449603535  W2        18095           0.0000000000
     54285     18095  TIP3      H2             22.8667333595      -12.8421622861       12.2735503535  W2        18095           0.0000000000
     54286     18096  TIP3      OH2            20.7044633595      -10.5593822861       12.9120103535  W2        18096           0.0000000000
     54287     18096  TIP3      H1             21.1964433595      -10.7803322861       12.1212103535  W2        18096           0.0000000000
     54288     18096  TIP3      H2             21.0665533595       -9.7190422861       13.1929603535  W2        18096           0.0000000000
     54289     18097  TIP3      OH2            38.7008433595      -14.2292322861       19.1774103535  W2        18097           0.0000000000
     54290     18097  TIP3      H1             37.7834133595      -13.9585222861       19.1417603535  W2        18097           0.0000000000
     54291     18097  TIP3      H2             38.8237833595      -14.7643922861       18.3933803535  W2        18097           0.0000000000
     54292     18098  TIP3      OH2            38.7370433595      -14.3062422861        3.8391803535  W2        18098           0.0000000000
     54293     18098  TIP3      H1             39.1493033595      -15.0276722861        3.3639803535  W2        18098           0.0000000000
     54294     18098  TIP3      H2             39.4186933595      -13.6367822861        3.8976103535  W2        18098           0.0000000000
     54295     18099  TIP3      OH2            21.0181133595      -14.3014722861        6.9662503535  W2        18099           0.0000000000
     54296     18099  TIP3      H1             20.0929533595      -14.0928122861        6.8368003535  W2        18099           0.0000000000
     54297     18099  TIP3      H2             21.4721033595      -13.8173922861        6.2764803535  W2        18099           0.0000000000
     54298     18100  TIP3      OH2            35.7888333595        0.6826977139        8.9119903535  W2        18100           0.0000000000
     54299     18100  TIP3      H1             36.4411233595        0.3349077139        8.3039003535  W2        18100           0.0000000000
     54300     18100  TIP3      H2             36.2992133595        1.1710177139        9.5579603535  W2        18100           0.0000000000
     54301     18101  TIP3      OH2            20.9816533595      -15.5635722861       15.3105003535  W2        18101           0.0000000000
     54302     18101  TIP3      H1             20.3167033595      -15.8095422861       15.9535903535  W2        18101           0.0000000000
     54303     18101  TIP3      H2             20.5387833595      -14.9415322861       14.7333003535  W2        18101           0.0000000000
     54304     18102  TIP3      OH2            23.1735833595       -2.3881622861       19.4550803535  W2        18102           0.0000000000
     54305     18102  TIP3      H1             22.3528333595       -2.2135122861       18.9945503535  W2        18102           0.0000000000
     54306     18102  TIP3      H2             22.9213633595       -2.4616922861       20.3755203535  W2        18102           0.0000000000
     54307     18103  TIP3      OH2            26.1278733595       -1.4140422861       15.7134803535  W2        18103           0.0000000000
     54308     18103  TIP3      H1             25.7029833595       -0.6041922861       15.4309403535  W2        18103           0.0000000000
     54309     18103  TIP3      H2             27.0321533595       -1.3286322861       15.4114603535  W2        18103           0.0000000000
     54310     18104  TIP3      OH2            30.4390133595       -0.0150422861       18.6728503535  W2        18104           0.0000000000
     54311     18104  TIP3      H1             30.6237633595       -0.3484322861       19.5508803535  W2        18104           0.0000000000
     54312     18104  TIP3      H2             31.2854633595        0.2948177139       18.3507703535  W2        18104           0.0000000000
     54313     18105  TIP3      OH2            32.7840533595        1.2708477139       17.9169903535  W2        18105           0.0000000000
     54314     18105  TIP3      H1             33.4609433595        0.6380777139       17.6769103535  W2        18105           0.0000000000
     54315     18105  TIP3      H2             33.1059333595        1.6718977139       18.7243203535  W2        18105           0.0000000000
     54316     18106  TIP3      OH2            37.7014333595      -16.1396022861       16.9964903535  W2        18106           0.0000000000
     54317     18106  TIP3      H1             36.8887833595      -15.8145722861       16.6089603535  W2        18106           0.0000000000
     54318     18106  TIP3      H2             37.9342833595      -16.8997522861       16.4634003535  W2        18106           0.0000000000
     54319     18107  TIP3      OH2            23.5295433595        1.8423477139       15.7610103535  W2        18107           0.0000000000
     54320     18107  TIP3      H1             22.8091833595        2.2824477139       15.3097803535  W2        18107           0.0000000000
     54321     18107  TIP3      H2             23.1639433595        1.5918177139       16.6094103535  W2        18107           0.0000000000
     54322     18108  TIP3      OH2            25.9968033595        1.4427377139       14.7907303535  W2        18108           0.0000000000
     54323     18108  TIP3      H1             25.1320233595        1.5145877139       15.1947403535  W2        18108           0.0000000000
     54324     18108  TIP3      H2             25.9417033595        1.9894677139       14.0069803535  W2        18108           0.0000000000
     54325     18109  TIP3      OH2            30.7073633595        1.3306277139       13.9663303535  W2        18109           0.0000000000
     54326     18109  TIP3      H1             30.2507633595        1.8595977139       13.3121703535  W2        18109           0.0000000000
     54327     18109  TIP3      H2             30.8701633595        1.9337677139       14.6915603535  W2        18109           0.0000000000
     54328     18110  TIP3      OH2            33.0349933595        0.2085877139       14.9113603535  W2        18110           0.0000000000
     54329     18110  TIP3      H1             32.1303633595        0.3736077139       14.6455703535  W2        18110           0.0000000000
     54330     18110  TIP3      H2             33.4638533595        1.0618077139       14.8457003535  W2        18110           0.0000000000
     54331     18111  TIP3      OH2            35.6391833595        1.7784977139       15.2061403535  W2        18111           0.0000000000
     54332     18111  TIP3      H1             35.4573833595        2.6943877139       14.9956303535  W2        18111           0.0000000000
     54333     18111  TIP3      H2             35.8159633595        1.3682077139       14.3596003535  W2        18111           0.0000000000
     54334     18112  TIP3      OH2            22.9443533595        0.4655977139       12.6711903535  W2        18112           0.0000000000
     54335     18112  TIP3      H1             22.9259533595        0.0401077139       13.5284203535  W2        18112           0.0000000000
     54336     18112  TIP3      H2             23.7491433595        0.1470977139       12.2624103535  W2        18112           0.0000000000
     54337     18113  TIP3      OH2            25.0856633595       -0.8245322861       11.3261803535  W2        18113           0.0000000000
     54338     18113  TIP3      H1             24.8667333595       -1.7407922861       11.4957803535  W2        18113           0.0000000000
     54339     18113  TIP3      H2             25.9098833595       -0.6844922861       11.7923203535  W2        18113           0.0000000000
     54340     18114  TIP3      OH2            27.6229133595       -0.3546022861       12.1749803535  W2        18114           0.0000000000
     54341     18114  TIP3      H1             27.8354833595       -1.2427022861       11.8880703535  W2        18114           0.0000000000
     54342     18114  TIP3      H2             27.6874233595       -0.3888322861       13.1293803535  W2        18114           0.0000000000
     54343     18115  TIP3      OH2            31.1312833595      -14.6905422861       11.3193103535  W2        18115           0.0000000000
     54344     18115  TIP3      H1             30.4569633595      -15.3199822861       11.5748903535  W2        18115           0.0000000000
     54345     18115  TIP3      H2             31.6952033595      -15.1746522861       10.7161003535  W2        18115           0.0000000000
     54346     18116  TIP3      OH2            36.2740033595      -16.5831422861       11.4320203535  W2        18116           0.0000000000
     54347     18116  TIP3      H1             36.8777633595      -16.0356022861       10.9301203535  W2        18116           0.0000000000
     54348     18116  TIP3      H2             35.4042033595      -16.2641022861       11.1914303535  W2        18116           0.0000000000
     54349     18117  TIP3      OH2            38.0010433595      -15.4442722861        9.7651103535  W2        18117           0.0000000000
     54350     18117  TIP3      H1             38.6127933595      -15.9587022861        9.2384703535  W2        18117           0.0000000000
     54351     18117  TIP3      H2             38.3833833595      -14.5670622861        9.7885503535  W2        18117           0.0000000000
     54352     18118  TIP3      OH2            23.4580333595      -16.0565122861        9.1413003535  W2        18118           0.0000000000
     54353     18118  TIP3      H1             22.6810133595      -16.2910222861        8.6338903535  W2        18118           0.0000000000
     54354     18118  TIP3      H2             23.9883933595      -16.8533022861        9.1501003535  W2        18118           0.0000000000
     54355     18119  TIP3      OH2            22.2943733595      -16.2587022861        4.9449103535  W2        18119           0.0000000000
     54356     18119  TIP3      H1             22.7334433595      -15.6476522861        4.3532603535  W2        18119           0.0000000000
     54357     18119  TIP3      H2             21.6606133595      -15.7202922861        5.4189103535  W2        18119           0.0000000000
     54358     18120  TIP3      OH2            28.0372933595      -16.1298022861        8.9546103535  W2        18120           0.0000000000
     54359     18120  TIP3      H1             28.9116333595      -15.7413722861        8.9250403535  W2        18120           0.0000000000
     54360     18120  TIP3      H2             27.9013733595      -16.3450222861        9.8773303535  W2        18120           0.0000000000
     54361     18121  TIP3      OH2            33.5941333595      -16.0998222861       10.6037803535  W2        18121           0.0000000000
     54362     18121  TIP3      H1             33.6702933595      -16.0046622861        9.6543803535  W2        18121           0.0000000000
     54363     18121  TIP3      H2             33.3190533595      -17.0075322861       10.7326903535  W2        18121           0.0000000000
     54364     18122  TIP3      OH2            34.9473933595      -16.0740422861        6.2962803535  W2        18122           0.0000000000
     54365     18122  TIP3      H1             34.2445033595      -15.4591222861        6.0864203535  W2        18122           0.0000000000
     54366     18122  TIP3      H2             34.5025333595      -16.9113722861        6.4273703535  W2        18122           0.0000000000
     54367     18123  TIP3      OH2            22.1953233595       -0.3104822861        5.8424203535  W2        18123           0.0000000000
     54368     18123  TIP3      H1             21.5103133595       -0.3485922861        5.1749303535  W2        18123           0.0000000000
     54369     18123  TIP3      H2             22.1990433595        0.6022777139        6.1306303535  W2        18123           0.0000000000
     54370     18124  TIP3      OH2            24.1552833595      -14.3425522861        3.3873203535  W2        18124           0.0000000000
     54371     18124  TIP3      H1             24.6466233595      -14.9723122861        2.8598703535  W2        18124           0.0000000000
     54372     18124  TIP3      H2             24.7789133595      -14.0466122861        4.0504403535  W2        18124           0.0000000000
     54373     18125  TIP3      OH2            29.1812933595      -14.0494022861        5.8443703535  W2        18125           0.0000000000
     54374     18125  TIP3      H1             29.3594233595      -14.6960822861        6.5272303535  W2        18125           0.0000000000
     54375     18125  TIP3      H2             29.1279133595      -13.2156322861        6.3114803535  W2        18125           0.0000000000
     54376     18126  TIP3      OH2            31.0596733595        0.8990077139        4.2400403535  W2        18126           0.0000000000
     54377     18126  TIP3      H1             31.9256933595        1.2657477139        4.0618603535  W2        18126           0.0000000000
     54378     18126  TIP3      H2             30.8129533595        0.4598077139        3.4261203535  W2        18126           0.0000000000
     54379     18127  TIP3      OH2            37.7686333595        0.4620377139        6.9191503535  W2        18127           0.0000000000
     54380     18127  TIP3      H1             37.5743433595       -0.2857522861        6.3541103535  W2        18127           0.0000000000
     54381     18127  TIP3      H2             37.7296433595        1.2200477139        6.3359403535  W2        18127           0.0000000000
     54382     18128  TIP3      OH2            23.4158333595      -15.5423222861       18.6589203535  W2        18128           0.0000000000
     54383     18128  TIP3      H1             23.0496533595      -16.3080622861       19.1013903535  W2        18128           0.0000000000
     54384     18128  TIP3      H2             24.3286833595      -15.5133022861       18.9454303535  W2        18128           0.0000000000
     54385     18129  TIP3      OH2            25.3889133595      -16.1918822861       20.1946303535  W2        18129           0.0000000000
     54386     18129  TIP3      H1             26.2872733595      -16.4658622861       20.0099703535  W2        18129           0.0000000000
     54387     18129  TIP3      H2             25.0022233595      -16.9342822861       20.6588903535  W2        18129           0.0000000000
     54388     18130  TIP3      OH2            24.0134433595        0.6095977139        2.8676303535  W2        18130           0.0000000000
     54389     18130  TIP3      H1             23.7459033595        0.8958877139        3.7409403535  W2        18130           0.0000000000
     54390     18130  TIP3      H2             24.7847033595        0.0635177139        3.0198803535  W2        18130           0.0000000000
     54391     18131  TIP3      OH2            33.8101433595      -16.8593522861       20.3769103535  W2        18131           0.0000000000
     54392     18131  TIP3      H1             33.8868633595      -17.2852822861       21.2306803535  W2        18131           0.0000000000
     54393     18131  TIP3      H2             34.7038033595      -16.8458822861       20.0342603535  W2        18131           0.0000000000
     54394     18132  TIP3      OH2            36.9862533595       -0.7867222861       19.0693303535  W2        18132           0.0000000000
     54395     18132  TIP3      H1             36.2044433595       -0.9729222861       18.5493903535  W2        18132           0.0000000000
     54396     18132  TIP3      H2             36.9142433595        0.1427077139       19.2865803535  W2        18132           0.0000000000
     54397     18133  TIP3      OH2            51.3922933595       -6.9002822861        9.1000503535  W2        18133           0.0000000000
     54398     18133  TIP3      H1             51.4814033595       -5.9564622861        8.9677603535  W2        18133           0.0000000000
     54399     18133  TIP3      H2             50.7540533595       -7.1756422861        8.4419903535  W2        18133           0.0000000000
     54400     18134  TIP3      OH2            50.3254233595       -7.6452122861       12.5188703535  W2        18134           0.0000000000
     54401     18134  TIP3      H1             50.2871733595       -8.2915822861       13.2238303535  W2        18134           0.0000000000
     54402     18134  TIP3      H2             50.0030733595       -8.1117722861       11.7477403535  W2        18134           0.0000000000
     54403     18135  TIP3      OH2            42.6939233595       -8.0310022861       14.1118603535  W2        18135           0.0000000000
     54404     18135  TIP3      H1             42.7351333595       -8.6566722861       14.8351003535  W2        18135           0.0000000000
     54405     18135  TIP3      H2             43.3966933595       -7.4071422861       14.2939003535  W2        18135           0.0000000000
     54406     18136  TIP3      OH2            54.0314433595       -4.7061722861       10.8203803535  W2        18136           0.0000000000
     54407     18136  TIP3      H1             53.5907133595       -5.4265722861       11.2709403535  W2        18136           0.0000000000
     54408     18136  TIP3      H2             54.0184133595       -3.9854522861       11.4501503535  W2        18136           0.0000000000
     54409     18137  TIP3      OH2            43.6172333595       -3.5811122861       12.6467703535  W2        18137           0.0000000000
     54410     18137  TIP3      H1             43.2477533595       -4.3830622861       12.2772003535  W2        18137           0.0000000000
     54411     18137  TIP3      H2             44.5583433595       -3.7496222861       12.6931103535  W2        18137           0.0000000000
     54412     18138  TIP3      OH2            40.2272833595       -9.9208522861        8.0396503535  W2        18138           0.0000000000
     54413     18138  TIP3      H1             39.7796233595       -9.0749822861        8.0213003535  W2        18138           0.0000000000
     54414     18138  TIP3      H2             39.6664033595      -10.5004322861        7.5241603535  W2        18138           0.0000000000
     54415     18139  TIP3      OH2            40.9378933595       -7.7588922861       10.1654503535  W2        18139           0.0000000000
     54416     18139  TIP3      H1             41.1512433595       -8.5287322861       10.6927503535  W2        18139           0.0000000000
     54417     18139  TIP3      H2             41.6756533595       -7.6692222861        9.5622103535  W2        18139           0.0000000000
     54418     18140  TIP3      OH2            51.1429933595        0.3979977139       11.0324203535  W2        18140           0.0000000000
     54419     18140  TIP3      H1             51.7626333595       -0.2785322861       10.7593403535  W2        18140           0.0000000000
     54420     18140  TIP3      H2             50.9347333595        0.1800777139       11.9409103535  W2        18140           0.0000000000
     54421     18141  TIP3      OH2            48.7148633595       -5.2130722861       12.9249703535  W2        18141           0.0000000000
     54422     18141  TIP3      H1             49.0186533595       -5.8989322861       12.3303803535  W2        18141           0.0000000000
     54423     18141  TIP3      H2             49.4362633595       -5.0942022861       13.5427703535  W2        18141           0.0000000000
     54424     18142  TIP3      OH2            51.8555633595      -10.8188322861       13.2524503535  W2        18142           0.0000000000
     54425     18142  TIP3      H1             51.9981533595      -11.7651322861       13.2726103535  W2        18142           0.0000000000
     54426     18142  TIP3      H2             51.7494633595      -10.6118522861       12.3239403535  W2        18142           0.0000000000
     54427     18143  TIP3      OH2            45.0103933595      -12.7171922861       10.5249303535  W2        18143           0.0000000000
     54428     18143  TIP3      H1             45.0535033595      -11.8573422861       10.1065603535  W2        18143           0.0000000000
     54429     18143  TIP3      H2             44.5528033595      -13.2697222861        9.8912503535  W2        18143           0.0000000000
     54430     18144  TIP3      OH2            52.7326633595      -12.5866322861        8.9257603535  W2        18144           0.0000000000
     54431     18144  TIP3      H1             53.3790933595      -12.9153122861        9.5505203535  W2        18144           0.0000000000
     54432     18144  TIP3      H2             53.2426033595      -12.0687322861        8.3029003535  W2        18144           0.0000000000
     54433     18145  TIP3      OH2            41.6305433595      -10.3206122861       11.2870703535  W2        18145           0.0000000000
     54434     18145  TIP3      H1             42.2842033595      -10.8704422861       11.7190803535  W2        18145           0.0000000000
     54435     18145  TIP3      H2             41.6544733595      -10.5947122861       10.3702703535  W2        18145           0.0000000000
     54436     18146  TIP3      OH2            46.7869933595       -8.7704822861       10.5022203535  W2        18146           0.0000000000
     54437     18146  TIP3      H1             47.4030933595       -9.2969422861       11.0116203535  W2        18146           0.0000000000
     54438     18146  TIP3      H2             46.2008733595       -9.4106122861       10.0985803535  W2        18146           0.0000000000
     54439     18147  TIP3      OH2            43.8205833595      -13.7993522861       14.5990103535  W2        18147           0.0000000000
     54440     18147  TIP3      H1             43.6017533595      -13.2692922861       13.8326103535  W2        18147           0.0000000000
     54441     18147  TIP3      H2             43.1526733595      -13.5728022861       15.2461503535  W2        18147           0.0000000000
     54442     18148  TIP3      OH2            51.1895633595       -4.2992422861        8.1429203535  W2        18148           0.0000000000
     54443     18148  TIP3      H1             50.8940733595       -4.6220122861        7.2916103535  W2        18148           0.0000000000
     54444     18148  TIP3      H2             50.8653433595       -3.3995722861        8.1841803535  W2        18148           0.0000000000
     54445     18149  TIP3      OH2            46.3897233595       -6.1237822861       14.8863803535  W2        18149           0.0000000000
     54446     18149  TIP3      H1             45.6496333595       -5.5256322861       14.9899003535  W2        18149           0.0000000000
     54447     18149  TIP3      H2             47.1036733595       -5.5698222861       14.5707403535  W2        18149           0.0000000000
     54448     18150  TIP3      OH2            54.4965033595      -13.2957022861       10.9063503535  W2        18150           0.0000000000
     54449     18150  TIP3      H1             54.2813033595      -14.0613622861       11.4389503535  W2        18150           0.0000000000
     54450     18150  TIP3      H2             55.1522433595      -12.8232422861       11.4192003535  W2        18150           0.0000000000
     54451     18151  TIP3      OH2            43.4143133595      -11.9071722861       12.5512303535  W2        18151           0.0000000000
     54452     18151  TIP3      H1             44.0279433595      -11.2744122861       12.9244703535  W2        18151           0.0000000000
     54453     18151  TIP3      H2             43.9263833595      -12.3796722861       11.8949203535  W2        18151           0.0000000000
     54454     18152  TIP3      OH2            44.7971533595       -4.1594822861       15.6735303535  W2        18152           0.0000000000
     54455     18152  TIP3      H1             44.7919133595       -3.2801322861       15.2954603535  W2        18152           0.0000000000
     54456     18152  TIP3      H2             43.9435633595       -4.2430722861       16.0985203535  W2        18152           0.0000000000
     54457     18153  TIP3      OH2            40.9182433595       -4.4886922861        6.4554603535  W2        18153           0.0000000000
     54458     18153  TIP3      H1             40.6463333595       -4.2595922861        5.5667503535  W2        18153           0.0000000000
     54459     18153  TIP3      H2             40.9638133595       -3.6508122861        6.9159903535  W2        18153           0.0000000000
     54460     18154  TIP3      OH2            54.5432133595       -2.8671022861       13.1683103535  W2        18154           0.0000000000
     54461     18154  TIP3      H1             53.6015833595       -2.8087122861       13.3300003535  W2        18154           0.0000000000
     54462     18154  TIP3      H2             54.8198233595       -1.9610522861       13.0312803535  W2        18154           0.0000000000
     54463     18155  TIP3      OH2            47.8470533595      -16.4938422861       12.0515003535  W2        18155           0.0000000000
     54464     18155  TIP3      H1             47.7294733595      -17.4422422861       11.9973303535  W2        18155           0.0000000000
     54465     18155  TIP3      H2             46.9920633595      -16.1612322861       12.3246103535  W2        18155           0.0000000000
     54466     18156  TIP3      OH2            52.7953333595       -1.0857522861        9.7934703535  W2        18156           0.0000000000
     54467     18156  TIP3      H1             53.2205633595       -1.7929622861        9.3084303535  W2        18156           0.0000000000
     54468     18156  TIP3      H2             53.1123333595       -0.2844822861        9.3766903535  W2        18156           0.0000000000
     54469     18157  TIP3      OH2            53.9549833595       -3.1849022861        8.3021303535  W2        18157           0.0000000000
     54470     18157  TIP3      H1             53.6974633595       -3.8748922861        7.6907203535  W2        18157           0.0000000000
     54471     18157  TIP3      H2             54.0260633595       -3.6277822861        9.1477203535  W2        18157           0.0000000000
     54472     18158  TIP3      OH2            50.1135433595       -7.6562822861        6.5520803535  W2        18158           0.0000000000
     54473     18158  TIP3      H1             49.4020933595       -7.1213122861        6.2001303535  W2        18158           0.0000000000
     54474     18158  TIP3      H2             50.8045033595       -7.6010722861        5.8919703535  W2        18158           0.0000000000
     54475     18159  TIP3      OH2            50.1674633595       -9.1988522861        3.5905803535  W2        18159           0.0000000000
     54476     18159  TIP3      H1             50.8684533595       -9.1761622861        4.2419803535  W2        18159           0.0000000000
     54477     18159  TIP3      H2             50.4697533595       -9.8268822861        2.9345103535  W2        18159           0.0000000000
     54478     18160  TIP3      OH2            53.5193133595       -7.4469522861        7.5036703535  W2        18160           0.0000000000
     54479     18160  TIP3      H1             52.7874133595       -7.2185822861        8.0767303535  W2        18160           0.0000000000
     54480     18160  TIP3      H2             53.9665333595       -8.1606822861        7.9584203535  W2        18160           0.0000000000
     54481     18161  TIP3      OH2            53.4166633595       -9.2726922861       16.5713703535  W2        18161           0.0000000000
     54482     18161  TIP3      H1             53.4965733595       -8.5092522861       17.1432203535  W2        18161           0.0000000000
     54483     18161  TIP3      H2             52.8154333595       -8.9934522861       15.8808803535  W2        18161           0.0000000000
     54484     18162  TIP3      OH2            45.1646833595       -6.8163322861        9.3861703535  W2        18162           0.0000000000
     54485     18162  TIP3      H1             44.8342033595       -7.1869922861        8.5678703535  W2        18162           0.0000000000
     54486     18162  TIP3      H2             45.7530933595       -7.4869322861        9.7330003535  W2        18162           0.0000000000
     54487     18163  TIP3      OH2            46.5314333595       -3.3882722861       12.0673903535  W2        18163           0.0000000000
     54488     18163  TIP3      H1             46.4365633595       -3.9669622861       11.3108503535  W2        18163           0.0000000000
     54489     18163  TIP3      H2             47.2607933595       -3.7597022861       12.5636703535  W2        18163           0.0000000000
     54490     18164  TIP3      OH2            45.5312333595       -8.0477722861       13.0196703535  W2        18164           0.0000000000
     54491     18164  TIP3      H1             46.0964833595       -7.9263522861       12.2567903535  W2        18164           0.0000000000
     54492     18164  TIP3      H2             45.8501233595       -7.4102722861       13.6585203535  W2        18164           0.0000000000
     54493     18165  TIP3      OH2            51.8404533595       -2.5445822861       13.7537203535  W2        18165           0.0000000000
     54494     18165  TIP3      H1             51.6001133595       -1.8822722861       14.4016403535  W2        18165           0.0000000000
     54495     18165  TIP3      H2             51.6422733595       -3.3790622861       14.1786803535  W2        18165           0.0000000000
     54496     18166  TIP3      OH2            46.4113033595       -3.6485022861       17.7368603535  W2        18166           0.0000000000
     54497     18166  TIP3      H1             46.1000533595       -2.8661822861       18.1921803535  W2        18166           0.0000000000
     54498     18166  TIP3      H2             45.7613233595       -3.8015922861       17.0510603535  W2        18166           0.0000000000
     54499     18167  TIP3      OH2            52.3902633595       -8.2846622861        5.1887903535  W2        18167           0.0000000000
     54500     18167  TIP3      H1             52.9698133595       -8.1346322861        5.9356803535  W2        18167           0.0000000000
     54501     18167  TIP3      H2             52.8042633595       -7.8139222861        4.4654303535  W2        18167           0.0000000000
     54502     18168  TIP3      OH2            43.3312933595       -7.4503922861       16.9654303535  W2        18168           0.0000000000
     54503     18168  TIP3      H1             43.4016133595       -6.7997122861       17.6639303535  W2        18168           0.0000000000
     54504     18168  TIP3      H2             42.4405133595       -7.3476422861       16.6305203535  W2        18168           0.0000000000
     54505     18169  TIP3      OH2            50.1167533595       -1.5478122861        8.6241003535  W2        18169           0.0000000000
     54506     18169  TIP3      H1             50.5905133595       -1.2521822861        9.4015203535  W2        18169           0.0000000000
     54507     18169  TIP3      H2             49.5536833595       -0.8096522861        8.3910603535  W2        18169           0.0000000000
     54508     18170  TIP3      OH2            44.6508933595       -1.5770022861       18.5002403535  W2        18170           0.0000000000
     54509     18170  TIP3      H1             44.6584233595       -1.7130322861       17.5527903535  W2        18170           0.0000000000
     54510     18170  TIP3      H2             43.7349333595       -1.6941922861       18.7522403535  W2        18170           0.0000000000
     54511     18171  TIP3      OH2            44.1549533595       -7.7469022861        6.9754503535  W2        18171           0.0000000000
     54512     18171  TIP3      H1             43.8630833595       -6.9787322861        6.4845803535  W2        18171           0.0000000000
     54513     18171  TIP3      H2             43.4804733595       -8.4062822861        6.8125903535  W2        18171           0.0000000000
     54514     18172  TIP3      OH2            40.2479633595       -5.3839822861       15.7904303535  W2        18172           0.0000000000
     54515     18172  TIP3      H1             39.7468033595       -5.4120422861       14.9754003535  W2        18172           0.0000000000
     54516     18172  TIP3      H2             40.2533333595       -6.2896622861       16.1001603535  W2        18172           0.0000000000
     54517     18173  TIP3      OH2            39.9982333595       -2.6036022861       12.6744503535  W2        18173           0.0000000000
     54518     18173  TIP3      H1             40.9442933595       -2.7479022861       12.6554003535  W2        18173           0.0000000000
     54519     18173  TIP3      H2             39.8858633595       -1.8193222861       13.2115703535  W2        18173           0.0000000000
     54520     18174  TIP3      OH2            49.1744833595       -2.3637122861       17.2329603535  W2        18174           0.0000000000
     54521     18174  TIP3      H1             49.2619433595       -1.5372522861       17.7078703535  W2        18174           0.0000000000
     54522     18174  TIP3      H2             48.3109933595       -2.6933322861       17.4818903535  W2        18174           0.0000000000
     54523     18175  TIP3      OH2            49.5890633595        1.4086577139        7.0390203535  W2        18175           0.0000000000
     54524     18175  TIP3      H1             49.5136633595        1.2873777139        6.0925403535  W2        18175           0.0000000000
     54525     18175  TIP3      H2             49.6219333595        2.3579277139        7.1574803535  W2        18175           0.0000000000
     54526     18176  TIP3      OH2            43.2424433595        0.1973577139        8.8199203535  W2        18176           0.0000000000
     54527     18176  TIP3      H1             43.3944833595       -0.1506022861        9.6985703535  W2        18176           0.0000000000
     54528     18176  TIP3      H2             42.3914833595       -0.1589122861        8.5646403535  W2        18176           0.0000000000
     54529     18177  TIP3      OH2            52.6906633595        0.5626777139        4.0412603535  W2        18177           0.0000000000
     54530     18177  TIP3      H1             53.0655033595       -0.1817122861        3.5705203535  W2        18177           0.0000000000
     54531     18177  TIP3      H2             52.6950333595        0.2927377139        4.9595903535  W2        18177           0.0000000000
     54532     18178  TIP3      OH2            52.3594733595        0.4883877139        6.7904803535  W2        18178           0.0000000000
     54533     18178  TIP3      H1             51.4244533595        0.5885777139        6.9691803535  W2        18178           0.0000000000
     54534     18178  TIP3      H2             52.6396633595       -0.2210122861        7.3688003535  W2        18178           0.0000000000
     54535     18179  TIP3      OH2            42.4970133595       -4.0604422861       16.8337103535  W2        18179           0.0000000000
     54536     18179  TIP3      H1             42.7131433595       -4.4218822861       17.6932903535  W2        18179           0.0000000000
     54537     18179  TIP3      H2             41.6414833595       -4.4350622861       16.6240603535  W2        18179           0.0000000000
     54538     18180  TIP3      OH2            45.1158133595      -15.5903922861       12.8291303535  W2        18180           0.0000000000
     54539     18180  TIP3      H1             44.2541833595      -15.6775722861       12.4214203535  W2        18180           0.0000000000
     54540     18180  TIP3      H2             45.0933833595      -14.7343822861       13.2568903535  W2        18180           0.0000000000
     54541     18181  TIP3      OH2            49.7785933595      -15.8683522861       16.2038303535  W2        18181           0.0000000000
     54542     18181  TIP3      H1             50.1989033595      -16.2836422861       16.9568903535  W2        18181           0.0000000000
     54543     18181  TIP3      H2             48.8455533595      -16.0470222861       16.3210303535  W2        18181           0.0000000000
     54544     18182  TIP3      OH2            53.1050833595      -12.1128322861       17.0572803535  W2        18182           0.0000000000
     54545     18182  TIP3      H1             52.5910333595      -12.2386122861       17.8548803535  W2        18182           0.0000000000
     54546     18182  TIP3      H2             52.9495533595      -11.2005222861       16.8129003535  W2        18182           0.0000000000
     54547     18183  TIP3      OH2            53.8675733595       -7.2518322861        2.8185803535  W2        18183           0.0000000000
     54548     18183  TIP3      H1             53.9096533595       -7.4744422861        1.8885803535  W2        18183           0.0000000000
     54549     18183  TIP3      H2             54.7167833595       -6.8531222861        3.0085703535  W2        18183           0.0000000000
     54550     18184  TIP3      OH2            49.4403233595      -13.3760122861        3.4889103535  W2        18184           0.0000000000
     54551     18184  TIP3      H1             49.1868033595      -13.3568522861        4.4117203535  W2        18184           0.0000000000
     54552     18184  TIP3      H2             49.1835333595      -14.2474722861        3.1875303535  W2        18184           0.0000000000
     54553     18185  TIP3      OH2            45.2068233595      -10.6249422861       13.9241503535  W2        18185           0.0000000000
     54554     18185  TIP3      H1             44.5650333595      -10.6652122861       14.6331603535  W2        18185           0.0000000000
     54555     18185  TIP3      H2             45.2440233595       -9.6984722861       13.6864503535  W2        18185           0.0000000000
     54556     18186  TIP3      OH2            45.2037333595      -10.4039322861        8.8361503535  W2        18186           0.0000000000
     54557     18186  TIP3      H1             44.3110233595      -10.7443222861        8.7775303535  W2        18186           0.0000000000
     54558     18186  TIP3      H2             45.6543933595      -10.7808422861        8.0804703535  W2        18186           0.0000000000
     54559     18187  TIP3      OH2            50.7392833595       -9.9879022861        7.6532303535  W2        18187           0.0000000000
     54560     18187  TIP3      H1             50.3303133595       -9.1730422861        7.3617103535  W2        18187           0.0000000000
     54561     18187  TIP3      H2             51.4599033595      -10.1278922861        7.0389403535  W2        18187           0.0000000000
     54562     18188  TIP3      OH2            49.8414433595       -9.8122622861       19.1413003535  W2        18188           0.0000000000
     54563     18188  TIP3      H1             49.2788233595      -10.5171022861       19.4620803535  W2        18188           0.0000000000
     54564     18188  TIP3      H2             50.6677833595       -9.9330722861       19.6090603535  W2        18188           0.0000000000
     54565     18189  TIP3      OH2            51.7440533595      -10.5418622861       10.4672003535  W2        18189           0.0000000000
     54566     18189  TIP3      H1             51.5485033595       -9.9361822861        9.7522603535  W2        18189           0.0000000000
     54567     18189  TIP3      H2             51.9253133595      -11.3753422861       10.0328303535  W2        18189           0.0000000000
     54568     18190  TIP3      OH2            42.9568733595      -10.3045922861       15.7913503535  W2        18190           0.0000000000
     54569     18190  TIP3      H1             42.9188133595       -9.9044322861       16.6600603535  W2        18190           0.0000000000
     54570     18190  TIP3      H2             42.4659833595      -11.1213522861       15.8816403535  W2        18190           0.0000000000
     54571     18191  TIP3      OH2            46.3226133595      -12.9303622861        2.5899503535  W2        18191           0.0000000000
     54572     18191  TIP3      H1             45.8916833595      -13.3753522861        3.3196903535  W2        18191           0.0000000000
     54573     18191  TIP3      H2             45.6044833595      -12.5587322861        2.0777003535  W2        18191           0.0000000000
     54574     18192  TIP3      OH2            39.5649533595      -13.1884122861        9.6418203535  W2        18192           0.0000000000
     54575     18192  TIP3      H1             40.1957233595      -13.2172022861       10.3612103535  W2        18192           0.0000000000
     54576     18192  TIP3      H2             40.0143833595      -13.6135422861        8.9114103535  W2        18192           0.0000000000
     54577     18193  TIP3      OH2            40.8391633595      -12.4422122861        5.0658603535  W2        18193           0.0000000000
     54578     18193  TIP3      H1             41.3133333595      -11.8512222861        4.4809503535  W2        18193           0.0000000000
     54579     18193  TIP3      H2             40.1218033595      -11.9119222861        5.4128703535  W2        18193           0.0000000000
     54580     18194  TIP3      OH2            51.0079733595       -8.9037322861       15.1384403535  W2        18194           0.0000000000
     54581     18194  TIP3      H1             51.3314533595       -9.5347622861       14.4954903535  W2        18194           0.0000000000
     54582     18194  TIP3      H2             50.5679033595       -9.4385122861       15.7991803535  W2        18194           0.0000000000
     54583     18195  TIP3      OH2            47.7852633595      -12.9761822861        9.9225603535  W2        18195           0.0000000000
     54584     18195  TIP3      H1             46.8743733595      -12.9195022861       10.2111603535  W2        18195           0.0000000000
     54585     18195  TIP3      H2             48.2905533595      -13.0366322861       10.7332803535  W2        18195           0.0000000000
     54586     18196  TIP3      OH2            42.6136033595      -11.3475522861        8.7493203535  W2        18196           0.0000000000
     54587     18196  TIP3      H1             41.7244033595      -11.2480022861        8.4092803535  W2        18196           0.0000000000
     54588     18196  TIP3      H2             42.9100933595      -12.1892522861        8.4031103535  W2        18196           0.0000000000
     54589     18197  TIP3      OH2            46.2667833595      -11.3472922861        6.4057803535  W2        18197           0.0000000000
     54590     18197  TIP3      H1             47.1983333595      -11.2182922861        6.5840903535  W2        18197           0.0000000000
     54591     18197  TIP3      H2             46.0518133595      -10.6778622861        5.7562503535  W2        18197           0.0000000000
     54592     18198  TIP3      OH2            52.1904533595      -13.7415522861       13.1867403535  W2        18198           0.0000000000
     54593     18198  TIP3      H1             51.5136133595      -13.6102422861       13.8507103535  W2        18198           0.0000000000
     54594     18198  TIP3      H2             51.7049433595      -13.8966022861       12.3765103535  W2        18198           0.0000000000
     54595     18199  TIP3      OH2            44.9408033595      -10.1530722861        3.9723903535  W2        18199           0.0000000000
     54596     18199  TIP3      H1             44.3983133595      -10.5326922861        3.2811503535  W2        18199           0.0000000000
     54597     18199  TIP3      H2             45.7742933595       -9.9586022861        3.5438003535  W2        18199           0.0000000000
     54598     18200  TIP3      OH2            43.0759433595       -5.5958822861       19.0715503535  W2        18200           0.0000000000
     54599     18200  TIP3      H1             43.8081833595       -5.3412922861       19.6330003535  W2        18200           0.0000000000
     54600     18200  TIP3      H2             42.2958133595       -5.3913422861       19.5870903535  W2        18200           0.0000000000
     54601     18201  TIP3      OH2            49.1052333595      -10.1888822861       11.8095203535  W2        18201           0.0000000000
     54602     18201  TIP3      H1             49.6695733595      -10.7352222861       11.2624803535  W2        18201           0.0000000000
     54603     18201  TIP3      H2             48.9575733595      -10.7106922861       12.5982803535  W2        18201           0.0000000000
     54604     18202  TIP3      OH2            44.1072033595      -14.0522722861        8.2280003535  W2        18202           0.0000000000
     54605     18202  TIP3      H1             43.7901533595      -14.9547422861        8.1925403535  W2        18202           0.0000000000
     54606     18202  TIP3      H2             44.8886133595      -14.0505322861        7.6751603535  W2        18202           0.0000000000
     54607     18203  TIP3      OH2            47.7318233595      -11.8002722861       14.2235603535  W2        18203           0.0000000000
     54608     18203  TIP3      H1             46.8963533595      -11.3463222861       14.3338003535  W2        18203           0.0000000000
     54609     18203  TIP3      H2             48.2558833595      -11.5244222861       14.9755503535  W2        18203           0.0000000000
     54610     18204  TIP3      OH2            48.2760833595       -5.5875022861        5.9082003535  W2        18204           0.0000000000
     54611     18204  TIP3      H1             47.5311833595       -6.0949722861        5.5859903535  W2        18204           0.0000000000
     54612     18204  TIP3      H2             48.1418033595       -5.5387022861        6.8546803535  W2        18204           0.0000000000
     54613     18205  TIP3      OH2            52.1737633595      -12.7735122861        4.1074603535  W2        18205           0.0000000000
     54614     18205  TIP3      H1             51.2351833595      -12.6619522861        3.9563403535  W2        18205           0.0000000000
     54615     18205  TIP3      H2             52.4709733595      -11.9168222861        4.4140303535  W2        18205           0.0000000000
     54616     18206  TIP3      OH2            49.7952933595       -5.4031722861       17.1451103535  W2        18206           0.0000000000
     54617     18206  TIP3      H1             49.4499033595       -5.7849322861       17.9520703535  W2        18206           0.0000000000
     54618     18206  TIP3      H2             49.5953033595       -4.4698122861       17.2164003535  W2        18206           0.0000000000
     54619     18207  TIP3      OH2            52.8921133595      -10.9062422861        5.7682003535  W2        18207           0.0000000000
     54620     18207  TIP3      H1             53.7840133595      -11.0437422861        6.0873203535  W2        18207           0.0000000000
     54621     18207  TIP3      H2             52.9484733595      -10.1156322861        5.2315503535  W2        18207           0.0000000000
     54622     18208  TIP3      OH2            43.4009133595       -6.2925022861       11.6779903535  W2        18208           0.0000000000
     54623     18208  TIP3      H1             44.1456333595       -6.2949322861       11.0766403535  W2        18208           0.0000000000
     54624     18208  TIP3      H2             43.4785733595       -7.1161222861       12.1595003535  W2        18208           0.0000000000
     54625     18209  TIP3      OH2            50.4014933595       -4.1290722861        4.9336603535  W2        18209           0.0000000000
     54626     18209  TIP3      H1             50.1063333595       -3.3022822861        5.3151403535  W2        18209           0.0000000000
     54627     18209  TIP3      H2             49.6984933595       -4.7483822861        5.1298003535  W2        18209           0.0000000000
     54628     18210  TIP3      OH2            40.4088833595       -7.8318122861       16.9928403535  W2        18210           0.0000000000
     54629     18210  TIP3      H1             40.6317433595       -8.2498522861       17.8245903535  W2        18210           0.0000000000
     54630     18210  TIP3      H2             39.8068933595       -8.4443122861       16.5701203535  W2        18210           0.0000000000
     54631     18211  TIP3      OH2            47.4253733595       -8.3148222861       19.2058103535  W2        18211           0.0000000000
     54632     18211  TIP3      H1             47.1294533595       -8.4805222861       18.3107203535  W2        18211           0.0000000000
     54633     18211  TIP3      H2             48.3568933595       -8.5347922861       19.1952003535  W2        18211           0.0000000000
     54634     18212  TIP3      OH2            52.0456533595       -2.9416222861       17.0956103535  W2        18212           0.0000000000
     54635     18212  TIP3      H1             51.1450833595       -2.7583622861       16.8280003535  W2        18212           0.0000000000
     54636     18212  TIP3      H2             52.0797633595       -2.6826922861       18.0164903535  W2        18212           0.0000000000
     54637     18213  TIP3      OH2            53.2325433595       -7.1028422861       12.9492703535  W2        18213           0.0000000000
     54638     18213  TIP3      H1             52.3042333595       -7.3346522861       12.9222003535  W2        18213           0.0000000000
     54639     18213  TIP3      H2             53.6836533595       -7.8798622861       12.6191503535  W2        18213           0.0000000000
     54640     18214  TIP3      OH2            45.7758533595       -2.7746822861        9.0821403535  W2        18214           0.0000000000
     54641     18214  TIP3      H1             46.3030733595       -2.0012422861        8.8820203535  W2        18214           0.0000000000
     54642     18214  TIP3      H2             44.8957033595       -2.5497622861        8.7805403535  W2        18214           0.0000000000
     54643     18215  TIP3      OH2            41.5306233595       -7.9122722861        3.6693803535  W2        18215           0.0000000000
     54644     18215  TIP3      H1             42.1466133595       -7.2855522861        4.0488603535  W2        18215           0.0000000000
     54645     18215  TIP3      H2             40.6688833595       -7.5962922861        3.9410303535  W2        18215           0.0000000000
     54646     18216  TIP3      OH2            47.2030833595       -5.1116922861        8.6585703535  W2        18216           0.0000000000
     54647     18216  TIP3      H1             46.9620833595       -4.1862522861        8.7001003535  W2        18216           0.0000000000
     54648     18216  TIP3      H2             46.4624433595       -5.5705622861        9.0549603535  W2        18216           0.0000000000
     54649     18217  TIP3      OH2            47.7177433595       -0.9623322861       14.9736803535  W2        18217           0.0000000000
     54650     18217  TIP3      H1             48.0802133595       -0.1077722861       14.7401203535  W2        18217           0.0000000000
     54651     18217  TIP3      H2             48.2492633595       -1.2541722861       15.7143103535  W2        18217           0.0000000000
     54652     18218  TIP3      OH2            45.8861633595       -0.0899322861        8.2037903535  W2        18218           0.0000000000
     54653     18218  TIP3      H1             44.9362133595        0.0158077139        8.2551203535  W2        18218           0.0000000000
     54654     18218  TIP3      H2             46.2379733595        0.7308077139        8.5485403535  W2        18218           0.0000000000
     54655     18219  TIP3      OH2            51.2618233595       -4.8632622861       14.6742403535  W2        18219           0.0000000000
     54656     18219  TIP3      H1             50.8359533595       -5.0910922861       15.5006403535  W2        18219           0.0000000000
     54657     18219  TIP3      H2             51.8424033595       -5.6020822861       14.4917703535  W2        18219           0.0000000000
     54658     18220  TIP3      OH2            53.4647133595       -3.9342122861        3.7481403535  W2        18220           0.0000000000
     54659     18220  TIP3      H1             53.8180233595       -4.3142322861        4.5524903535  W2        18220           0.0000000000
     54660     18220  TIP3      H2             52.5160633595       -4.0277322861        3.8350703535  W2        18220           0.0000000000
     54661     18221  TIP3      OH2            53.9202433595       -0.3113122861       17.1437203535  W2        18221           0.0000000000
     54662     18221  TIP3      H1             53.3185633595       -0.8670222861       16.6483503535  W2        18221           0.0000000000
     54663     18221  TIP3      H2             54.2016133595        0.3556677139       16.5174603535  W2        18221           0.0000000000
     54664     18222  TIP3      OH2            42.0428333595      -13.0785422861       16.5509803535  W2        18222           0.0000000000
     54665     18222  TIP3      H1             41.1500633595      -12.7400022861       16.4833803535  W2        18222           0.0000000000
     54666     18222  TIP3      H2             41.9441133595      -13.9339322861       16.9690603535  W2        18222           0.0000000000
     54667     18223  TIP3      OH2            54.3306433595       -5.2620122861        5.9749303535  W2        18223           0.0000000000
     54668     18223  TIP3      H1             54.0534033595       -5.9900822861        6.5310403535  W2        18223           0.0000000000
     54669     18223  TIP3      H2             55.2579433595       -5.1428122861        6.1801903535  W2        18223           0.0000000000
     54670     18224  TIP3      OH2            41.6940333595       -1.2741022861       14.9859203535  W2        18224           0.0000000000
     54671     18224  TIP3      H1             41.9110633595       -2.2058622861       14.9548903535  W2        18224           0.0000000000
     54672     18224  TIP3      H2             41.9403833595       -0.9996022861       15.8692003535  W2        18224           0.0000000000
     54673     18225  TIP3      OH2            47.5554933595       -2.8226022861        2.1951403535  W2        18225           0.0000000000
     54674     18225  TIP3      H1             47.7944733595       -3.5707922861        1.6480303535  W2        18225           0.0000000000
     54675     18225  TIP3      H2             47.2866233595       -3.2104322861        3.0279203535  W2        18225           0.0000000000
     54676     18226  TIP3      OH2            46.4925533595       -3.2522222861        4.6514003535  W2        18226           0.0000000000
     54677     18226  TIP3      H1             46.6393533595       -3.7722422861        5.4414903535  W2        18226           0.0000000000
     54678     18226  TIP3      H2             46.4897233595       -2.3454622861        4.9579903535  W2        18226           0.0000000000
     54679     18227  TIP3      OH2            42.9456633595       -5.9998922861        5.1619403535  W2        18227           0.0000000000
     54680     18227  TIP3      H1             42.2595933595       -5.6476422861        5.7289103535  W2        18227           0.0000000000
     54681     18227  TIP3      H2             43.4684533595       -5.2369322861        4.9153703535  W2        18227           0.0000000000
     54682     18228  TIP3      OH2            50.7771733595      -13.3375122861       15.4408403535  W2        18228           0.0000000000
     54683     18228  TIP3      H1             51.4759633595      -13.2636422861       16.0908103535  W2        18228           0.0000000000
     54684     18228  TIP3      H2             50.3963133595      -14.2020122861       15.5951303535  W2        18228           0.0000000000
     54685     18229  TIP3      OH2            51.5616633595      -13.6853422861        6.5380703535  W2        18229           0.0000000000
     54686     18229  TIP3      H1             51.7814933595      -13.2138022861        5.7346103535  W2        18229           0.0000000000
     54687     18229  TIP3      H2             52.1200633595      -13.2910822861        7.2081303535  W2        18229           0.0000000000
     54688     18230  TIP3      OH2            49.2302733595       -1.5548622861        5.4008203535  W2        18230           0.0000000000
     54689     18230  TIP3      H1             48.4138833595       -1.0578922861        5.4532503535  W2        18230           0.0000000000
     54690     18230  TIP3      H2             49.7599033595       -1.0795122861        4.7607003535  W2        18230           0.0000000000
     54691     18231  TIP3      OH2            48.7616533595      -11.9574622861        7.3729103535  W2        18231           0.0000000000
     54692     18231  TIP3      H1             49.5739133595      -11.4531422861        7.4190803535  W2        18231           0.0000000000
     54693     18231  TIP3      H2             48.5169533595      -12.1024922861        8.2868703535  W2        18231           0.0000000000
     54694     18232  TIP3      OH2            49.2972933595      -10.9711922861       16.5575703535  W2        18232           0.0000000000
     54695     18232  TIP3      H1             49.4163233595      -10.3976522861       17.3146103535  W2        18232           0.0000000000
     54696     18232  TIP3      H2             49.9527533595      -11.6592522861       16.6723503535  W2        18232           0.0000000000
     54697     18233  TIP3      OH2            49.6453233595      -14.8761622861        8.3110203535  W2        18233           0.0000000000
     54698     18233  TIP3      H1             49.2986733595      -14.2591022861        8.9554503535  W2        18233           0.0000000000
     54699     18233  TIP3      H2             50.3040133595      -14.3755922861        7.8295703535  W2        18233           0.0000000000
     54700     18234  TIP3      OH2            46.5685833595       -0.5111422861        5.3825103535  W2        18234           0.0000000000
     54701     18234  TIP3      H1             46.7294533595        0.2886077139        4.8817703535  W2        18234           0.0000000000
     54702     18234  TIP3      H2             46.3713633595       -0.2045422861        6.2675703535  W2        18234           0.0000000000
     54703     18235  TIP3      OH2            45.3030233595      -13.8132222861        4.9982703535  W2        18235           0.0000000000
     54704     18235  TIP3      H1             45.2195033595      -12.9249122861        5.3449103535  W2        18235           0.0000000000
     54705     18235  TIP3      H2             46.1930533595      -14.0785522861        5.2299503535  W2        18235           0.0000000000
     54706     18236  TIP3      OH2            54.1039733595       -9.3140622861       11.4882703535  W2        18236           0.0000000000
     54707     18236  TIP3      H1             53.3064133595       -9.7290422861       11.1597703535  W2        18236           0.0000000000
     54708     18236  TIP3      H2             54.5490833595      -10.0046922861       11.9793203535  W2        18236           0.0000000000
     54709     18237  TIP3      OH2            43.5615533595       -3.3860022861        4.0587203535  W2        18237           0.0000000000
     54710     18237  TIP3      H1             44.1537033595       -2.6865222861        4.3349603535  W2        18237           0.0000000000
     54711     18237  TIP3      H2             44.0208533595       -3.8190522861        3.3391803535  W2        18237           0.0000000000
     54712     18238  TIP3      OH2            41.8774733595      -10.7217022861        3.1746603535  W2        18238           0.0000000000
     54713     18238  TIP3      H1             41.8327333595       -9.7823922861        3.3533603535  W2        18238           0.0000000000
     54714     18238  TIP3      H2             40.9897933595      -10.9572122861        2.9048703535  W2        18238           0.0000000000
     54715     18239  TIP3      OH2            42.6856733595      -15.9400422861       11.8477603535  W2        18239           0.0000000000
     54716     18239  TIP3      H1             42.4566533595      -15.8807922861       10.9202603535  W2        18239           0.0000000000
     54717     18239  TIP3      H2             42.2430133595      -16.7314922861       12.1541703535  W2        18239           0.0000000000
     54718     18240  TIP3      OH2            41.6160033595       -1.9993322861        8.0083403535  W2        18240           0.0000000000
     54719     18240  TIP3      H1             40.7838633595       -1.5270622861        8.0354803535  W2        18240           0.0000000000
     54720     18240  TIP3      H2             42.1618333595       -1.4895722861        7.4096503535  W2        18240           0.0000000000
     54721     18241  TIP3      OH2            40.9043733595        0.6130377139       19.3381403535  W2        18241           0.0000000000
     54722     18241  TIP3      H1             41.4445933595        0.3964377139       20.0980603535  W2        18241           0.0000000000
     54723     18241  TIP3      H2             40.4231733595       -0.1923622861       19.1483903535  W2        18241           0.0000000000
     54724     18242  TIP3      OH2            45.5017133595       -0.4675222861       20.9585603535  W2        18242           0.0000000000
     54725     18242  TIP3      H1             46.2694333595       -0.9264422861       21.2994803535  W2        18242           0.0000000000
     54726     18242  TIP3      H2             45.4803333595       -0.6935422861       20.0286803535  W2        18242           0.0000000000
     54727     18243  TIP3      OH2            49.5936733595       -0.9594622861        2.3337403535  W2        18243           0.0000000000
     54728     18243  TIP3      H1             48.9497733595       -1.5906022861        2.6551103535  W2        18243           0.0000000000
     54729     18243  TIP3      H2             50.3555033595       -1.4906622861        2.1020903535  W2        18243           0.0000000000
     54730     18244  TIP3      OH2            52.0785833595       -2.0874122861       19.6877103535  W2        18244           0.0000000000
     54731     18244  TIP3      H1             51.7275333595       -2.9441122861       19.9307503535  W2        18244           0.0000000000
     54732     18244  TIP3      H2             52.8049033595       -1.9447422861       20.2946103535  W2        18244           0.0000000000
     54733     18245  TIP3      OH2            54.1979633595       -1.1424722861        2.5675403535  W2        18245           0.0000000000
     54734     18245  TIP3      H1             54.4810033595       -1.9369522861        3.0202303535  W2        18245           0.0000000000
     54735     18245  TIP3      H2             54.9377533595       -0.9093722861        2.0066503535  W2        18245           0.0000000000
     54736     18246  TIP3      OH2            40.8113233595       -5.5765522861       20.2925703535  W2        18246           0.0000000000
     54737     18246  TIP3      H1             40.9553733595       -6.4784822861       20.0062403535  W2        18246           0.0000000000
     54738     18246  TIP3      H2             40.0390633595       -5.2903422861       19.8048003535  W2        18246           0.0000000000
     54739     18247  TIP3      OH2            45.1526933595       -5.2329822861        2.4250303535  W2        18247           0.0000000000
     54740     18247  TIP3      H1             45.2171033595       -6.0270222861        2.9556703535  W2        18247           0.0000000000
     54741     18247  TIP3      H2             45.8056133595       -5.3517022861        1.7352303535  W2        18247           0.0000000000
     54742     18248  TIP3      OH2            47.4669333595       -5.6067422861       19.7252103535  W2        18248           0.0000000000
     54743     18248  TIP3      H1             47.1383133595       -5.3359322861       18.8679503535  W2        18248           0.0000000000
     54744     18248  TIP3      H2             47.6187533595       -6.5477622861       19.6377103535  W2        18248           0.0000000000
     54745     18249  TIP3      OH2            50.5050333595       -4.1858122861        2.1608303535  W2        18249           0.0000000000
     54746     18249  TIP3      H1             50.2364433595       -4.0056022861        3.0617203535  W2        18249           0.0000000000
     54747     18249  TIP3      H2             50.2985933595       -5.1111922861        2.0294103535  W2        18249           0.0000000000
     54748     18250  TIP3      OH2            53.2014533595       -5.6910122861       17.1084403535  W2        18250           0.0000000000
     54749     18250  TIP3      H1             53.9469333595       -5.1026422861       16.9888403535  W2        18250           0.0000000000
     54750     18250  TIP3      H2             52.4441333595       -5.1090422861       17.1717503535  W2        18250           0.0000000000
     54751     18251  TIP3      OH2            41.6439733595       -8.3762222861       19.7125003535  W2        18251           0.0000000000
     54752     18251  TIP3      H1             42.0520933595       -9.2335622861       19.5915603535  W2        18251           0.0000000000
     54753     18251  TIP3      H2             41.3837333595       -8.3620922861       20.6335303535  W2        18251           0.0000000000
     54754     18252  TIP3      OH2            46.3020733595       -7.2603622861        4.7308303535  W2        18252           0.0000000000
     54755     18252  TIP3      H1             45.8422733595       -7.7445322861        5.4166803535  W2        18252           0.0000000000
     54756     18252  TIP3      H2             46.5569433595       -7.9288222861        4.0948803535  W2        18252           0.0000000000
     54757     18253  TIP3      OH2            45.5910033595       -9.3676522861       17.0867903535  W2        18253           0.0000000000
     54758     18253  TIP3      H1             44.9726133595       -8.6929922861       17.3672603535  W2        18253           0.0000000000
     54759     18253  TIP3      H2             45.9351233595       -9.0462622861       16.2534103535  W2        18253           0.0000000000
     54760     18254  TIP3      OH2            47.3731133595       -9.0171822861        2.9931503535  W2        18254           0.0000000000
     54761     18254  TIP3      H1             47.1926133595       -9.1720622861        2.0659803535  W2        18254           0.0000000000
     54762     18254  TIP3      H2             48.3231633595       -8.9093122861        3.0379403535  W2        18254           0.0000000000
     54763     18255  TIP3      OH2            50.6108233595       -6.8961222861       20.3642703535  W2        18255           0.0000000000
     54764     18255  TIP3      H1             51.5639433595       -6.8122122861       20.3368703535  W2        18255           0.0000000000
     54765     18255  TIP3      H2             50.4502833595       -7.6079422861       20.9837603535  W2        18255           0.0000000000
     54766     18256  TIP3      OH2            45.9303733595      -12.0125722861       18.1691003535  W2        18256           0.0000000000
     54767     18256  TIP3      H1             46.0804633595      -12.7414422861       17.5670703535  W2        18256           0.0000000000
     54768     18256  TIP3      H2             45.9326133595      -11.2354022861       17.6103203535  W2        18256           0.0000000000
     54769     18257  TIP3      OH2            46.3429433595      -13.6429922861       15.6618403535  W2        18257           0.0000000000
     54770     18257  TIP3      H1             46.8786933595      -13.1913222861       15.0097703535  W2        18257           0.0000000000
     54771     18257  TIP3      H2             45.4909033595      -13.7510122861       15.2392503535  W2        18257           0.0000000000
     54772     18258  TIP3      OH2            47.9247833595       -8.2033722861       15.9013603535  W2        18258           0.0000000000
     54773     18258  TIP3      H1             48.6752633595       -8.3596222861       15.3281403535  W2        18258           0.0000000000
     54774     18258  TIP3      H2             47.5856133595       -7.3517122861       15.6259103535  W2        18258           0.0000000000
     54775     18259  TIP3      OH2            52.3404033595      -10.3881922861       20.9298903535  W2        18259           0.0000000000
     54776     18259  TIP3      H1             52.5325333595      -11.3192522861       20.8183403535  W2        18259           0.0000000000
     54777     18259  TIP3      H2             53.1980333595       -9.9632422861       20.9194303535  W2        18259           0.0000000000
     54778     18260  TIP3      OH2            53.6571233595       -7.5996722861       19.0071603535  W2        18260           0.0000000000
     54779     18260  TIP3      H1             53.3756233595       -6.8902122861       18.4295403535  W2        18260           0.0000000000
     54780     18260  TIP3      H2             54.5995533595       -7.6723722861       18.8562803535  W2        18260           0.0000000000
     54781     18261  TIP3      OH2            44.4090033595      -10.8142222861       20.0806603535  W2        18261           0.0000000000
     54782     18261  TIP3      H1             43.6419033595      -11.3467422861       19.8704203535  W2        18261           0.0000000000
     54783     18261  TIP3      H2             45.0879033595      -11.1241822861       19.4812903535  W2        18261           0.0000000000
     54784     18262  TIP3      OH2            47.1484933595      -16.1864222861       16.0932003535  W2        18262           0.0000000000
     54785     18262  TIP3      H1             47.0504533595      -15.2401022861       15.9878203535  W2        18262           0.0000000000
     54786     18262  TIP3      H2             46.4061133595      -16.5590422861       15.6175503535  W2        18262           0.0000000000
     54787     18263  TIP3      OH2            48.4125433595      -11.8648822861       19.6570403535  W2        18263           0.0000000000
     54788     18263  TIP3      H1             48.1770833595      -12.0842122861       20.5585303535  W2        18263           0.0000000000
     54789     18263  TIP3      H2             47.6292333595      -12.0717622861       19.1472903535  W2        18263           0.0000000000
     54790     18264  TIP3      OH2            51.1282033595      -12.7375322861       18.7323903535  W2        18264           0.0000000000
     54791     18264  TIP3      H1             50.1807433595      -12.7055622861       18.8647203535  W2        18264           0.0000000000
     54792     18264  TIP3      H2             51.4408733595      -13.3628222861       19.3862103535  W2        18264           0.0000000000
     54793     18265  TIP3      OH2            52.7623533595      -14.1034222861       20.7375803535  W2        18265           0.0000000000
     54794     18265  TIP3      H1             52.6655333595      -15.0556922861       20.7317703535  W2        18265           0.0000000000
     54795     18265  TIP3      H2             52.4406633595      -13.8347422861       21.5981303535  W2        18265           0.0000000000
     54796     18266  TIP3      OH2            42.5892833595      -12.8938422861       19.7851303535  W2        18266           0.0000000000
     54797     18266  TIP3      H1             42.8010233595      -13.6002322861       19.1748803535  W2        18266           0.0000000000
     54798     18266  TIP3      H2             42.4780333595      -13.3312422861       20.6292503535  W2        18266           0.0000000000
     54799     18267  TIP3      OH2            47.3703033595      -16.8926822861       18.7644803535  W2        18267           0.0000000000
     54800     18267  TIP3      H1             48.0821433595      -17.5324622861       18.7503903535  W2        18267           0.0000000000
     54801     18267  TIP3      H2             47.2693433595      -16.6258522861       17.8507903535  W2        18267           0.0000000000
     54802     18268  TIP3      OH2            47.7240533595      -15.2098422861       20.8181103535  W2        18268           0.0000000000
     54803     18268  TIP3      H1             47.5922733595      -15.6854622861       19.9979603535  W2        18268           0.0000000000
     54804     18268  TIP3      H2             47.1247933595      -14.4654822861       20.7628203535  W2        18268           0.0000000000
     54805     18269  TIP3      OH2            47.2702833595        1.6731877139        3.9945103535  W2        18269           0.0000000000
     54806     18269  TIP3      H1             48.2033533595        1.8310577139        4.1383503535  W2        18269           0.0000000000
     54807     18269  TIP3      H2             47.0061633595        2.3484877139        3.3696603535  W2        18269           0.0000000000
     54808     18270  TIP3      OH2            40.8387733595       -3.6904322861        3.4773203535  W2        18270           0.0000000000
     54809     18270  TIP3      H1             41.7526933595       -3.6115422861        3.7507103535  W2        18270           0.0000000000
     54810     18270  TIP3      H2             40.8460833595       -4.3774722861        2.8108803535  W2        18270           0.0000000000
     54811     18271  TIP3      OH2            39.4878333595        1.7024177139        8.5547103535  W2        18271           0.0000000000
     54812     18271  TIP3      H1             38.8405433595        1.2405877139        8.0218303535  W2        18271           0.0000000000
     54813     18271  TIP3      H2             39.8422933595        1.0307477139        9.1373303535  W2        18271           0.0000000000
     54814     18272  TIP3      OH2            40.3577533595       -0.2168822861       10.3593303535  W2        18272           0.0000000000
     54815     18272  TIP3      H1             40.0234333595       -1.0971522861       10.5313503535  W2        18272           0.0000000000
     54816     18272  TIP3      H2             40.5799933595        0.1286177139       11.2238903535  W2        18272           0.0000000000
     54817     18273  TIP3      OH2            40.4377033595       -7.1413422861       12.8108203535  W2        18273           0.0000000000
     54818     18273  TIP3      H1             40.6219933595       -7.2231722861       11.8751103535  W2        18273           0.0000000000
     54819     18273  TIP3      H2             41.2869933595       -7.2656422861       13.2344603535  W2        18273           0.0000000000
     54820     18274  TIP3      OH2            40.0351833595      -11.8708422861       18.9517003535  W2        18274           0.0000000000
     54821     18274  TIP3      H1             40.9546733595      -11.9930122861       19.1880103535  W2        18274           0.0000000000
     54822     18274  TIP3      H2             39.5856333595      -12.6208722861       19.3410503535  W2        18274           0.0000000000
     54823     18275  TIP3      OH2            41.2564333595      -13.5586822861       11.8429903535  W2        18275           0.0000000000
     54824     18275  TIP3      H1             41.7015933595      -14.3504322861       12.1449603535  W2        18275           0.0000000000
     54825     18275  TIP3      H2             41.7227333595      -12.8421622861       12.2735503535  W2        18275           0.0000000000
     54826     18276  TIP3      OH2            39.5604633595      -10.5593822861       12.9120103535  W2        18276           0.0000000000
     54827     18276  TIP3      H1             40.0524433595      -10.7803322861       12.1212103535  W2        18276           0.0000000000
     54828     18276  TIP3      H2             39.9225533595       -9.7190422861       13.1929603535  W2        18276           0.0000000000
     54829     18277  TIP3      OH2            39.8741133595      -14.3014722861        6.9662503535  W2        18277           0.0000000000
     54830     18277  TIP3      H1             38.9489533595      -14.0928122861        6.8368003535  W2        18277           0.0000000000
     54831     18277  TIP3      H2             40.3281033595      -13.8173922861        6.2764803535  W2        18277           0.0000000000
     54832     18278  TIP3      OH2            54.6448333595        0.6826977139        8.9119903535  W2        18278           0.0000000000
     54833     18278  TIP3      H1             55.2971233595        0.3349077139        8.3039003535  W2        18278           0.0000000000
     54834     18278  TIP3      H2             55.1552133595        1.1710177139        9.5579603535  W2        18278           0.0000000000
     54835     18279  TIP3      OH2            39.8376533595      -15.5635722861       15.3105003535  W2        18279           0.0000000000
     54836     18279  TIP3      H1             39.1727033595      -15.8095422861       15.9535903535  W2        18279           0.0000000000
     54837     18279  TIP3      H2             39.3947833595      -14.9415322861       14.7333003535  W2        18279           0.0000000000
     54838     18280  TIP3      OH2            42.0295833595       -2.3881622861       19.4550803535  W2        18280           0.0000000000
     54839     18280  TIP3      H1             41.2088333595       -2.2135122861       18.9945503535  W2        18280           0.0000000000
     54840     18280  TIP3      H2             41.7773633595       -2.4616922861       20.3755203535  W2        18280           0.0000000000
     54841     18281  TIP3      OH2            44.9838733595       -1.4140422861       15.7134803535  W2        18281           0.0000000000
     54842     18281  TIP3      H1             44.5589833595       -0.6041922861       15.4309403535  W2        18281           0.0000000000
     54843     18281  TIP3      H2             45.8881533595       -1.3286322861       15.4114603535  W2        18281           0.0000000000
     54844     18282  TIP3      OH2            49.2950133595       -0.0150422861       18.6728503535  W2        18282           0.0000000000
     54845     18282  TIP3      H1             49.4797633595       -0.3484322861       19.5508803535  W2        18282           0.0000000000
     54846     18282  TIP3      H2             50.1414633595        0.2948177139       18.3507703535  W2        18282           0.0000000000
     54847     18283  TIP3      OH2            51.6400533595        1.2708477139       17.9169903535  W2        18283           0.0000000000
     54848     18283  TIP3      H1             52.3169433595        0.6380777139       17.6769103535  W2        18283           0.0000000000
     54849     18283  TIP3      H2             51.9619333595        1.6718977139       18.7243203535  W2        18283           0.0000000000
     54850     18284  TIP3      OH2            42.3855433595        1.8423477139       15.7610103535  W2        18284           0.0000000000
     54851     18284  TIP3      H1             41.6651833595        2.2824477139       15.3097803535  W2        18284           0.0000000000
     54852     18284  TIP3      H2             42.0199433595        1.5918177139       16.6094103535  W2        18284           0.0000000000
     54853     18285  TIP3      OH2            44.8528033595        1.4427377139       14.7907303535  W2        18285           0.0000000000
     54854     18285  TIP3      H1             43.9880233595        1.5145877139       15.1947403535  W2        18285           0.0000000000
     54855     18285  TIP3      H2             44.7977033595        1.9894677139       14.0069803535  W2        18285           0.0000000000
     54856     18286  TIP3      OH2            49.5633633595        1.3306277139       13.9663303535  W2        18286           0.0000000000
     54857     18286  TIP3      H1             49.1067633595        1.8595977139       13.3121703535  W2        18286           0.0000000000
     54858     18286  TIP3      H2             49.7261633595        1.9337677139       14.6915603535  W2        18286           0.0000000000
     54859     18287  TIP3      OH2            51.8909933595        0.2085877139       14.9113603535  W2        18287           0.0000000000
     54860     18287  TIP3      H1             50.9863633595        0.3736077139       14.6455703535  W2        18287           0.0000000000
     54861     18287  TIP3      H2             52.3198533595        1.0618077139       14.8457003535  W2        18287           0.0000000000
     54862     18288  TIP3      OH2            54.4951833595        1.7784977139       15.2061403535  W2        18288           0.0000000000
     54863     18288  TIP3      H1             54.3133833595        2.6943877139       14.9956303535  W2        18288           0.0000000000
     54864     18288  TIP3      H2             54.6719633595        1.3682077139       14.3596003535  W2        18288           0.0000000000
     54865     18289  TIP3      OH2            41.8003533595        0.4655977139       12.6711903535  W2        18289           0.0000000000
     54866     18289  TIP3      H1             41.7819533595        0.0401077139       13.5284203535  W2        18289           0.0000000000
     54867     18289  TIP3      H2             42.6051433595        0.1470977139       12.2624103535  W2        18289           0.0000000000
     54868     18290  TIP3      OH2            43.9416633595       -0.8245322861       11.3261803535  W2        18290           0.0000000000
     54869     18290  TIP3      H1             43.7227333595       -1.7407922861       11.4957803535  W2        18290           0.0000000000
     54870     18290  TIP3      H2             44.7658833595       -0.6844922861       11.7923203535  W2        18290           0.0000000000
     54871     18291  TIP3      OH2            46.4789133595       -0.3546022861       12.1749803535  W2        18291           0.0000000000
     54872     18291  TIP3      H1             46.6914833595       -1.2427022861       11.8880703535  W2        18291           0.0000000000
     54873     18291  TIP3      H2             46.5434233595       -0.3888322861       13.1293803535  W2        18291           0.0000000000
     54874     18292  TIP3      OH2            49.9872833595      -14.6905422861       11.3193103535  W2        18292           0.0000000000
     54875     18292  TIP3      H1             49.3129633595      -15.3199822861       11.5748903535  W2        18292           0.0000000000
     54876     18292  TIP3      H2             50.5512033595      -15.1746522861       10.7161003535  W2        18292           0.0000000000
     54877     18293  TIP3      OH2            42.3140333595      -16.0565122861        9.1413003535  W2        18293           0.0000000000
     54878     18293  TIP3      H1             41.5370133595      -16.2910222861        8.6338903535  W2        18293           0.0000000000
     54879     18293  TIP3      H2             42.8443933595      -16.8533022861        9.1501003535  W2        18293           0.0000000000
     54880     18294  TIP3      OH2            41.1503733595      -16.2587022861        4.9449103535  W2        18294           0.0000000000
     54881     18294  TIP3      H1             41.5894433595      -15.6476522861        4.3532603535  W2        18294           0.0000000000
     54882     18294  TIP3      H2             40.5166133595      -15.7202922861        5.4189103535  W2        18294           0.0000000000
     54883     18295  TIP3      OH2            46.8932933595      -16.1298022861        8.9546103535  W2        18295           0.0000000000
     54884     18295  TIP3      H1             47.7676333595      -15.7413722861        8.9250403535  W2        18295           0.0000000000
     54885     18295  TIP3      H2             46.7573733595      -16.3450222861        9.8773303535  W2        18295           0.0000000000
     54886     18296  TIP3      OH2            52.4501333595      -16.0998222861       10.6037803535  W2        18296           0.0000000000
     54887     18296  TIP3      H1             52.5262933595      -16.0046622861        9.6543803535  W2        18296           0.0000000000
     54888     18296  TIP3      H2             52.1750533595      -17.0075322861       10.7326903535  W2        18296           0.0000000000
     54889     18297  TIP3      OH2            53.8033933595      -16.0740422861        6.2962803535  W2        18297           0.0000000000
     54890     18297  TIP3      H1             53.1005033595      -15.4591222861        6.0864203535  W2        18297           0.0000000000
     54891     18297  TIP3      H2             53.3585333595      -16.9113722861        6.4273703535  W2        18297           0.0000000000
     54892     18298  TIP3      OH2            41.0513233595       -0.3104822861        5.8424203535  W2        18298           0.0000000000
     54893     18298  TIP3      H1             40.3663133595       -0.3485922861        5.1749303535  W2        18298           0.0000000000
     54894     18298  TIP3      H2             41.0550433595        0.6022777139        6.1306303535  W2        18298           0.0000000000
     54895     18299  TIP3      OH2            43.0112833595      -14.3425522861        3.3873203535  W2        18299           0.0000000000
     54896     18299  TIP3      H1             43.5026233595      -14.9723122861        2.8598703535  W2        18299           0.0000000000
     54897     18299  TIP3      H2             43.6349133595      -14.0466122861        4.0504403535  W2        18299           0.0000000000
     54898     18300  TIP3      OH2            48.0372933595      -14.0494022861        5.8443703535  W2        18300           0.0000000000
     54899     18300  TIP3      H1             48.2154233595      -14.6960822861        6.5272303535  W2        18300           0.0000000000
     54900     18300  TIP3      H2             47.9839133595      -13.2156322861        6.3114803535  W2        18300           0.0000000000
     54901     18301  TIP3      OH2            49.9156733595        0.8990077139        4.2400403535  W2        18301           0.0000000000
     54902     18301  TIP3      H1             50.7816933595        1.2657477139        4.0618603535  W2        18301           0.0000000000
     54903     18301  TIP3      H2             49.6689533595        0.4598077139        3.4261203535  W2        18301           0.0000000000
     54904     18302  TIP3      OH2            42.2718333595      -15.5423222861       18.6589203535  W2        18302           0.0000000000
     54905     18302  TIP3      H1             41.9056533595      -16.3080622861       19.1013903535  W2        18302           0.0000000000
     54906     18302  TIP3      H2             43.1846833595      -15.5133022861       18.9454303535  W2        18302           0.0000000000
     54907     18303  TIP3      OH2            44.2449133595      -16.1918822861       20.1946303535  W2        18303           0.0000000000
     54908     18303  TIP3      H1             45.1432733595      -16.4658622861       20.0099703535  W2        18303           0.0000000000
     54909     18303  TIP3      H2             43.8582233595      -16.9342822861       20.6588903535  W2        18303           0.0000000000
     54910     18304  TIP3      OH2            42.8694433595        0.6095977139        2.8676303535  W2        18304           0.0000000000
     54911     18304  TIP3      H1             42.6019033595        0.8958877139        3.7409403535  W2        18304           0.0000000000
     54912     18304  TIP3      H2             43.6407033595        0.0635177139        3.0198803535  W2        18304           0.0000000000
     54913     18305  TIP3      OH2            52.6661433595      -16.8593522861       20.3769103535  W2        18305           0.0000000000
     54914     18305  TIP3      H1             52.7428633595      -17.2852822861       21.2306803535  W2        18305           0.0000000000
     54915     18305  TIP3      H2             53.5598033595      -16.8458822861       20.0342603535  W2        18305           0.0000000000
     54916     18306  TIP3      OH2           -42.8877066405       11.9557177139        9.1000503535  W2        18306           0.0000000000
     54917     18306  TIP3      H1            -42.7985966405       12.8995377139        8.9677603535  W2        18306           0.0000000000
     54918     18306  TIP3      H2            -43.5259466405       11.6803577139        8.4419903535  W2        18306           0.0000000000
     54919     18307  TIP3      OH2           -43.9545766405       11.2107877139       12.5188703535  W2        18307           0.0000000000
     54920     18307  TIP3      H1            -43.9928266405       10.5644177139       13.2238303535  W2        18307           0.0000000000
     54921     18307  TIP3      H2            -44.2769266405       10.7442277139       11.7477403535  W2        18307           0.0000000000
     54922     18308  TIP3      OH2           -51.5860766405       10.8249977139       14.1118603535  W2        18308           0.0000000000
     54923     18308  TIP3      H1            -51.5448666405       10.1993277139       14.8351003535  W2        18308           0.0000000000
     54924     18308  TIP3      H2            -50.8833066405       11.4488577139       14.2939003535  W2        18308           0.0000000000
     54925     18309  TIP3      OH2           -40.2485566405       14.1498277139       10.8203803535  W2        18309           0.0000000000
     54926     18309  TIP3      H1            -40.6892866405       13.4294277139       11.2709403535  W2        18309           0.0000000000
     54927     18309  TIP3      H2            -40.2615866405       14.8705477139       11.4501503535  W2        18309           0.0000000000
     54928     18310  TIP3      OH2           -50.6627666405       15.2748877139       12.6467703535  W2        18310           0.0000000000
     54929     18310  TIP3      H1            -51.0322466405       14.4729377139       12.2772003535  W2        18310           0.0000000000
     54930     18310  TIP3      H2            -49.7216566405       15.1063777139       12.6931103535  W2        18310           0.0000000000
     54931     18311  TIP3      OH2           -54.0527166405        8.9351477139        8.0396503535  W2        18311           0.0000000000
     54932     18311  TIP3      H1            -54.5003766405        9.7810177139        8.0213003535  W2        18311           0.0000000000
     54933     18311  TIP3      H2            -54.6135966405        8.3555677139        7.5241603535  W2        18311           0.0000000000
     54934     18312  TIP3      OH2           -53.3421066405       11.0971077139       10.1654503535  W2        18312           0.0000000000
     54935     18312  TIP3      H1            -53.1287566405       10.3272677139       10.6927503535  W2        18312           0.0000000000
     54936     18312  TIP3      H2            -52.6043466405       11.1867777139        9.5622103535  W2        18312           0.0000000000
     54937     18313  TIP3      OH2           -43.1370066405       19.2539977139       11.0324203535  W2        18313           0.0000000000
     54938     18313  TIP3      H1            -42.5173666405       18.5774677139       10.7593403535  W2        18313           0.0000000000
     54939     18313  TIP3      H2            -43.3452666405       19.0360777139       11.9409103535  W2        18313           0.0000000000
     54940     18314  TIP3      OH2           -45.5651366405       13.6429277139       12.9249703535  W2        18314           0.0000000000
     54941     18314  TIP3      H1            -45.2613466405       12.9570677139       12.3303803535  W2        18314           0.0000000000
     54942     18314  TIP3      H2            -44.8437366405       13.7617977139       13.5427703535  W2        18314           0.0000000000
     54943     18315  TIP3      OH2           -36.9021566405        5.2444577139       13.7855903535  W2        18315           0.0000000000
     54944     18315  TIP3      H1            -36.8529366405        5.8545777139       14.5215003535  W2        18315           0.0000000000
     54945     18315  TIP3      H2            -36.4766466405        5.7055477139       13.0627003535  W2        18315           0.0000000000
     54946     18316  TIP3      OH2           -42.4244366405        8.0371677139       13.2524503535  W2        18316           0.0000000000
     54947     18316  TIP3      H1            -42.2818466405        7.0908677139       13.2726103535  W2        18316           0.0000000000
     54948     18316  TIP3      H2            -42.5305366405        8.2441477139       12.3239403535  W2        18316           0.0000000000
     54949     18317  TIP3      OH2           -49.2696066405        6.1388077139       10.5249303535  W2        18317           0.0000000000
     54950     18317  TIP3      H1            -49.2264966405        6.9986577139       10.1065603535  W2        18317           0.0000000000
     54951     18317  TIP3      H2            -49.7271966405        5.5862777139        9.8912503535  W2        18317           0.0000000000
     54952     18318  TIP3      OH2           -41.5473366405        6.2693677139        8.9257603535  W2        18318           0.0000000000
     54953     18318  TIP3      H1            -40.9009066405        5.9406877139        9.5505203535  W2        18318           0.0000000000
     54954     18318  TIP3      H2            -41.0373966405        6.7872677139        8.3029003535  W2        18318           0.0000000000
     54955     18319  TIP3      OH2           -52.6494566405        8.5353877139       11.2870703535  W2        18319           0.0000000000
     54956     18319  TIP3      H1            -51.9957966405        7.9855577139       11.7190803535  W2        18319           0.0000000000
     54957     18319  TIP3      H2            -52.6255266405        8.2612877139       10.3702703535  W2        18319           0.0000000000
     54958     18320  TIP3      OH2           -47.4930066405       10.0855177139       10.5022203535  W2        18320           0.0000000000
     54959     18320  TIP3      H1            -46.8769066405        9.5590577139       11.0116203535  W2        18320           0.0000000000
     54960     18320  TIP3      H2            -48.0791266405        9.4453877139       10.0985803535  W2        18320           0.0000000000
     54961     18321  TIP3      OH2           -36.5106966405        6.7223777139       16.0215703535  W2        18321           0.0000000000
     54962     18321  TIP3      H1            -37.1992366405        7.3804477139       15.9262303535  W2        18321           0.0000000000
     54963     18321  TIP3      H2            -36.4952366405        6.5251677139       16.9581103535  W2        18321           0.0000000000
     54964     18322  TIP3      OH2           -50.4594166405        5.0566477139       14.5990103535  W2        18322           0.0000000000
     54965     18322  TIP3      H1            -50.6782466405        5.5867077139       13.8326103535  W2        18322           0.0000000000
     54966     18322  TIP3      H2            -51.1273266405        5.2831977139       15.2461503535  W2        18322           0.0000000000
     54967     18323  TIP3      OH2           -43.0904366405       14.5567577139        8.1429203535  W2        18323           0.0000000000
     54968     18323  TIP3      H1            -43.3859266405       14.2339877139        7.2916103535  W2        18323           0.0000000000
     54969     18323  TIP3      H2            -43.4146566405       15.4564277139        8.1841803535  W2        18323           0.0000000000
     54970     18324  TIP3      OH2           -47.8902766405       12.7322177139       14.8863803535  W2        18324           0.0000000000
     54971     18324  TIP3      H1            -48.6303666405       13.3303677139       14.9899003535  W2        18324           0.0000000000
     54972     18324  TIP3      H2            -47.1763266405       13.2861777139       14.5707403535  W2        18324           0.0000000000
     54973     18325  TIP3      OH2           -39.7834966405        5.5602977139       10.9063503535  W2        18325           0.0000000000
     54974     18325  TIP3      H1            -39.9986966405        4.7946377139       11.4389503535  W2        18325           0.0000000000
     54975     18325  TIP3      H2            -39.1277566405        6.0327577139       11.4192003535  W2        18325           0.0000000000
     54976     18326  TIP3      OH2           -50.8656866405        6.9488277139       12.5512303535  W2        18326           0.0000000000
     54977     18326  TIP3      H1            -50.2520566405        7.5815877139       12.9244703535  W2        18326           0.0000000000
     54978     18326  TIP3      H2            -50.3536166405        6.4763277139       11.8949203535  W2        18326           0.0000000000
     54979     18327  TIP3      OH2           -49.4828466405       14.6965177139       15.6735303535  W2        18327           0.0000000000
     54980     18327  TIP3      H1            -49.4880866405       15.5758677139       15.2954603535  W2        18327           0.0000000000
     54981     18327  TIP3      H2            -50.3364366405       14.6129277139       16.0985203535  W2        18327           0.0000000000
     54982     18328  TIP3      OH2           -53.3617566405       14.3673077139        6.4554603535  W2        18328           0.0000000000
     54983     18328  TIP3      H1            -53.6336666405       14.5964077139        5.5667503535  W2        18328           0.0000000000
     54984     18328  TIP3      H2            -53.3161866405       15.2051877139        6.9159903535  W2        18328           0.0000000000
     54985     18329  TIP3      OH2           -39.7367866405       15.9888977139       13.1683103535  W2        18329           0.0000000000
     54986     18329  TIP3      H1            -40.6784166405       16.0472877139       13.3300003535  W2        18329           0.0000000000
     54987     18329  TIP3      H2            -39.4601766405       16.8949477139       13.0312803535  W2        18329           0.0000000000
     54988     18330  TIP3      OH2           -39.4360866405        4.2754277139       14.5857003535  W2        18330           0.0000000000
     54989     18330  TIP3      H1            -40.1721666405        4.8861377139       14.5478303535  W2        18330           0.0000000000
     54990     18330  TIP3      H2            -38.7526866405        4.6903277139       14.0593403535  W2        18330           0.0000000000
     54991     18331  TIP3      OH2           -46.4329466405        2.3621577139       12.0515003535  W2        18331           0.0000000000
     54992     18331  TIP3      H1            -46.5505266405        1.4137577139       11.9973303535  W2        18331           0.0000000000
     54993     18331  TIP3      H2            -47.2879366405        2.6947677139       12.3246103535  W2        18331           0.0000000000
     54994     18332  TIP3      OH2           -41.4846666405       17.7702477139        9.7934703535  W2        18332           0.0000000000
     54995     18332  TIP3      H1            -41.0594366405       17.0630377139        9.3084303535  W2        18332           0.0000000000
     54996     18332  TIP3      H2            -41.1676666405       18.5715177139        9.3766903535  W2        18332           0.0000000000
     54997     18333  TIP3      OH2           -40.3250166405       15.6710977139        8.3021303535  W2        18333           0.0000000000
     54998     18333  TIP3      H1            -40.5825366405       14.9811077139        7.6907203535  W2        18333           0.0000000000
     54999     18333  TIP3      H2            -40.2539366405       15.2282177139        9.1477203535  W2        18333           0.0000000000
     55000     18334  TIP3      OH2           -38.6389966405       14.2377677139       16.7794803535  W2        18334           0.0000000000
     55001     18334  TIP3      H1            -38.4993666405       13.6460177139       16.0401803535  W2        18334           0.0000000000
     55002     18334  TIP3      H2            -38.4717166405       15.1103577139       16.4233603535  W2        18334           0.0000000000
     55003     18335  TIP3      OH2           -44.1664566405       11.1997177139        6.5520803535  W2        18335           0.0000000000
     55004     18335  TIP3      H1            -44.8779066405       11.7346877139        6.2001303535  W2        18335           0.0000000000
     55005     18335  TIP3      H2            -43.4754966405       11.2549277139        5.8919703535  W2        18335           0.0000000000
     55006     18336  TIP3      OH2           -44.1125366405        9.6571477139        3.5905803535  W2        18336           0.0000000000
     55007     18336  TIP3      H1            -43.4115466405        9.6798377139        4.2419803535  W2        18336           0.0000000000
     55008     18336  TIP3      H2            -43.8102466405        9.0291177139        2.9345103535  W2        18336           0.0000000000
     55009     18337  TIP3      OH2           -36.7970666405       10.5775677139       14.8455203535  W2        18337           0.0000000000
     55010     18337  TIP3      H1            -37.4496566405       11.2721277139       14.9346103535  W2        18337           0.0000000000
     55011     18337  TIP3      H2            -36.3320366405       10.7876577139       14.0356803535  W2        18337           0.0000000000
     55012     18338  TIP3      OH2           -40.7606866405       11.4090477139        7.5036703535  W2        18338           0.0000000000
     55013     18338  TIP3      H1            -41.4925866405       11.6374177139        8.0767303535  W2        18338           0.0000000000
     55014     18338  TIP3      H2            -40.3134666405       10.6953177139        7.9584203535  W2        18338           0.0000000000
     55015     18339  TIP3      OH2           -40.8633366405        9.5833077139       16.5713703535  W2        18339           0.0000000000
     55016     18339  TIP3      H1            -40.7834266405       10.3467477139       17.1432203535  W2        18339           0.0000000000
     55017     18339  TIP3      H2            -41.4645666405        9.8625477139       15.8808803535  W2        18339           0.0000000000
     55018     18340  TIP3      OH2           -49.1153166405       12.0396677139        9.3861703535  W2        18340           0.0000000000
     55019     18340  TIP3      H1            -49.4457966405       11.6690077139        8.5678703535  W2        18340           0.0000000000
     55020     18340  TIP3      H2            -48.5269066405       11.3690677139        9.7330003535  W2        18340           0.0000000000
     55021     18341  TIP3      OH2           -47.7485666405       15.4677277139       12.0673903535  W2        18341           0.0000000000
     55022     18341  TIP3      H1            -47.8434366405       14.8890377139       11.3108503535  W2        18341           0.0000000000
     55023     18341  TIP3      H2            -47.0192066405       15.0962977139       12.5636703535  W2        18341           0.0000000000
     55024     18342  TIP3      OH2           -48.7487666405       10.8082277139       13.0196703535  W2        18342           0.0000000000
     55025     18342  TIP3      H1            -48.1835166405       10.9296477139       12.2567903535  W2        18342           0.0000000000
     55026     18342  TIP3      H2            -48.4298766405       11.4457277139       13.6585203535  W2        18342           0.0000000000
     55027     18343  TIP3      OH2           -42.4395466405       16.3114177139       13.7537203535  W2        18343           0.0000000000
     55028     18343  TIP3      H1            -42.6798866405       16.9737277139       14.4016403535  W2        18343           0.0000000000
     55029     18343  TIP3      H2            -42.6377266405       15.4769377139       14.1786803535  W2        18343           0.0000000000
     55030     18344  TIP3      OH2           -47.8686966405       15.2074977139       17.7368603535  W2        18344           0.0000000000
     55031     18344  TIP3      H1            -48.1799466405       15.9898177139       18.1921803535  W2        18344           0.0000000000
     55032     18344  TIP3      H2            -48.5186766405       15.0544077139       17.0510603535  W2        18344           0.0000000000
     55033     18345  TIP3      OH2           -41.8897366405       10.5713377139        5.1887903535  W2        18345           0.0000000000
     55034     18345  TIP3      H1            -41.3101866405       10.7213677139        5.9356803535  W2        18345           0.0000000000
     55035     18345  TIP3      H2            -41.4757366405       11.0420777139        4.4654303535  W2        18345           0.0000000000
     55036     18346  TIP3      OH2           -50.9487066405       11.4056077139       16.9654303535  W2        18346           0.0000000000
     55037     18346  TIP3      H1            -50.8783866405       12.0562877139       17.6639303535  W2        18346           0.0000000000
     55038     18346  TIP3      H2            -51.8394866405       11.5083577139       16.6305203535  W2        18346           0.0000000000
     55039     18347  TIP3      OH2           -44.1632466405       17.3081877139        8.6241003535  W2        18347           0.0000000000
     55040     18347  TIP3      H1            -43.6894866405       17.6038177139        9.4015203535  W2        18347           0.0000000000
     55041     18347  TIP3      H2            -44.7263166405       18.0463477139        8.3910603535  W2        18347           0.0000000000
     55042     18348  TIP3      OH2           -49.6291066405       17.2789977139       18.5002403535  W2        18348           0.0000000000
     55043     18348  TIP3      H1            -49.6215766405       17.1429677139       17.5527903535  W2        18348           0.0000000000
     55044     18348  TIP3      H2            -50.5450666405       17.1618077139       18.7522403535  W2        18348           0.0000000000
     55045     18349  TIP3      OH2           -38.1908966405        2.3213777139        5.0017603535  W2        18349           0.0000000000
     55046     18349  TIP3      H1            -39.0908266405        2.4602777139        5.2968203535  W2        18349           0.0000000000
     55047     18349  TIP3      H2            -37.9390566405        3.1528377139        4.5999303535  W2        18349           0.0000000000
     55048     18350  TIP3      OH2           -50.1250466405       11.1090977139        6.9754503535  W2        18350           0.0000000000
     55049     18350  TIP3      H1            -50.4169166405       11.8772677139        6.4845803535  W2        18350           0.0000000000
     55050     18350  TIP3      H2            -50.7995266405       10.4497177139        6.8125903535  W2        18350           0.0000000000
     55051     18351  TIP3      OH2           -37.0017566405       16.6876177139        3.3781503535  W2        18351           0.0000000000
     55052     18351  TIP3      H1            -36.9284066405       17.6266377139        3.5486803535  W2        18351           0.0000000000
     55053     18351  TIP3      H2            -36.0962466405       16.3824777139        3.3218803535  W2        18351           0.0000000000
     55054     18352  TIP3      OH2           -54.0320366405       13.4720177139       15.7904303535  W2        18352           0.0000000000
     55055     18352  TIP3      H1            -54.5331966405       13.4439577139       14.9754003535  W2        18352           0.0000000000
     55056     18352  TIP3      H2            -54.0266666405       12.5663377139       16.1001603535  W2        18352           0.0000000000
     55057     18353  TIP3      OH2           -54.2817666405       16.2523977139       12.6744503535  W2        18353           0.0000000000
     55058     18353  TIP3      H1            -53.3357066405       16.1080977139       12.6554003535  W2        18353           0.0000000000
     55059     18353  TIP3      H2            -54.3941366405       17.0366777139       13.2115703535  W2        18353           0.0000000000
     55060     18354  TIP3      OH2           -36.0839166405       16.9183677139       18.3568203535  W2        18354           0.0000000000
     55061     18354  TIP3      H1            -36.1332366405       15.9631777139       18.3195803535  W2        18354           0.0000000000
     55062     18354  TIP3      H2            -36.9106866405       17.1858977139       18.7582003535  W2        18354           0.0000000000
     55063     18355  TIP3      OH2           -45.1055166405       16.4922877139       17.2329603535  W2        18355           0.0000000000
     55064     18355  TIP3      H1            -45.0180566405       17.3187477139       17.7078703535  W2        18355           0.0000000000
     55065     18355  TIP3      H2            -45.9690066405       16.1626677139       17.4818903535  W2        18355           0.0000000000
     55066     18356  TIP3      OH2           -44.6909366405       20.2646577139        7.0390203535  W2        18356           0.0000000000
     55067     18356  TIP3      H1            -44.7663366405       20.1433777139        6.0925403535  W2        18356           0.0000000000
     55068     18356  TIP3      H2            -44.6580666405       21.2139277139        7.1574803535  W2        18356           0.0000000000
     55069     18357  TIP3      OH2           -51.0375566405       19.0533577139        8.8199203535  W2        18357           0.0000000000
     55070     18357  TIP3      H1            -50.8855166405       18.7053977139        9.6985703535  W2        18357           0.0000000000
     55071     18357  TIP3      H2            -51.8885166405       18.6970877139        8.5646403535  W2        18357           0.0000000000
     55072     18358  TIP3      OH2           -41.5893366405       19.4186777139        4.0412603535  W2        18358           0.0000000000
     55073     18358  TIP3      H1            -41.2144966405       18.6742877139        3.5705203535  W2        18358           0.0000000000
     55074     18358  TIP3      H2            -41.5849666405       19.1487377139        4.9595903535  W2        18358           0.0000000000
     55075     18359  TIP3      OH2           -41.9205266405       19.3443877139        6.7904803535  W2        18359           0.0000000000
     55076     18359  TIP3      H1            -42.8555466405       19.4445777139        6.9691803535  W2        18359           0.0000000000
     55077     18359  TIP3      H2            -41.6403366405       18.6349877139        7.3688003535  W2        18359           0.0000000000
     55078     18360  TIP3      OH2           -38.9319366405        8.4116177139       18.8370403535  W2        18360           0.0000000000
     55079     18360  TIP3      H1            -39.3392566405        8.8921777139       18.1163703535  W2        18360           0.0000000000
     55080     18360  TIP3      H2            -38.8913666405        7.5062177139       18.5291203535  W2        18360           0.0000000000
     55081     18361  TIP3      OH2           -51.7829866405       14.7955577139       16.8337103535  W2        18361           0.0000000000
     55082     18361  TIP3      H1            -51.5668566405       14.4341177139       17.6932903535  W2        18361           0.0000000000
     55083     18361  TIP3      H2            -52.6385166405       14.4209377139       16.6240603535  W2        18361           0.0000000000
     55084     18362  TIP3      OH2           -49.1641866405        3.2656077139       12.8291303535  W2        18362           0.0000000000
     55085     18362  TIP3      H1            -50.0258166405        3.1784277139       12.4214203535  W2        18362           0.0000000000
     55086     18362  TIP3      H2            -49.1866166405        4.1216177139       13.2568903535  W2        18362           0.0000000000
     55087     18363  TIP3      OH2           -44.5014066405        2.9876477139       16.2038303535  W2        18363           0.0000000000
     55088     18363  TIP3      H1            -44.0810966405        2.5723577139       16.9568903535  W2        18363           0.0000000000
     55089     18363  TIP3      H2            -45.4344466405        2.8089777139       16.3210303535  W2        18363           0.0000000000
     55090     18364  TIP3      OH2           -41.1749166405        6.7431677139       17.0572803535  W2        18364           0.0000000000
     55091     18364  TIP3      H1            -41.6889666405        6.6173877139       17.8548803535  W2        18364           0.0000000000
     55092     18364  TIP3      H2            -41.3304466405        7.6554777139       16.8129003535  W2        18364           0.0000000000
     55093     18365  TIP3      OH2           -40.4124266405       11.6041677139        2.8185803535  W2        18365           0.0000000000
     55094     18365  TIP3      H1            -40.3703466405       11.3815577139        1.8885803535  W2        18365           0.0000000000
     55095     18365  TIP3      H2            -39.5632166405       12.0028777139        3.0085703535  W2        18365           0.0000000000
     55096     18366  TIP3      OH2           -44.8396766405        5.4799877139        3.4889103535  W2        18366           0.0000000000
     55097     18366  TIP3      H1            -45.0931966405        5.4991477139        4.4117203535  W2        18366           0.0000000000
     55098     18366  TIP3      H2            -45.0964666405        4.6085277139        3.1875303535  W2        18366           0.0000000000
     55099     18367  TIP3      OH2           -49.0731766405        8.2310577139       13.9241503535  W2        18367           0.0000000000
     55100     18367  TIP3      H1            -49.7149666405        8.1907877139       14.6331603535  W2        18367           0.0000000000
     55101     18367  TIP3      H2            -49.0359766405        9.1575277139       13.6864503535  W2        18367           0.0000000000
     55102     18368  TIP3      OH2           -49.0762666405        8.4520677139        8.8361503535  W2        18368           0.0000000000
     55103     18368  TIP3      H1            -49.9689766405        8.1116777139        8.7775303535  W2        18368           0.0000000000
     55104     18368  TIP3      H2            -48.6256066405        8.0751577139        8.0804703535  W2        18368           0.0000000000
     55105     18369  TIP3      OH2           -43.5407166405        8.8680977139        7.6532303535  W2        18369           0.0000000000
     55106     18369  TIP3      H1            -43.9496866405        9.6829577139        7.3617103535  W2        18369           0.0000000000
     55107     18369  TIP3      H2            -42.8200966405        8.7281077139        7.0389403535  W2        18369           0.0000000000
     55108     18370  TIP3      OH2           -44.4385566405        9.0437377139       19.1413003535  W2        18370           0.0000000000
     55109     18370  TIP3      H1            -45.0011766405        8.3388977139       19.4620803535  W2        18370           0.0000000000
     55110     18370  TIP3      H2            -43.6122166405        8.9229277139       19.6090603535  W2        18370           0.0000000000
     55111     18371  TIP3      OH2           -42.5359466405        8.3141377139       10.4672003535  W2        18371           0.0000000000
     55112     18371  TIP3      H1            -42.7314966405        8.9198177139        9.7522603535  W2        18371           0.0000000000
     55113     18371  TIP3      H2            -42.3546866405        7.4806577139       10.0328303535  W2        18371           0.0000000000
     55114     18372  TIP3      OH2           -51.3231266405        8.5514077139       15.7913503535  W2        18372           0.0000000000
     55115     18372  TIP3      H1            -51.3611866405        8.9515677139       16.6600603535  W2        18372           0.0000000000
     55116     18372  TIP3      H2            -51.8140166405        7.7346477139       15.8816403535  W2        18372           0.0000000000
     55117     18373  TIP3      OH2           -47.9573866405        5.9256377139        2.5899503535  W2        18373           0.0000000000
     55118     18373  TIP3      H1            -48.3883166405        5.4806477139        3.3196903535  W2        18373           0.0000000000
     55119     18373  TIP3      H2            -48.6755166405        6.2972677139        2.0777003535  W2        18373           0.0000000000
     55120     18374  TIP3      OH2           -54.7150466405        5.6675877139        9.6418203535  W2        18374           0.0000000000
     55121     18374  TIP3      H1            -54.0842766405        5.6387977139       10.3612103535  W2        18374           0.0000000000
     55122     18374  TIP3      H2            -54.2656166405        5.2424577139        8.9114103535  W2        18374           0.0000000000
     55123     18375  TIP3      OH2           -53.4408366405        6.4137877139        5.0658603535  W2        18375           0.0000000000
     55124     18375  TIP3      H1            -52.9666666405        7.0047777139        4.4809503535  W2        18375           0.0000000000
     55125     18375  TIP3      H2            -54.1581966405        6.9440777139        5.4128703535  W2        18375           0.0000000000
     55126     18376  TIP3      OH2           -43.2720266405        9.9522677139       15.1384403535  W2        18376           0.0000000000
     55127     18376  TIP3      H1            -42.9485466405        9.3212377139       14.4954903535  W2        18376           0.0000000000
     55128     18376  TIP3      H2            -43.7120966405        9.4174877139       15.7991803535  W2        18376           0.0000000000
     55129     18377  TIP3      OH2           -46.4947366405        5.8798177139        9.9225603535  W2        18377           0.0000000000
     55130     18377  TIP3      H1            -47.4056266405        5.9364977139       10.2111603535  W2        18377           0.0000000000
     55131     18377  TIP3      H2            -45.9894466405        5.8193677139       10.7332803535  W2        18377           0.0000000000
     55132     18378  TIP3      OH2           -51.6663966405        7.5084477139        8.7493203535  W2        18378           0.0000000000
     55133     18378  TIP3      H1            -52.5555966405        7.6079977139        8.4092803535  W2        18378           0.0000000000
     55134     18378  TIP3      H2            -51.3699066405        6.6667477139        8.4031103535  W2        18378           0.0000000000
     55135     18379  TIP3      OH2           -48.0132166405        7.5087077139        6.4057803535  W2        18379           0.0000000000
     55136     18379  TIP3      H1            -47.0816666405        7.6377077139        6.5840903535  W2        18379           0.0000000000
     55137     18379  TIP3      H2            -48.2281866405        8.1781377139        5.7562503535  W2        18379           0.0000000000
     55138     18380  TIP3      OH2           -42.0895466405        5.1144477139       13.1867403535  W2        18380           0.0000000000
     55139     18380  TIP3      H1            -42.7663866405        5.2457577139       13.8507103535  W2        18380           0.0000000000
     55140     18380  TIP3      H2            -42.5750566405        4.9593977139       12.3765103535  W2        18380           0.0000000000
     55141     18381  TIP3      OH2           -49.3391966405        8.7029277139        3.9723903535  W2        18381           0.0000000000
     55142     18381  TIP3      H1            -49.8816866405        8.3233077139        3.2811503535  W2        18381           0.0000000000
     55143     18381  TIP3      H2            -48.5057066405        8.8973977139        3.5438003535  W2        18381           0.0000000000
     55144     18382  TIP3      OH2           -38.8020366405       20.7859877139       19.4635003535  W2        18382           0.0000000000
     55145     18382  TIP3      H1            -38.6021666405       21.2101777139       18.6290303535  W2        18382           0.0000000000
     55146     18382  TIP3      H2            -38.1466666405       21.1298077139       20.0705403535  W2        18382           0.0000000000
     55147     18383  TIP3      OH2           -51.2040566405       13.2601177139       19.0715503535  W2        18383           0.0000000000
     55148     18383  TIP3      H1            -50.4718166405       13.5147077139       19.6330003535  W2        18383           0.0000000000
     55149     18383  TIP3      H2            -51.9841866405       13.4646577139       19.5870903535  W2        18383           0.0000000000
     55150     18384  TIP3      OH2           -45.1747666405        8.6671177139       11.8095203535  W2        18384           0.0000000000
     55151     18384  TIP3      H1            -44.6104266405        8.1207777139       11.2624803535  W2        18384           0.0000000000
     55152     18384  TIP3      H2            -45.3224266405        8.1453077139       12.5982803535  W2        18384           0.0000000000
     55153     18385  TIP3      OH2           -50.1727966405        4.8037277139        8.2280003535  W2        18385           0.0000000000
     55154     18385  TIP3      H1            -50.4898466405        3.9012577139        8.1925403535  W2        18385           0.0000000000
     55155     18385  TIP3      H2            -49.3913866405        4.8054677139        7.6751603535  W2        18385           0.0000000000
     55156     18386  TIP3      OH2           -46.5481766405        7.0557277139       14.2235603535  W2        18386           0.0000000000
     55157     18386  TIP3      H1            -47.3836466405        7.5096777139       14.3338003535  W2        18386           0.0000000000
     55158     18386  TIP3      H2            -46.0241166405        7.3315777139       14.9755503535  W2        18386           0.0000000000
     55159     18387  TIP3      OH2           -46.0039166405       13.2684977139        5.9082003535  W2        18387           0.0000000000
     55160     18387  TIP3      H1            -46.7488166405       12.7610277139        5.5859903535  W2        18387           0.0000000000
     55161     18387  TIP3      H2            -46.1381966405       13.3172977139        6.8546803535  W2        18387           0.0000000000
     55162     18388  TIP3      OH2           -38.8540266405       12.4013177139       14.6949603535  W2        18388           0.0000000000
     55163     18388  TIP3      H1            -38.2121466405       12.8579477139       14.1511803535  W2        18388           0.0000000000
     55164     18388  TIP3      H2            -39.6843366405       12.5145577139       14.2323703535  W2        18388           0.0000000000
     55165     18389  TIP3      OH2           -42.1062366405        6.0824877139        4.1074603535  W2        18389           0.0000000000
     55166     18389  TIP3      H1            -43.0448166405        6.1940477139        3.9563403535  W2        18389           0.0000000000
     55167     18389  TIP3      H2            -41.8090266405        6.9391777139        4.4140303535  W2        18389           0.0000000000
     55168     18390  TIP3      OH2           -44.4847066405       13.4528277139       17.1451103535  W2        18390           0.0000000000
     55169     18390  TIP3      H1            -44.8300966405       13.0710677139       17.9520703535  W2        18390           0.0000000000
     55170     18390  TIP3      H2            -44.6846966405       14.3861877139       17.2164003535  W2        18390           0.0000000000
     55171     18391  TIP3      OH2           -41.3878866405        7.9497577139        5.7682003535  W2        18391           0.0000000000
     55172     18391  TIP3      H1            -40.4959866405        7.8122577139        6.0873203535  W2        18391           0.0000000000
     55173     18391  TIP3      H2            -41.3315266405        8.7403677139        5.2315503535  W2        18391           0.0000000000
     55174     18392  TIP3      OH2           -50.8790866405       12.5634977139       11.6779903535  W2        18392           0.0000000000
     55175     18392  TIP3      H1            -50.1343666405       12.5610677139       11.0766403535  W2        18392           0.0000000000
     55176     18392  TIP3      H2            -50.8014266405       11.7398777139       12.1595003535  W2        18392           0.0000000000
     55177     18393  TIP3      OH2           -43.8785066405       14.7269277139        4.9336603535  W2        18393           0.0000000000
     55178     18393  TIP3      H1            -44.1736666405       15.5537177139        5.3151403535  W2        18393           0.0000000000
     55179     18393  TIP3      H2            -44.5815066405       14.1076177139        5.1298003535  W2        18393           0.0000000000
     55180     18394  TIP3      OH2           -53.8711166405       11.0241877139       16.9928403535  W2        18394           0.0000000000
     55181     18394  TIP3      H1            -53.6482566405       10.6061477139       17.8245903535  W2        18394           0.0000000000
     55182     18394  TIP3      H2            -54.4731066405       10.4116877139       16.5701203535  W2        18394           0.0000000000
     55183     18395  TIP3      OH2           -46.8546266405       10.5411777139       19.2058103535  W2        18395           0.0000000000
     55184     18395  TIP3      H1            -47.1505466405       10.3754777139       18.3107203535  W2        18395           0.0000000000
     55185     18395  TIP3      H2            -45.9231066405       10.3212077139       19.1952003535  W2        18395           0.0000000000
     55186     18396  TIP3      OH2           -42.2343466405       15.9143777139       17.0956103535  W2        18396           0.0000000000
     55187     18396  TIP3      H1            -43.1349166405       16.0976377139       16.8280003535  W2        18396           0.0000000000
     55188     18396  TIP3      H2            -42.2002366405       16.1733077139       18.0164903535  W2        18396           0.0000000000
     55189     18397  TIP3      OH2           -36.5030166405        8.1591677139        5.4628703535  W2        18397           0.0000000000
     55190     18397  TIP3      H1            -37.0573866405        7.7629677139        4.7906203535  W2        18397           0.0000000000
     55191     18397  TIP3      H2            -36.4026566405        9.0696877139        5.1852003535  W2        18397           0.0000000000
     55192     18398  TIP3      OH2           -36.5398166405       13.9593377139       18.3000203535  W2        18398           0.0000000000
     55193     18398  TIP3      H1            -37.3909666405       14.1977177139       17.9326603535  W2        18398           0.0000000000
     55194     18398  TIP3      H2            -35.9494766405       13.9426577139       17.5467303535  W2        18398           0.0000000000
     55195     18399  TIP3      OH2           -38.2078466405       16.9452077139        5.9280803535  W2        18399           0.0000000000
     55196     18399  TIP3      H1            -38.5807366405       16.1195877139        6.2371403535  W2        18399           0.0000000000
     55197     18399  TIP3      H2            -37.9304966405       16.7621477139        5.0304203535  W2        18399           0.0000000000
     55198     18400  TIP3      OH2           -41.0474566405       11.7531577139       12.9492703535  W2        18400           0.0000000000
     55199     18400  TIP3      H1            -41.9757666405       11.5213477139       12.9222003535  W2        18400           0.0000000000
     55200     18400  TIP3      H2            -40.5963466405       10.9761377139       12.6191503535  W2        18400           0.0000000000
     55201     18401  TIP3      OH2           -48.5041466405       16.0813177139        9.0821403535  W2        18401           0.0000000000
     55202     18401  TIP3      H1            -47.9769266405       16.8547577139        8.8820203535  W2        18401           0.0000000000
     55203     18401  TIP3      H2            -49.3842966405       16.3062377139        8.7805403535  W2        18401           0.0000000000
     55204     18402  TIP3      OH2           -52.7493766405       10.9437277139        3.6693803535  W2        18402           0.0000000000
     55205     18402  TIP3      H1            -52.1333866405       11.5704477139        4.0488603535  W2        18402           0.0000000000
     55206     18402  TIP3      H2            -53.6111166405       11.2597077139        3.9410303535  W2        18402           0.0000000000
     55207     18403  TIP3      OH2           -47.0769166405       13.7443077139        8.6585703535  W2        18403           0.0000000000
     55208     18403  TIP3      H1            -47.3179166405       14.6697477139        8.7001003535  W2        18403           0.0000000000
     55209     18403  TIP3      H2            -47.8175566405       13.2854377139        9.0549603535  W2        18403           0.0000000000
     55210     18404  TIP3      OH2           -46.5622566405       17.8936677139       14.9736803535  W2        18404           0.0000000000
     55211     18404  TIP3      H1            -46.1997866405       18.7482277139       14.7401203535  W2        18404           0.0000000000
     55212     18404  TIP3      H2            -46.0307366405       17.6018277139       15.7143103535  W2        18404           0.0000000000
     55213     18405  TIP3      OH2           -48.3938366405       18.7660677139        8.2037903535  W2        18405           0.0000000000
     55214     18405  TIP3      H1            -49.3437866405       18.8718077139        8.2551203535  W2        18405           0.0000000000
     55215     18405  TIP3      H2            -48.0420266405       19.5868077139        8.5485403535  W2        18405           0.0000000000
     55216     18406  TIP3      OH2           -43.0181766405       13.9927377139       14.6742403535  W2        18406           0.0000000000
     55217     18406  TIP3      H1            -43.4440466405       13.7649077139       15.5006403535  W2        18406           0.0000000000
     55218     18406  TIP3      H2            -42.4375966405       13.2539177139       14.4917703535  W2        18406           0.0000000000
     55219     18407  TIP3      OH2           -40.8152866405       14.9217877139        3.7481403535  W2        18407           0.0000000000
     55220     18407  TIP3      H1            -40.4619766405       14.5417677139        4.5524903535  W2        18407           0.0000000000
     55221     18407  TIP3      H2            -41.7639366405       14.8282677139        3.8350703535  W2        18407           0.0000000000
     55222     18408  TIP3      OH2           -40.3597566405       18.5446877139       17.1437203535  W2        18408           0.0000000000
     55223     18408  TIP3      H1            -40.9614366405       17.9889777139       16.6483503535  W2        18408           0.0000000000
     55224     18408  TIP3      H2            -40.0783866405       19.2116677139       16.5174603535  W2        18408           0.0000000000
     55225     18409  TIP3      OH2           -36.3118466405       19.4010377139        3.9491603535  W2        18409           0.0000000000
     55226     18409  TIP3      H1            -35.5680566405       19.9870877139        3.8093203535  W2        18409           0.0000000000
     55227     18409  TIP3      H2            -37.0060366405       19.9696177139        4.2824003535  W2        18409           0.0000000000
     55228     18410  TIP3      OH2           -52.2371666405        5.7774577139       16.5509803535  W2        18410           0.0000000000
     55229     18410  TIP3      H1            -53.1299366405        6.1159977139       16.4833803535  W2        18410           0.0000000000
     55230     18410  TIP3      H2            -52.3358866405        4.9220677139       16.9690603535  W2        18410           0.0000000000
     55231     18411  TIP3      OH2           -39.9493566405       13.5939877139        5.9749303535  W2        18411           0.0000000000
     55232     18411  TIP3      H1            -40.2265966405       12.8659177139        6.5310403535  W2        18411           0.0000000000
     55233     18411  TIP3      H2            -39.0220566405       13.7131877139        6.1801903535  W2        18411           0.0000000000
     55234     18412  TIP3      OH2           -52.5859666405       17.5818977139       14.9859203535  W2        18412           0.0000000000
     55235     18412  TIP3      H1            -52.3689366405       16.6501377139       14.9548903535  W2        18412           0.0000000000
     55236     18412  TIP3      H2            -52.3396166405       17.8563977139       15.8692003535  W2        18412           0.0000000000
     55237     18413  TIP3      OH2           -46.7245066405       16.0333977139        2.1951403535  W2        18413           0.0000000000
     55238     18413  TIP3      H1            -46.4855266405       15.2852077139        1.6480303535  W2        18413           0.0000000000
     55239     18413  TIP3      H2            -46.9933766405       15.6455677139        3.0279203535  W2        18413           0.0000000000
     55240     18414  TIP3      OH2           -47.7874466405       15.6037777139        4.6514003535  W2        18414           0.0000000000
     55241     18414  TIP3      H1            -47.6406466405       15.0837577139        5.4414903535  W2        18414           0.0000000000
     55242     18414  TIP3      H2            -47.7902766405       16.5105377139        4.9579903535  W2        18414           0.0000000000
     55243     18415  TIP3      OH2           -51.3343366405       12.8561077139        5.1619403535  W2        18415           0.0000000000
     55244     18415  TIP3      H1            -52.0204066405       13.2083577139        5.7289103535  W2        18415           0.0000000000
     55245     18415  TIP3      H2            -50.8115466405       13.6190677139        4.9153703535  W2        18415           0.0000000000
     55246     18416  TIP3      OH2           -43.5028266405        5.5184877139       15.4408403535  W2        18416           0.0000000000
     55247     18416  TIP3      H1            -42.8040366405        5.5923577139       16.0908103535  W2        18416           0.0000000000
     55248     18416  TIP3      H2            -43.8836866405        4.6539877139       15.5951303535  W2        18416           0.0000000000
     55249     18417  TIP3      OH2           -42.7183366405        5.1706577139        6.5380703535  W2        18417           0.0000000000
     55250     18417  TIP3      H1            -42.4985066405        5.6421977139        5.7346103535  W2        18417           0.0000000000
     55251     18417  TIP3      H2            -42.1599366405        5.5649177139        7.2081303535  W2        18417           0.0000000000
     55252     18418  TIP3      OH2           -45.0497266405       17.3011377139        5.4008203535  W2        18418           0.0000000000
     55253     18418  TIP3      H1            -45.8661166405       17.7981077139        5.4532503535  W2        18418           0.0000000000
     55254     18418  TIP3      H2            -44.5200966405       17.7764877139        4.7607003535  W2        18418           0.0000000000
     55255     18419  TIP3      OH2           -45.5183466405        6.8985377139        7.3729103535  W2        18419           0.0000000000
     55256     18419  TIP3      H1            -44.7060866405        7.4028577139        7.4190803535  W2        18419           0.0000000000
     55257     18419  TIP3      H2            -45.7630466405        6.7535077139        8.2868703535  W2        18419           0.0000000000
     55258     18420  TIP3      OH2           -44.9827066405        7.8848077139       16.5575703535  W2        18420           0.0000000000
     55259     18420  TIP3      H1            -44.8636766405        8.4583477139       17.3146103535  W2        18420           0.0000000000
     55260     18420  TIP3      H2            -44.3272466405        7.1967477139       16.6723503535  W2        18420           0.0000000000
     55261     18421  TIP3      OH2           -44.6346766405        3.9798377139        8.3110203535  W2        18421           0.0000000000
     55262     18421  TIP3      H1            -44.9813266405        4.5968977139        8.9554503535  W2        18421           0.0000000000
     55263     18421  TIP3      H2            -43.9759866405        4.4804077139        7.8295703535  W2        18421           0.0000000000
     55264     18422  TIP3      OH2           -47.7114166405       18.3448577139        5.3825103535  W2        18422           0.0000000000
     55265     18422  TIP3      H1            -47.5505466405       19.1446077139        4.8817703535  W2        18422           0.0000000000
     55266     18422  TIP3      H2            -47.9086366405       18.6514577139        6.2675703535  W2        18422           0.0000000000
     55267     18423  TIP3      OH2           -48.9769766405        5.0427777139        4.9982703535  W2        18423           0.0000000000
     55268     18423  TIP3      H1            -49.0604966405        5.9310877139        5.3449103535  W2        18423           0.0000000000
     55269     18423  TIP3      H2            -48.0869466405        4.7774477139        5.2299503535  W2        18423           0.0000000000
     55270     18424  TIP3      OH2           -38.7781266405        5.7918377139       17.3925403535  W2        18424           0.0000000000
     55271     18424  TIP3      H1            -39.6945466405        6.0540077139       17.3049103535  W2        18424           0.0000000000
     55272     18424  TIP3      H2            -38.4426266405        5.7887377139       16.4960703535  W2        18424           0.0000000000
     55273     18425  TIP3      OH2           -40.1760266405        9.5419377139       11.4882703535  W2        18425           0.0000000000
     55274     18425  TIP3      H1            -40.9735866405        9.1269577139       11.1597703535  W2        18425           0.0000000000
     55275     18425  TIP3      H2            -39.7309166405        8.8513077139       11.9793203535  W2        18425           0.0000000000
     55276     18426  TIP3      OH2           -50.7184466405       15.4699977139        4.0587203535  W2        18426           0.0000000000
     55277     18426  TIP3      H1            -50.1262966405       16.1694777139        4.3349603535  W2        18426           0.0000000000
     55278     18426  TIP3      H2            -50.2591466405       15.0369477139        3.3391803535  W2        18426           0.0000000000
     55279     18427  TIP3      OH2           -52.4025266405        8.1342977139        3.1746603535  W2        18427           0.0000000000
     55280     18427  TIP3      H1            -52.4472666405        9.0736077139        3.3533603535  W2        18427           0.0000000000
     55281     18427  TIP3      H2            -53.2902066405        7.8987877139        2.9048703535  W2        18427           0.0000000000
     55282     18428  TIP3      OH2           -39.0895666405       18.7981877139       13.1106203535  W2        18428           0.0000000000
     55283     18428  TIP3      H1            -39.2451366405       19.4766277139       12.4535503535  W2        18428           0.0000000000
     55284     18428  TIP3      H2            -38.1569266405       18.8701177139       13.3136803535  W2        18428           0.0000000000
     55285     18429  TIP3      OH2           -51.5943266405        2.9159577139       11.8477603535  W2        18429           0.0000000000
     55286     18429  TIP3      H1            -51.8233466405        2.9752077139       10.9202603535  W2        18429           0.0000000000
     55287     18429  TIP3      H2            -52.0369866405        2.1245077139       12.1541703535  W2        18429           0.0000000000
     55288     18430  TIP3      OH2           -52.6639966405       16.8566677139        8.0083403535  W2        18430           0.0000000000
     55289     18430  TIP3      H1            -53.4961366405       17.3289377139        8.0354803535  W2        18430           0.0000000000
     55290     18430  TIP3      H2            -52.1181666405       17.3664277139        7.4096503535  W2        18430           0.0000000000
     55291     18431  TIP3      OH2           -53.3756266405       19.4690377139       19.3381403535  W2        18431           0.0000000000
     55292     18431  TIP3      H1            -52.8354066405       19.2524377139       20.0980603535  W2        18431           0.0000000000
     55293     18431  TIP3      H2            -53.8568266405       18.6636377139       19.1483903535  W2        18431           0.0000000000
     55294     18432  TIP3      OH2           -48.7782866405       18.3884777139       20.9585603535  W2        18432           0.0000000000
     55295     18432  TIP3      H1            -48.0105666405       17.9295577139       21.2994803535  W2        18432           0.0000000000
     55296     18432  TIP3      H2            -48.7996666405       18.1624577139       20.0286803535  W2        18432           0.0000000000
     55297     18433  TIP3      OH2           -44.6863266405       17.8965377139        2.3337403535  W2        18433           0.0000000000
     55298     18433  TIP3      H1            -45.3302266405       17.2653977139        2.6551103535  W2        18433           0.0000000000
     55299     18433  TIP3      H2            -43.9244966405       17.3653377139        2.1020903535  W2        18433           0.0000000000
     55300     18434  TIP3      OH2           -42.2014166405       16.7685877139       19.6877103535  W2        18434           0.0000000000
     55301     18434  TIP3      H1            -42.5524666405       15.9118877139       19.9307503535  W2        18434           0.0000000000
     55302     18434  TIP3      H2            -41.4750966405       16.9112577139       20.2946103535  W2        18434           0.0000000000
     55303     18435  TIP3      OH2           -40.0820366405       17.7135277139        2.5675403535  W2        18435           0.0000000000
     55304     18435  TIP3      H1            -39.7989966405       16.9190477139        3.0202303535  W2        18435           0.0000000000
     55305     18435  TIP3      H2            -39.3422466405       17.9466277139        2.0066503535  W2        18435           0.0000000000
     55306     18436  TIP3      OH2           -53.4686766405       13.2794477139       20.2925703535  W2        18436           0.0000000000
     55307     18436  TIP3      H1            -53.3246266405       12.3775177139       20.0062403535  W2        18436           0.0000000000
     55308     18436  TIP3      H2            -54.2409366405       13.5656577139       19.8048003535  W2        18436           0.0000000000
     55309     18437  TIP3      OH2           -49.1273066405       13.6230177139        2.4250303535  W2        18437           0.0000000000
     55310     18437  TIP3      H1            -49.0628966405       12.8289777139        2.9556703535  W2        18437           0.0000000000
     55311     18437  TIP3      H2            -48.4743866405       13.5042977139        1.7352303535  W2        18437           0.0000000000
     55312     18438  TIP3      OH2           -46.8130666405       13.2492577139       19.7252103535  W2        18438           0.0000000000
     55313     18438  TIP3      H1            -47.1416866405       13.5200677139       18.8679503535  W2        18438           0.0000000000
     55314     18438  TIP3      H2            -46.6612466405       12.3082377139       19.6377103535  W2        18438           0.0000000000
     55315     18439  TIP3      OH2           -43.7749666405       14.6701877139        2.1608303535  W2        18439           0.0000000000
     55316     18439  TIP3      H1            -44.0435566405       14.8503977139        3.0617203535  W2        18439           0.0000000000
     55317     18439  TIP3      H2            -43.9814066405       13.7448077139        2.0294103535  W2        18439           0.0000000000
     55318     18440  TIP3      OH2           -41.0785466405       13.1649877139       17.1084403535  W2        18440           0.0000000000
     55319     18440  TIP3      H1            -40.3330666405       13.7533577139       16.9888403535  W2        18440           0.0000000000
     55320     18440  TIP3      H2            -41.8358666405       13.7469577139       17.1717503535  W2        18440           0.0000000000
     55321     18441  TIP3      OH2           -52.6360266405       10.4797777139       19.7125003535  W2        18441           0.0000000000
     55322     18441  TIP3      H1            -52.2279066405        9.6224377139       19.5915603535  W2        18441           0.0000000000
     55323     18441  TIP3      H2            -52.8962666405       10.4939077139       20.6335303535  W2        18441           0.0000000000
     55324     18442  TIP3      OH2           -47.9779266405       11.5956377139        4.7308303535  W2        18442           0.0000000000
     55325     18442  TIP3      H1            -48.4377266405       11.1114677139        5.4166803535  W2        18442           0.0000000000
     55326     18442  TIP3      H2            -47.7230566405       10.9271777139        4.0948803535  W2        18442           0.0000000000
     55327     18443  TIP3      OH2           -48.6889966405        9.4883477139       17.0867903535  W2        18443           0.0000000000
     55328     18443  TIP3      H1            -49.3073866405       10.1630077139       17.3672603535  W2        18443           0.0000000000
     55329     18443  TIP3      H2            -48.3448766405        9.8097377139       16.2534103535  W2        18443           0.0000000000
     55330     18444  TIP3      OH2           -46.9068866405        9.8388177139        2.9931503535  W2        18444           0.0000000000
     55331     18444  TIP3      H1            -47.0873866405        9.6839377139        2.0659803535  W2        18444           0.0000000000
     55332     18444  TIP3      H2            -45.9568366405        9.9466877139        3.0379403535  W2        18444           0.0000000000
     55333     18445  TIP3      OH2           -43.6691766405       11.9598777139       20.3642703535  W2        18445           0.0000000000
     55334     18445  TIP3      H1            -42.7160566405       12.0437877139       20.3368703535  W2        18445           0.0000000000
     55335     18445  TIP3      H2            -43.8297166405       11.2480577139       20.9837603535  W2        18445           0.0000000000
     55336     18446  TIP3      OH2           -37.5170566405       12.1932377139        2.4389603535  W2        18446           0.0000000000
     55337     18446  TIP3      H1            -37.7905766405       11.7687877139        1.6257903535  W2        18446           0.0000000000
     55338     18446  TIP3      H2            -37.4776466405       13.1246877139        2.2220003535  W2        18446           0.0000000000
     55339     18447  TIP3      OH2           -48.3496266405        6.8434277139       18.1691003535  W2        18447           0.0000000000
     55340     18447  TIP3      H1            -48.1995366405        6.1145577139       17.5670703535  W2        18447           0.0000000000
     55341     18447  TIP3      H2            -48.3473866405        7.6205977139       17.6103203535  W2        18447           0.0000000000
     55342     18448  TIP3      OH2           -47.9370566405        5.2130077139       15.6618403535  W2        18448           0.0000000000
     55343     18448  TIP3      H1            -47.4013066405        5.6646777139       15.0097703535  W2        18448           0.0000000000
     55344     18448  TIP3      H2            -48.7890966405        5.1049877139       15.2392503535  W2        18448           0.0000000000
     55345     18449  TIP3      OH2           -46.3552166405       10.6526277139       15.9013603535  W2        18449           0.0000000000
     55346     18449  TIP3      H1            -45.6047366405       10.4963777139       15.3281403535  W2        18449           0.0000000000
     55347     18449  TIP3      H2            -46.6943866405       11.5042877139       15.6259103535  W2        18449           0.0000000000
     55348     18450  TIP3      OH2           -41.9395966405        8.4678077139       20.9298903535  W2        18450           0.0000000000
     55349     18450  TIP3      H1            -41.7474666405        7.5367477139       20.8183403535  W2        18450           0.0000000000
     55350     18450  TIP3      H2            -41.0819666405        8.8927577139       20.9194303535  W2        18450           0.0000000000
     55351     18451  TIP3      OH2           -40.6228766405       11.2563277139       19.0071603535  W2        18451           0.0000000000
     55352     18451  TIP3      H1            -40.9043766405       11.9657877139       18.4295403535  W2        18451           0.0000000000
     55353     18451  TIP3      H2            -39.6804466405       11.1836277139       18.8562803535  W2        18451           0.0000000000
     55354     18452  TIP3      OH2           -49.8709966405        8.0417777139       20.0806603535  W2        18452           0.0000000000
     55355     18452  TIP3      H1            -50.6380966405        7.5092577139       19.8704203535  W2        18452           0.0000000000
     55356     18452  TIP3      H2            -49.1920966405        7.7318177139       19.4812903535  W2        18452           0.0000000000
     55357     18453  TIP3      OH2           -47.1315066405        2.6695777139       16.0932003535  W2        18453           0.0000000000
     55358     18453  TIP3      H1            -47.2295466405        3.6158977139       15.9878203535  W2        18453           0.0000000000
     55359     18453  TIP3      H2            -47.8738866405        2.2969577139       15.6175503535  W2        18453           0.0000000000
     55360     18454  TIP3      OH2           -45.8674566405        6.9911177139       19.6570403535  W2        18454           0.0000000000
     55361     18454  TIP3      H1            -46.1029166405        6.7717877139       20.5585303535  W2        18454           0.0000000000
     55362     18454  TIP3      H2            -46.6507666405        6.7842377139       19.1472903535  W2        18454           0.0000000000
     55363     18455  TIP3      OH2           -43.1517966405        6.1184677139       18.7323903535  W2        18455           0.0000000000
     55364     18455  TIP3      H1            -44.0992566405        6.1504377139       18.8647203535  W2        18455           0.0000000000
     55365     18455  TIP3      H2            -42.8391266405        5.4931777139       19.3862103535  W2        18455           0.0000000000
     55366     18456  TIP3      OH2           -41.5176466405        4.7525777139       20.7375803535  W2        18456           0.0000000000
     55367     18456  TIP3      H1            -41.6144666405        3.8003077139       20.7317703535  W2        18456           0.0000000000
     55368     18456  TIP3      H2            -41.8393366405        5.0212577139       21.5981303535  W2        18456           0.0000000000
     55369     18457  TIP3      OH2           -51.6907166405        5.9621577139       19.7851303535  W2        18457           0.0000000000
     55370     18457  TIP3      H1            -51.4789766405        5.2557677139       19.1748803535  W2        18457           0.0000000000
     55371     18457  TIP3      H2            -51.8019666405        5.5247577139       20.6292503535  W2        18457           0.0000000000
     55372     18458  TIP3      OH2           -46.9096966405        1.9633177139       18.7644803535  W2        18458           0.0000000000
     55373     18458  TIP3      H1            -46.1978566405        1.3235377139       18.7503903535  W2        18458           0.0000000000
     55374     18458  TIP3      H2            -47.0106566405        2.2301477139       17.8507903535  W2        18458           0.0000000000
     55375     18459  TIP3      OH2           -46.5559466405        3.6461577139       20.8181103535  W2        18459           0.0000000000
     55376     18459  TIP3      H1            -46.6877266405        3.1705377139       19.9979603535  W2        18459           0.0000000000
     55377     18459  TIP3      H2            -47.1552066405        4.3905177139       20.7628203535  W2        18459           0.0000000000
     55378     18460  TIP3      OH2           -47.0097166405       20.5291877139        3.9945103535  W2        18460           0.0000000000
     55379     18460  TIP3      H1            -46.0766466405       20.6870577139        4.1383503535  W2        18460           0.0000000000
     55380     18460  TIP3      H2            -47.2738366405       21.2044877139        3.3696603535  W2        18460           0.0000000000
     55381     18461  TIP3      OH2           -53.4412266405       15.1655677139        3.4773203535  W2        18461           0.0000000000
     55382     18461  TIP3      H1            -52.5273066405       15.2444577139        3.7507103535  W2        18461           0.0000000000
     55383     18461  TIP3      H2            -53.4339166405       14.4785277139        2.8108803535  W2        18461           0.0000000000
     55384     18462  TIP3      OH2           -54.7921666405       20.5584177139        8.5547103535  W2        18462           0.0000000000
     55385     18462  TIP3      H1            -55.4394566405       20.0965877139        8.0218303535  W2        18462           0.0000000000
     55386     18462  TIP3      H2            -54.4377066405       19.8867477139        9.1373303535  W2        18462           0.0000000000
     55387     18463  TIP3      OH2           -53.9222466405       18.6391177139       10.3593303535  W2        18463           0.0000000000
     55388     18463  TIP3      H1            -54.2565666405       17.7588477139       10.5313503535  W2        18463           0.0000000000
     55389     18463  TIP3      H2            -53.7000066405       18.9846177139       11.2238903535  W2        18463           0.0000000000
     55390     18464  TIP3      OH2           -36.3737666405       19.4487577139       13.3398103535  W2        18464           0.0000000000
     55391     18464  TIP3      H1            -36.3950966405       19.6335977139       14.2787503535  W2        18464           0.0000000000
     55392     18464  TIP3      H2            -35.6831466405       20.0171577139       12.9989503535  W2        18464           0.0000000000
     55393     18465  TIP3      OH2           -36.8104766405       19.0158677139       16.2617203535  W2        18465           0.0000000000
     55394     18465  TIP3      H1            -37.2976066405       18.2802777139       15.8904603535  W2        18465           0.0000000000
     55395     18465  TIP3      H2            -36.2612066405       18.6222577139       16.9396603535  W2        18465           0.0000000000
     55396     18466  TIP3      OH2           -38.3597466405       14.8056777139       20.8997503535  W2        18466           0.0000000000
     55397     18466  TIP3      H1            -39.2256366405       14.7006477139       21.2939803535  W2        18466           0.0000000000
     55398     18466  TIP3      H2            -37.9831566405       15.5640077139       21.3462203535  W2        18466           0.0000000000
     55399     18467  TIP3      OH2           -37.0587766405       13.0620477139        6.4140003535  W2        18467           0.0000000000
     55400     18467  TIP3      H1            -36.2086366405       13.4831377139        6.5411603535  W2        18467           0.0000000000
     55401     18467  TIP3      H2            -37.0532666405       12.3220577139        7.0211403535  W2        18467           0.0000000000
     55402     18468  TIP3      OH2           -36.6642166405       11.1157877139        8.2375703535  W2        18468           0.0000000000
     55403     18468  TIP3      H1            -37.3907566405       10.6360477139        8.6353303535  W2        18468           0.0000000000
     55404     18468  TIP3      H2            -36.0828866405       11.3212577139        8.9697303535  W2        18468           0.0000000000
     55405     18469  TIP3      OH2           -36.9050966405       13.9005377139       13.1853303535  W2        18469           0.0000000000
     55406     18469  TIP3      H1            -36.0716766405       13.5225377139       12.9046903535  W2        18469           0.0000000000
     55407     18469  TIP3      H2            -36.7930666405       14.8436577139       13.0662403535  W2        18469           0.0000000000
     55408     18470  TIP3      OH2           -38.4188666405       16.7782877139       15.4921703535  W2        18470           0.0000000000
     55409     18470  TIP3      H1            -39.0663366405       17.1034377139       16.1176903535  W2        18470           0.0000000000
     55410     18470  TIP3      H2            -38.9364666405       16.3380577139       14.8180003535  W2        18470           0.0000000000
     55411     18471  TIP3      OH2           -36.3959066405       11.0166377139        4.6287003535  W2        18471           0.0000000000
     55412     18471  TIP3      H1            -36.9177966405       11.3730477139        3.9097903535  W2        18471           0.0000000000
     55413     18471  TIP3      H2            -36.4289866405       11.6914177139        5.3067903535  W2        18471           0.0000000000
     55414     18472  TIP3      OH2           -38.0470066405        8.2561977139        3.1794103535  W2        18472           0.0000000000
     55415     18472  TIP3      H1            -37.9505666405        8.9228977139        2.4993803535  W2        18472           0.0000000000
     55416     18472  TIP3      H2            -38.1870466405        7.4408277139        2.6979603535  W2        18472           0.0000000000
     55417     18473  TIP3      OH2           -38.8775366405        9.6364377139        8.8004403535  W2        18473           0.0000000000
     55418     18473  TIP3      H1            -39.0276566405        8.6912977139        8.7802203535  W2        18473           0.0000000000
     55419     18473  TIP3      H2            -39.2310866405        9.9175777139        9.6443503535  W2        18473           0.0000000000
     55420     18474  TIP3      OH2           -53.8422966405       11.7146577139       12.8108203535  W2        18474           0.0000000000
     55421     18474  TIP3      H1            -53.6580066405       11.6328277139       11.8751103535  W2        18474           0.0000000000
     55422     18474  TIP3      H2            -52.9930066405       11.5903577139       13.2344603535  W2        18474           0.0000000000
     55423     18475  TIP3      OH2           -38.0212466405       11.6067677139       18.4392703535  W2        18475           0.0000000000
     55424     18475  TIP3      H1            -37.4385166405       10.8719977139       18.6309903535  W2        18475           0.0000000000
     55425     18475  TIP3      H2            -37.4573166405       12.3787977139       18.4858503535  W2        18475           0.0000000000
     55426     18476  TIP3      OH2           -36.5245366405        9.5093477139       19.1238103535  W2        18476           0.0000000000
     55427     18476  TIP3      H1            -37.3878666405        9.1305577139       18.9582803535  W2        18476           0.0000000000
     55428     18476  TIP3      H2            -35.9201666405        8.7708277139       19.0493903535  W2        18476           0.0000000000
     55429     18477  TIP3      OH2           -38.7996266405        5.6641777139        2.2969603535  W2        18477           0.0000000000
     55430     18477  TIP3      H1            -38.1890466405        5.2928577139        2.9337803535  W2        18477           0.0000000000
     55431     18477  TIP3      H2            -39.6364766405        5.2428677139        2.4929603535  W2        18477           0.0000000000
     55432     18478  TIP3      OH2           -39.1670566405        7.2190177139        7.2629503535  W2        18478           0.0000000000
     55433     18478  TIP3      H1            -38.8873466405        6.3120577139        7.3871203535  W2        18478           0.0000000000
     55434     18478  TIP3      H2            -38.4078866405        7.6531677139        6.8738703535  W2        18478           0.0000000000
     55435     18479  TIP3      OH2           -38.5552266405        7.8007577139       12.6988403535  W2        18479           0.0000000000
     55436     18479  TIP3      H1            -37.6224266405        8.0127477139       12.6644403535  W2        18479           0.0000000000
     55437     18479  TIP3      H2            -38.7904766405        7.9019677139       13.6211403535  W2        18479           0.0000000000
     55438     18480  TIP3      OH2           -38.5260366405        8.5372877139       15.4747803535  W2        18480           0.0000000000
     55439     18480  TIP3      H1            -39.3689066405        8.8053277139       15.8407603535  W2        18480           0.0000000000
     55440     18480  TIP3      H2            -38.0836066405        9.3594777139       15.2638903535  W2        18480           0.0000000000
     55441     18481  TIP3      OH2           -54.2448166405        6.9851577139       18.9517003535  W2        18481           0.0000000000
     55442     18481  TIP3      H1            -53.3253266405        6.8629877139       19.1880103535  W2        18481           0.0000000000
     55443     18481  TIP3      H2            -54.6943666405        6.2351277139       19.3410503535  W2        18481           0.0000000000
     55444     18482  TIP3      OH2           -36.2428766405        2.5173077139       20.8282803535  W2        18482           0.0000000000
     55445     18482  TIP3      H1            -35.8931766405        1.8636577139       20.2227503535  W2        18482           0.0000000000
     55446     18482  TIP3      H2            -36.0959266405        3.3547177139       20.3885403535  W2        18482           0.0000000000
     55447     18483  TIP3      OH2           -38.5535766405        4.4819477139        7.3111503535  W2        18483           0.0000000000
     55448     18483  TIP3      H1            -38.3710766405        4.0330977139        8.1366503535  W2        18483           0.0000000000
     55449     18483  TIP3      H2            -39.1532866405        3.8973877139        6.8476103535  W2        18483           0.0000000000
     55450     18484  TIP3      OH2           -53.0235666405        5.2973177139       11.8429903535  W2        18484           0.0000000000
     55451     18484  TIP3      H1            -52.5784066405        4.5055677139       12.1449603535  W2        18484           0.0000000000
     55452     18484  TIP3      H2            -52.5572666405        6.0138377139       12.2735503535  W2        18484           0.0000000000
     55453     18485  TIP3      OH2           -54.7195366405        8.2966177139       12.9120103535  W2        18485           0.0000000000
     55454     18485  TIP3      H1            -54.2275566405        8.0756677139       12.1212103535  W2        18485           0.0000000000
     55455     18485  TIP3      H2            -54.3574466405        9.1369577139       13.1929603535  W2        18485           0.0000000000
     55456     18486  TIP3      OH2           -36.7231566405        4.6267677139       19.1774103535  W2        18486           0.0000000000
     55457     18486  TIP3      H1            -37.6405866405        4.8974777139       19.1417603535  W2        18486           0.0000000000
     55458     18486  TIP3      H2            -36.6002166405        4.0916077139       18.3933803535  W2        18486           0.0000000000
     55459     18487  TIP3      OH2           -36.6869566405        4.5497577139        3.8391803535  W2        18487           0.0000000000
     55460     18487  TIP3      H1            -36.2746966405        3.8283277139        3.3639803535  W2        18487           0.0000000000
     55461     18487  TIP3      H2            -36.0053066405        5.2192177139        3.8976103535  W2        18487           0.0000000000
     55462     18488  TIP3      OH2           -54.4058866405        4.5545277139        6.9662503535  W2        18488           0.0000000000
     55463     18488  TIP3      H1            -55.3310466405        4.7631877139        6.8368003535  W2        18488           0.0000000000
     55464     18488  TIP3      H2            -53.9518966405        5.0386077139        6.2764803535  W2        18488           0.0000000000
     55465     18489  TIP3      OH2           -39.6351666405       19.5386977139        8.9119903535  W2        18489           0.0000000000
     55466     18489  TIP3      H1            -38.9828766405       19.1909077139        8.3039003535  W2        18489           0.0000000000
     55467     18489  TIP3      H2            -39.1247866405       20.0270177139        9.5579603535  W2        18489           0.0000000000
     55468     18490  TIP3      OH2           -54.4423466405        3.2924277139       15.3105003535  W2        18490           0.0000000000
     55469     18490  TIP3      H1            -55.1072966405        3.0464577139       15.9535903535  W2        18490           0.0000000000
     55470     18490  TIP3      H2            -54.8852166405        3.9144677139       14.7333003535  W2        18490           0.0000000000
     55471     18491  TIP3      OH2           -52.2504166405       16.4678377139       19.4550803535  W2        18491           0.0000000000
     55472     18491  TIP3      H1            -53.0711666405       16.6424877139       18.9945503535  W2        18491           0.0000000000
     55473     18491  TIP3      H2            -52.5026366405       16.3943077139       20.3755203535  W2        18491           0.0000000000
     55474     18492  TIP3      OH2           -49.2961266405       17.4419577139       15.7134803535  W2        18492           0.0000000000
     55475     18492  TIP3      H1            -49.7210166405       18.2518077139       15.4309403535  W2        18492           0.0000000000
     55476     18492  TIP3      H2            -48.3918466405       17.5273677139       15.4114603535  W2        18492           0.0000000000
     55477     18493  TIP3      OH2           -44.9849866405       18.8409577139       18.6728503535  W2        18493           0.0000000000
     55478     18493  TIP3      H1            -44.8002366405       18.5075677139       19.5508803535  W2        18493           0.0000000000
     55479     18493  TIP3      H2            -44.1385366405       19.1508177139       18.3507703535  W2        18493           0.0000000000
     55480     18494  TIP3      OH2           -42.6399466405       20.1268477139       17.9169903535  W2        18494           0.0000000000
     55481     18494  TIP3      H1            -41.9630566405       19.4940777139       17.6769103535  W2        18494           0.0000000000
     55482     18494  TIP3      H2            -42.3180666405       20.5278977139       18.7243203535  W2        18494           0.0000000000
     55483     18495  TIP3      OH2           -37.7225666405        2.7163977139       16.9964903535  W2        18495           0.0000000000
     55484     18495  TIP3      H1            -38.5352166405        3.0414277139       16.6089603535  W2        18495           0.0000000000
     55485     18495  TIP3      H2            -37.4897166405        1.9562477139       16.4634003535  W2        18495           0.0000000000
     55486     18496  TIP3      OH2           -51.8944566405       20.6983477139       15.7610103535  W2        18496           0.0000000000
     55487     18496  TIP3      H1            -52.6148166405       21.1384477139       15.3097803535  W2        18496           0.0000000000
     55488     18496  TIP3      H2            -52.2600566405       20.4478177139       16.6094103535  W2        18496           0.0000000000
     55489     18497  TIP3      OH2           -49.4271966405       20.2987377139       14.7907303535  W2        18497           0.0000000000
     55490     18497  TIP3      H1            -50.2919766405       20.3705877139       15.1947403535  W2        18497           0.0000000000
     55491     18497  TIP3      H2            -49.4822966405       20.8454677139       14.0069803535  W2        18497           0.0000000000
     55492     18498  TIP3      OH2           -44.7166366405       20.1866277139       13.9663303535  W2        18498           0.0000000000
     55493     18498  TIP3      H1            -45.1732366405       20.7155977139       13.3121703535  W2        18498           0.0000000000
     55494     18498  TIP3      H2            -44.5538366405       20.7897677139       14.6915603535  W2        18498           0.0000000000
     55495     18499  TIP3      OH2           -42.3890066405       19.0645877139       14.9113603535  W2        18499           0.0000000000
     55496     18499  TIP3      H1            -43.2936366405       19.2296077139       14.6455703535  W2        18499           0.0000000000
     55497     18499  TIP3      H2            -41.9601466405       19.9178077139       14.8457003535  W2        18499           0.0000000000
     55498     18500  TIP3      OH2           -39.7848166405       20.6344977139       15.2061403535  W2        18500           0.0000000000
     55499     18500  TIP3      H1            -39.9666166405       21.5503877139       14.9956303535  W2        18500           0.0000000000
     55500     18500  TIP3      H2            -39.6080366405       20.2242077139       14.3596003535  W2        18500           0.0000000000
     55501     18501  TIP3      OH2           -52.4796466405       19.3215977139       12.6711903535  W2        18501           0.0000000000
     55502     18501  TIP3      H1            -52.4980466405       18.8961077139       13.5284203535  W2        18501           0.0000000000
     55503     18501  TIP3      H2            -51.6748566405       19.0030977139       12.2624103535  W2        18501           0.0000000000
     55504     18502  TIP3      OH2           -50.3383366405       18.0314677139       11.3261803535  W2        18502           0.0000000000
     55505     18502  TIP3      H1            -50.5572666405       17.1152077139       11.4957803535  W2        18502           0.0000000000
     55506     18502  TIP3      H2            -49.5141166405       18.1715077139       11.7923203535  W2        18502           0.0000000000
     55507     18503  TIP3      OH2           -47.8010866405       18.5013977139       12.1749803535  W2        18503           0.0000000000
     55508     18503  TIP3      H1            -47.5885166405       17.6132977139       11.8880703535  W2        18503           0.0000000000
     55509     18503  TIP3      H2            -47.7365766405       18.4671677139       13.1293803535  W2        18503           0.0000000000
     55510     18504  TIP3      OH2           -44.2927166405        4.1654577139       11.3193103535  W2        18504           0.0000000000
     55511     18504  TIP3      H1            -44.9670366405        3.5360177139       11.5748903535  W2        18504           0.0000000000
     55512     18504  TIP3      H2            -43.7287966405        3.6813477139       10.7161003535  W2        18504           0.0000000000
     55513     18505  TIP3      OH2           -39.1499966405        2.2728577139       11.4320203535  W2        18505           0.0000000000
     55514     18505  TIP3      H1            -38.5462366405        2.8203977139       10.9301203535  W2        18505           0.0000000000
     55515     18505  TIP3      H2            -40.0197966405        2.5918977139       11.1914303535  W2        18505           0.0000000000
     55516     18506  TIP3      OH2           -37.4229566405        3.4117277139        9.7651103535  W2        18506           0.0000000000
     55517     18506  TIP3      H1            -36.8112066405        2.8972977139        9.2384703535  W2        18506           0.0000000000
     55518     18506  TIP3      H2            -37.0406166405        4.2889377139        9.7885503535  W2        18506           0.0000000000
     55519     18507  TIP3      OH2           -51.9659666405        2.7994877139        9.1413003535  W2        18507           0.0000000000
     55520     18507  TIP3      H1            -52.7429866405        2.5649777139        8.6338903535  W2        18507           0.0000000000
     55521     18507  TIP3      H2            -51.4356066405        2.0026977139        9.1501003535  W2        18507           0.0000000000
     55522     18508  TIP3      OH2           -53.1296266405        2.5972977139        4.9449103535  W2        18508           0.0000000000
     55523     18508  TIP3      H1            -52.6905566405        3.2083477139        4.3532603535  W2        18508           0.0000000000
     55524     18508  TIP3      H2            -53.7633866405        3.1357077139        5.4189103535  W2        18508           0.0000000000
     55525     18509  TIP3      OH2           -47.3867066405        2.7261977139        8.9546103535  W2        18509           0.0000000000
     55526     18509  TIP3      H1            -46.5123666405        3.1146277139        8.9250403535  W2        18509           0.0000000000
     55527     18509  TIP3      H2            -47.5226266405        2.5109777139        9.8773303535  W2        18509           0.0000000000
     55528     18510  TIP3      OH2           -41.8298666405        2.7561777139       10.6037803535  W2        18510           0.0000000000
     55529     18510  TIP3      H1            -41.7537066405        2.8513377139        9.6543803535  W2        18510           0.0000000000
     55530     18510  TIP3      H2            -42.1049466405        1.8484677139       10.7326903535  W2        18510           0.0000000000
     55531     18511  TIP3      OH2           -40.4766066405        2.7819577139        6.2962803535  W2        18511           0.0000000000
     55532     18511  TIP3      H1            -41.1794966405        3.3968777139        6.0864203535  W2        18511           0.0000000000
     55533     18511  TIP3      H2            -40.9214666405        1.9446277139        6.4273703535  W2        18511           0.0000000000
     55534     18512  TIP3      OH2           -53.2286766405       18.5455177139        5.8424203535  W2        18512           0.0000000000
     55535     18512  TIP3      H1            -53.9136866405       18.5074077139        5.1749303535  W2        18512           0.0000000000
     55536     18512  TIP3      H2            -53.2249566405       19.4582777139        6.1306303535  W2        18512           0.0000000000
     55537     18513  TIP3      OH2           -51.2687166405        4.5134477139        3.3873203535  W2        18513           0.0000000000
     55538     18513  TIP3      H1            -50.7773766405        3.8836877139        2.8598703535  W2        18513           0.0000000000
     55539     18513  TIP3      H2            -50.6450866405        4.8093877139        4.0504403535  W2        18513           0.0000000000
     55540     18514  TIP3      OH2           -46.2427066405        4.8065977139        5.8443703535  W2        18514           0.0000000000
     55541     18514  TIP3      H1            -46.0645766405        4.1599177139        6.5272303535  W2        18514           0.0000000000
     55542     18514  TIP3      H2            -46.2960866405        5.6403677139        6.3114803535  W2        18514           0.0000000000
     55543     18515  TIP3      OH2           -44.3643266405       19.7550077139        4.2400403535  W2        18515           0.0000000000
     55544     18515  TIP3      H1            -43.4983066405       20.1217477139        4.0618603535  W2        18515           0.0000000000
     55545     18515  TIP3      H2            -44.6110466405       19.3158077139        3.4261203535  W2        18515           0.0000000000
     55546     18516  TIP3      OH2           -37.6553666405       19.3180377139        6.9191503535  W2        18516           0.0000000000
     55547     18516  TIP3      H1            -37.8496566405       18.5702477139        6.3541103535  W2        18516           0.0000000000
     55548     18516  TIP3      H2            -37.6943566405       20.0760477139        6.3359403535  W2        18516           0.0000000000
     55549     18517  TIP3      OH2           -52.0081666405        3.3136777139       18.6589203535  W2        18517           0.0000000000
     55550     18517  TIP3      H1            -52.3743466405        2.5479377139       19.1013903535  W2        18517           0.0000000000
     55551     18517  TIP3      H2            -51.0953166405        3.3426977139       18.9454303535  W2        18517           0.0000000000
     55552     18518  TIP3      OH2           -50.0350866405        2.6641177139       20.1946303535  W2        18518           0.0000000000
     55553     18518  TIP3      H1            -49.1367266405        2.3901377139       20.0099703535  W2        18518           0.0000000000
     55554     18518  TIP3      H2            -50.4217766405        1.9217177139       20.6588903535  W2        18518           0.0000000000
     55555     18519  TIP3      OH2           -51.4105566405       19.4655977139        2.8676303535  W2        18519           0.0000000000
     55556     18519  TIP3      H1            -51.6780966405       19.7518877139        3.7409403535  W2        18519           0.0000000000
     55557     18519  TIP3      H2            -50.6392966405       18.9195177139        3.0198803535  W2        18519           0.0000000000
     55558     18520  TIP3      OH2           -41.6138566405        1.9966477139       20.3769103535  W2        18520           0.0000000000
     55559     18520  TIP3      H1            -41.5371366405        1.5707177139       21.2306803535  W2        18520           0.0000000000
     55560     18520  TIP3      H2            -40.7201966405        2.0101177139       20.0342603535  W2        18520           0.0000000000
     55561     18521  TIP3      OH2           -38.4377466405       18.0692777139       19.0693303535  W2        18521           0.0000000000
     55562     18521  TIP3      H1            -39.2195566405       17.8830777139       18.5493903535  W2        18521           0.0000000000
     55563     18521  TIP3      H2            -38.5097566405       18.9987077139       19.2865803535  W2        18521           0.0000000000
     55564     18522  TIP3      OH2           -24.0317066405       11.9557177139        9.1000503535  W2        18522           0.0000000000
     55565     18522  TIP3      H1            -23.9425966405       12.8995377139        8.9677603535  W2        18522           0.0000000000
     55566     18522  TIP3      H2            -24.6699466405       11.6803577139        8.4419903535  W2        18522           0.0000000000
     55567     18523  TIP3      OH2           -25.0985766405       11.2107877139       12.5188703535  W2        18523           0.0000000000
     55568     18523  TIP3      H1            -25.1368266405       10.5644177139       13.2238303535  W2        18523           0.0000000000
     55569     18523  TIP3      H2            -25.4209266405       10.7442277139       11.7477403535  W2        18523           0.0000000000
     55570     18524  TIP3      OH2           -32.7300766405       10.8249977139       14.1118603535  W2        18524           0.0000000000
     55571     18524  TIP3      H1            -32.6888666405       10.1993277139       14.8351003535  W2        18524           0.0000000000
     55572     18524  TIP3      H2            -32.0273066405       11.4488577139       14.2939003535  W2        18524           0.0000000000
     55573     18525  TIP3      OH2           -21.3925566405       14.1498277139       10.8203803535  W2        18525           0.0000000000
     55574     18525  TIP3      H1            -21.8332866405       13.4294277139       11.2709403535  W2        18525           0.0000000000
     55575     18525  TIP3      H2            -21.4055866405       14.8705477139       11.4501503535  W2        18525           0.0000000000
     55576     18526  TIP3      OH2           -31.8067666405       15.2748877139       12.6467703535  W2        18526           0.0000000000
     55577     18526  TIP3      H1            -32.1762466405       14.4729377139       12.2772003535  W2        18526           0.0000000000
     55578     18526  TIP3      H2            -30.8656566405       15.1063777139       12.6931103535  W2        18526           0.0000000000
     55579     18527  TIP3      OH2           -35.1967166405        8.9351477139        8.0396503535  W2        18527           0.0000000000
     55580     18527  TIP3      H1            -35.6443766405        9.7810177139        8.0213003535  W2        18527           0.0000000000
     55581     18527  TIP3      H2            -35.7575966405        8.3555677139        7.5241603535  W2        18527           0.0000000000
     55582     18528  TIP3      OH2           -34.4861066405       11.0971077139       10.1654503535  W2        18528           0.0000000000
     55583     18528  TIP3      H1            -34.2727566405       10.3272677139       10.6927503535  W2        18528           0.0000000000
     55584     18528  TIP3      H2            -33.7483466405       11.1867777139        9.5622103535  W2        18528           0.0000000000
     55585     18529  TIP3      OH2           -24.2810066405       19.2539977139       11.0324203535  W2        18529           0.0000000000
     55586     18529  TIP3      H1            -23.6613666405       18.5774677139       10.7593403535  W2        18529           0.0000000000
     55587     18529  TIP3      H2            -24.4892666405       19.0360777139       11.9409103535  W2        18529           0.0000000000
     55588     18530  TIP3      OH2           -26.7091366405       13.6429277139       12.9249703535  W2        18530           0.0000000000
     55589     18530  TIP3      H1            -26.4053466405       12.9570677139       12.3303803535  W2        18530           0.0000000000
     55590     18530  TIP3      H2            -25.9877366405       13.7617977139       13.5427703535  W2        18530           0.0000000000
     55591     18531  TIP3      OH2           -18.0461566405        5.2444577139       13.7855903535  W2        18531           0.0000000000
     55592     18531  TIP3      H1            -17.9969366405        5.8545777139       14.5215003535  W2        18531           0.0000000000
     55593     18531  TIP3      H2            -17.6206466405        5.7055477139       13.0627003535  W2        18531           0.0000000000
     55594     18532  TIP3      OH2           -23.5684366405        8.0371677139       13.2524503535  W2        18532           0.0000000000
     55595     18532  TIP3      H1            -23.4258466405        7.0908677139       13.2726103535  W2        18532           0.0000000000
     55596     18532  TIP3      H2            -23.6745366405        8.2441477139       12.3239403535  W2        18532           0.0000000000
     55597     18533  TIP3      OH2           -30.4136066405        6.1388077139       10.5249303535  W2        18533           0.0000000000
     55598     18533  TIP3      H1            -30.3704966405        6.9986577139       10.1065603535  W2        18533           0.0000000000
     55599     18533  TIP3      H2            -30.8711966405        5.5862777139        9.8912503535  W2        18533           0.0000000000
     55600     18534  TIP3      OH2           -22.6913366405        6.2693677139        8.9257603535  W2        18534           0.0000000000
     55601     18534  TIP3      H1            -22.0449066405        5.9406877139        9.5505203535  W2        18534           0.0000000000
     55602     18534  TIP3      H2            -22.1813966405        6.7872677139        8.3029003535  W2        18534           0.0000000000
     55603     18535  TIP3      OH2           -33.7934566405        8.5353877139       11.2870703535  W2        18535           0.0000000000
     55604     18535  TIP3      H1            -33.1397966405        7.9855577139       11.7190803535  W2        18535           0.0000000000
     55605     18535  TIP3      H2            -33.7695266405        8.2612877139       10.3702703535  W2        18535           0.0000000000
     55606     18536  TIP3      OH2           -28.6370066405       10.0855177139       10.5022203535  W2        18536           0.0000000000
     55607     18536  TIP3      H1            -28.0209066405        9.5590577139       11.0116203535  W2        18536           0.0000000000
     55608     18536  TIP3      H2            -29.2231266405        9.4453877139       10.0985803535  W2        18536           0.0000000000
     55609     18537  TIP3      OH2           -17.6546966405        6.7223777139       16.0215703535  W2        18537           0.0000000000
     55610     18537  TIP3      H1            -18.3432366405        7.3804477139       15.9262303535  W2        18537           0.0000000000
     55611     18537  TIP3      H2            -17.6392366405        6.5251677139       16.9581103535  W2        18537           0.0000000000
     55612     18538  TIP3      OH2           -31.6034166405        5.0566477139       14.5990103535  W2        18538           0.0000000000
     55613     18538  TIP3      H1            -31.8222466405        5.5867077139       13.8326103535  W2        18538           0.0000000000
     55614     18538  TIP3      H2            -32.2713266405        5.2831977139       15.2461503535  W2        18538           0.0000000000
     55615     18539  TIP3      OH2           -24.2344366405       14.5567577139        8.1429203535  W2        18539           0.0000000000
     55616     18539  TIP3      H1            -24.5299266405       14.2339877139        7.2916103535  W2        18539           0.0000000000
     55617     18539  TIP3      H2            -24.5586566405       15.4564277139        8.1841803535  W2        18539           0.0000000000
     55618     18540  TIP3      OH2           -29.0342766405       12.7322177139       14.8863803535  W2        18540           0.0000000000
     55619     18540  TIP3      H1            -29.7743666405       13.3303677139       14.9899003535  W2        18540           0.0000000000
     55620     18540  TIP3      H2            -28.3203266405       13.2861777139       14.5707403535  W2        18540           0.0000000000
     55621     18541  TIP3      OH2           -20.9274966405        5.5602977139       10.9063503535  W2        18541           0.0000000000
     55622     18541  TIP3      H1            -21.1426966405        4.7946377139       11.4389503535  W2        18541           0.0000000000
     55623     18541  TIP3      H2            -20.2717566405        6.0327577139       11.4192003535  W2        18541           0.0000000000
     55624     18542  TIP3      OH2           -32.0096866405        6.9488277139       12.5512303535  W2        18542           0.0000000000
     55625     18542  TIP3      H1            -31.3960566405        7.5815877139       12.9244703535  W2        18542           0.0000000000
     55626     18542  TIP3      H2            -31.4976166405        6.4763277139       11.8949203535  W2        18542           0.0000000000
     55627     18543  TIP3      OH2           -30.6268466405       14.6965177139       15.6735303535  W2        18543           0.0000000000
     55628     18543  TIP3      H1            -30.6320866405       15.5758677139       15.2954603535  W2        18543           0.0000000000
     55629     18543  TIP3      H2            -31.4804366405       14.6129277139       16.0985203535  W2        18543           0.0000000000
     55630     18544  TIP3      OH2           -34.5057566405       14.3673077139        6.4554603535  W2        18544           0.0000000000
     55631     18544  TIP3      H1            -34.7776666405       14.5964077139        5.5667503535  W2        18544           0.0000000000
     55632     18544  TIP3      H2            -34.4601866405       15.2051877139        6.9159903535  W2        18544           0.0000000000
     55633     18545  TIP3      OH2           -20.8807866405       15.9888977139       13.1683103535  W2        18545           0.0000000000
     55634     18545  TIP3      H1            -21.8224166405       16.0472877139       13.3300003535  W2        18545           0.0000000000
     55635     18545  TIP3      H2            -20.6041766405       16.8949477139       13.0312803535  W2        18545           0.0000000000
     55636     18546  TIP3      OH2           -20.5800866405        4.2754277139       14.5857003535  W2        18546           0.0000000000
     55637     18546  TIP3      H1            -21.3161666405        4.8861377139       14.5478303535  W2        18546           0.0000000000
     55638     18546  TIP3      H2            -19.8966866405        4.6903277139       14.0593403535  W2        18546           0.0000000000
     55639     18547  TIP3      OH2           -27.5769466405        2.3621577139       12.0515003535  W2        18547           0.0000000000
     55640     18547  TIP3      H1            -27.6945266405        1.4137577139       11.9973303535  W2        18547           0.0000000000
     55641     18547  TIP3      H2            -28.4319366405        2.6947677139       12.3246103535  W2        18547           0.0000000000
     55642     18548  TIP3      OH2           -22.6286666405       17.7702477139        9.7934703535  W2        18548           0.0000000000
     55643     18548  TIP3      H1            -22.2034366405       17.0630377139        9.3084303535  W2        18548           0.0000000000
     55644     18548  TIP3      H2            -22.3116666405       18.5715177139        9.3766903535  W2        18548           0.0000000000
     55645     18549  TIP3      OH2           -21.4690166405       15.6710977139        8.3021303535  W2        18549           0.0000000000
     55646     18549  TIP3      H1            -21.7265366405       14.9811077139        7.6907203535  W2        18549           0.0000000000
     55647     18549  TIP3      H2            -21.3979366405       15.2282177139        9.1477203535  W2        18549           0.0000000000
     55648     18550  TIP3      OH2           -19.7829966405       14.2377677139       16.7794803535  W2        18550           0.0000000000
     55649     18550  TIP3      H1            -19.6433666405       13.6460177139       16.0401803535  W2        18550           0.0000000000
     55650     18550  TIP3      H2            -19.6157166405       15.1103577139       16.4233603535  W2        18550           0.0000000000
     55651     18551  TIP3      OH2           -25.3104566405       11.1997177139        6.5520803535  W2        18551           0.0000000000
     55652     18551  TIP3      H1            -26.0219066405       11.7346877139        6.2001303535  W2        18551           0.0000000000
     55653     18551  TIP3      H2            -24.6194966405       11.2549277139        5.8919703535  W2        18551           0.0000000000
     55654     18552  TIP3      OH2           -25.2565366405        9.6571477139        3.5905803535  W2        18552           0.0000000000
     55655     18552  TIP3      H1            -24.5555466405        9.6798377139        4.2419803535  W2        18552           0.0000000000
     55656     18552  TIP3      H2            -24.9542466405        9.0291177139        2.9345103535  W2        18552           0.0000000000
     55657     18553  TIP3      OH2           -17.9410666405       10.5775677139       14.8455203535  W2        18553           0.0000000000
     55658     18553  TIP3      H1            -18.5936566405       11.2721277139       14.9346103535  W2        18553           0.0000000000
     55659     18553  TIP3      H2            -17.4760366405       10.7876577139       14.0356803535  W2        18553           0.0000000000
     55660     18554  TIP3      OH2           -21.9046866405       11.4090477139        7.5036703535  W2        18554           0.0000000000
     55661     18554  TIP3      H1            -22.6365866405       11.6374177139        8.0767303535  W2        18554           0.0000000000
     55662     18554  TIP3      H2            -21.4574666405       10.6953177139        7.9584203535  W2        18554           0.0000000000
     55663     18555  TIP3      OH2           -22.0073366405        9.5833077139       16.5713703535  W2        18555           0.0000000000
     55664     18555  TIP3      H1            -21.9274266405       10.3467477139       17.1432203535  W2        18555           0.0000000000
     55665     18555  TIP3      H2            -22.6085666405        9.8625477139       15.8808803535  W2        18555           0.0000000000
     55666     18556  TIP3      OH2           -30.2593166405       12.0396677139        9.3861703535  W2        18556           0.0000000000
     55667     18556  TIP3      H1            -30.5897966405       11.6690077139        8.5678703535  W2        18556           0.0000000000
     55668     18556  TIP3      H2            -29.6709066405       11.3690677139        9.7330003535  W2        18556           0.0000000000
     55669     18557  TIP3      OH2           -28.8925666405       15.4677277139       12.0673903535  W2        18557           0.0000000000
     55670     18557  TIP3      H1            -28.9874366405       14.8890377139       11.3108503535  W2        18557           0.0000000000
     55671     18557  TIP3      H2            -28.1632066405       15.0962977139       12.5636703535  W2        18557           0.0000000000
     55672     18558  TIP3      OH2           -29.8927666405       10.8082277139       13.0196703535  W2        18558           0.0000000000
     55673     18558  TIP3      H1            -29.3275166405       10.9296477139       12.2567903535  W2        18558           0.0000000000
     55674     18558  TIP3      H2            -29.5738766405       11.4457277139       13.6585203535  W2        18558           0.0000000000
     55675     18559  TIP3      OH2           -23.5835466405       16.3114177139       13.7537203535  W2        18559           0.0000000000
     55676     18559  TIP3      H1            -23.8238866405       16.9737277139       14.4016403535  W2        18559           0.0000000000
     55677     18559  TIP3      H2            -23.7817266405       15.4769377139       14.1786803535  W2        18559           0.0000000000
     55678     18560  TIP3      OH2           -29.0126966405       15.2074977139       17.7368603535  W2        18560           0.0000000000
     55679     18560  TIP3      H1            -29.3239466405       15.9898177139       18.1921803535  W2        18560           0.0000000000
     55680     18560  TIP3      H2            -29.6626766405       15.0544077139       17.0510603535  W2        18560           0.0000000000
     55681     18561  TIP3      OH2           -23.0337366405       10.5713377139        5.1887903535  W2        18561           0.0000000000
     55682     18561  TIP3      H1            -22.4541866405       10.7213677139        5.9356803535  W2        18561           0.0000000000
     55683     18561  TIP3      H2            -22.6197366405       11.0420777139        4.4654303535  W2        18561           0.0000000000
     55684     18562  TIP3      OH2           -32.0927066405       11.4056077139       16.9654303535  W2        18562           0.0000000000
     55685     18562  TIP3      H1            -32.0223866405       12.0562877139       17.6639303535  W2        18562           0.0000000000
     55686     18562  TIP3      H2            -32.9834866405       11.5083577139       16.6305203535  W2        18562           0.0000000000
     55687     18563  TIP3      OH2           -25.3072466405       17.3081877139        8.6241003535  W2        18563           0.0000000000
     55688     18563  TIP3      H1            -24.8334866405       17.6038177139        9.4015203535  W2        18563           0.0000000000
     55689     18563  TIP3      H2            -25.8703166405       18.0463477139        8.3910603535  W2        18563           0.0000000000
     55690     18564  TIP3      OH2           -30.7731066405       17.2789977139       18.5002403535  W2        18564           0.0000000000
     55691     18564  TIP3      H1            -30.7655766405       17.1429677139       17.5527903535  W2        18564           0.0000000000
     55692     18564  TIP3      H2            -31.6890666405       17.1618077139       18.7522403535  W2        18564           0.0000000000
     55693     18565  TIP3      OH2           -19.3348966405        2.3213777139        5.0017603535  W2        18565           0.0000000000
     55694     18565  TIP3      H1            -20.2348266405        2.4602777139        5.2968203535  W2        18565           0.0000000000
     55695     18565  TIP3      H2            -19.0830566405        3.1528377139        4.5999303535  W2        18565           0.0000000000
     55696     18566  TIP3      OH2           -31.2690466405       11.1090977139        6.9754503535  W2        18566           0.0000000000
     55697     18566  TIP3      H1            -31.5609166405       11.8772677139        6.4845803535  W2        18566           0.0000000000
     55698     18566  TIP3      H2            -31.9435266405       10.4497177139        6.8125903535  W2        18566           0.0000000000
     55699     18567  TIP3      OH2           -18.1457566405       16.6876177139        3.3781503535  W2        18567           0.0000000000
     55700     18567  TIP3      H1            -18.0724066405       17.6266377139        3.5486803535  W2        18567           0.0000000000
     55701     18567  TIP3      H2            -17.2402466405       16.3824777139        3.3218803535  W2        18567           0.0000000000
     55702     18568  TIP3      OH2           -35.1760366405       13.4720177139       15.7904303535  W2        18568           0.0000000000
     55703     18568  TIP3      H1            -35.6771966405       13.4439577139       14.9754003535  W2        18568           0.0000000000
     55704     18568  TIP3      H2            -35.1706666405       12.5663377139       16.1001603535  W2        18568           0.0000000000
     55705     18569  TIP3      OH2           -35.4257666405       16.2523977139       12.6744503535  W2        18569           0.0000000000
     55706     18569  TIP3      H1            -34.4797066405       16.1080977139       12.6554003535  W2        18569           0.0000000000
     55707     18569  TIP3      H2            -35.5381366405       17.0366777139       13.2115703535  W2        18569           0.0000000000
     55708     18570  TIP3      OH2           -17.2279166405       16.9183677139       18.3568203535  W2        18570           0.0000000000
     55709     18570  TIP3      H1            -17.2772366405       15.9631777139       18.3195803535  W2        18570           0.0000000000
     55710     18570  TIP3      H2            -18.0546866405       17.1858977139       18.7582003535  W2        18570           0.0000000000
     55711     18571  TIP3      OH2           -26.2495166405       16.4922877139       17.2329603535  W2        18571           0.0000000000
     55712     18571  TIP3      H1            -26.1620566405       17.3187477139       17.7078703535  W2        18571           0.0000000000
     55713     18571  TIP3      H2            -27.1130066405       16.1626677139       17.4818903535  W2        18571           0.0000000000
     55714     18572  TIP3      OH2           -25.8349366405       20.2646577139        7.0390203535  W2        18572           0.0000000000
     55715     18572  TIP3      H1            -25.9103366405       20.1433777139        6.0925403535  W2        18572           0.0000000000
     55716     18572  TIP3      H2            -25.8020666405       21.2139277139        7.1574803535  W2        18572           0.0000000000
     55717     18573  TIP3      OH2           -32.1815566405       19.0533577139        8.8199203535  W2        18573           0.0000000000
     55718     18573  TIP3      H1            -32.0295166405       18.7053977139        9.6985703535  W2        18573           0.0000000000
     55719     18573  TIP3      H2            -33.0325166405       18.6970877139        8.5646403535  W2        18573           0.0000000000
     55720     18574  TIP3      OH2           -22.7333366405       19.4186777139        4.0412603535  W2        18574           0.0000000000
     55721     18574  TIP3      H1            -22.3584966405       18.6742877139        3.5705203535  W2        18574           0.0000000000
     55722     18574  TIP3      H2            -22.7289666405       19.1487377139        4.9595903535  W2        18574           0.0000000000
     55723     18575  TIP3      OH2           -23.0645266405       19.3443877139        6.7904803535  W2        18575           0.0000000000
     55724     18575  TIP3      H1            -23.9995466405       19.4445777139        6.9691803535  W2        18575           0.0000000000
     55725     18575  TIP3      H2            -22.7843366405       18.6349877139        7.3688003535  W2        18575           0.0000000000
     55726     18576  TIP3      OH2           -20.0759366405        8.4116177139       18.8370403535  W2        18576           0.0000000000
     55727     18576  TIP3      H1            -20.4832566405        8.8921777139       18.1163703535  W2        18576           0.0000000000
     55728     18576  TIP3      H2            -20.0353666405        7.5062177139       18.5291203535  W2        18576           0.0000000000
     55729     18577  TIP3      OH2           -32.9269866405       14.7955577139       16.8337103535  W2        18577           0.0000000000
     55730     18577  TIP3      H1            -32.7108566405       14.4341177139       17.6932903535  W2        18577           0.0000000000
     55731     18577  TIP3      H2            -33.7825166405       14.4209377139       16.6240603535  W2        18577           0.0000000000
     55732     18578  TIP3      OH2           -30.3081866405        3.2656077139       12.8291303535  W2        18578           0.0000000000
     55733     18578  TIP3      H1            -31.1698166405        3.1784277139       12.4214203535  W2        18578           0.0000000000
     55734     18578  TIP3      H2            -30.3306166405        4.1216177139       13.2568903535  W2        18578           0.0000000000
     55735     18579  TIP3      OH2           -25.6454066405        2.9876477139       16.2038303535  W2        18579           0.0000000000
     55736     18579  TIP3      H1            -25.2250966405        2.5723577139       16.9568903535  W2        18579           0.0000000000
     55737     18579  TIP3      H2            -26.5784466405        2.8089777139       16.3210303535  W2        18579           0.0000000000
     55738     18580  TIP3      OH2           -22.3189166405        6.7431677139       17.0572803535  W2        18580           0.0000000000
     55739     18580  TIP3      H1            -22.8329666405        6.6173877139       17.8548803535  W2        18580           0.0000000000
     55740     18580  TIP3      H2            -22.4744466405        7.6554777139       16.8129003535  W2        18580           0.0000000000
     55741     18581  TIP3      OH2           -21.5564266405       11.6041677139        2.8185803535  W2        18581           0.0000000000
     55742     18581  TIP3      H1            -21.5143466405       11.3815577139        1.8885803535  W2        18581           0.0000000000
     55743     18581  TIP3      H2            -20.7072166405       12.0028777139        3.0085703535  W2        18581           0.0000000000
     55744     18582  TIP3      OH2           -25.9836766405        5.4799877139        3.4889103535  W2        18582           0.0000000000
     55745     18582  TIP3      H1            -26.2371966405        5.4991477139        4.4117203535  W2        18582           0.0000000000
     55746     18582  TIP3      H2            -26.2404666405        4.6085277139        3.1875303535  W2        18582           0.0000000000
     55747     18583  TIP3      OH2           -30.2171766405        8.2310577139       13.9241503535  W2        18583           0.0000000000
     55748     18583  TIP3      H1            -30.8589666405        8.1907877139       14.6331603535  W2        18583           0.0000000000
     55749     18583  TIP3      H2            -30.1799766405        9.1575277139       13.6864503535  W2        18583           0.0000000000
     55750     18584  TIP3      OH2           -30.2202666405        8.4520677139        8.8361503535  W2        18584           0.0000000000
     55751     18584  TIP3      H1            -31.1129766405        8.1116777139        8.7775303535  W2        18584           0.0000000000
     55752     18584  TIP3      H2            -29.7696066405        8.0751577139        8.0804703535  W2        18584           0.0000000000
     55753     18585  TIP3      OH2           -24.6847166405        8.8680977139        7.6532303535  W2        18585           0.0000000000
     55754     18585  TIP3      H1            -25.0936866405        9.6829577139        7.3617103535  W2        18585           0.0000000000
     55755     18585  TIP3      H2            -23.9640966405        8.7281077139        7.0389403535  W2        18585           0.0000000000
     55756     18586  TIP3      OH2           -25.5825566405        9.0437377139       19.1413003535  W2        18586           0.0000000000
     55757     18586  TIP3      H1            -26.1451766405        8.3388977139       19.4620803535  W2        18586           0.0000000000
     55758     18586  TIP3      H2            -24.7562166405        8.9229277139       19.6090603535  W2        18586           0.0000000000
     55759     18587  TIP3      OH2           -23.6799466405        8.3141377139       10.4672003535  W2        18587           0.0000000000
     55760     18587  TIP3      H1            -23.8754966405        8.9198177139        9.7522603535  W2        18587           0.0000000000
     55761     18587  TIP3      H2            -23.4986866405        7.4806577139       10.0328303535  W2        18587           0.0000000000
     55762     18588  TIP3      OH2           -32.4671266405        8.5514077139       15.7913503535  W2        18588           0.0000000000
     55763     18588  TIP3      H1            -32.5051866405        8.9515677139       16.6600603535  W2        18588           0.0000000000
     55764     18588  TIP3      H2            -32.9580166405        7.7346477139       15.8816403535  W2        18588           0.0000000000
     55765     18589  TIP3      OH2           -29.1013866405        5.9256377139        2.5899503535  W2        18589           0.0000000000
     55766     18589  TIP3      H1            -29.5323166405        5.4806477139        3.3196903535  W2        18589           0.0000000000
     55767     18589  TIP3      H2            -29.8195166405        6.2972677139        2.0777003535  W2        18589           0.0000000000
     55768     18590  TIP3      OH2           -35.8590466405        5.6675877139        9.6418203535  W2        18590           0.0000000000
     55769     18590  TIP3      H1            -35.2282766405        5.6387977139       10.3612103535  W2        18590           0.0000000000
     55770     18590  TIP3      H2            -35.4096166405        5.2424577139        8.9114103535  W2        18590           0.0000000000
     55771     18591  TIP3      OH2           -34.5848366405        6.4137877139        5.0658603535  W2        18591           0.0000000000
     55772     18591  TIP3      H1            -34.1106666405        7.0047777139        4.4809503535  W2        18591           0.0000000000
     55773     18591  TIP3      H2            -35.3021966405        6.9440777139        5.4128703535  W2        18591           0.0000000000
     55774     18592  TIP3      OH2           -24.4160266405        9.9522677139       15.1384403535  W2        18592           0.0000000000
     55775     18592  TIP3      H1            -24.0925466405        9.3212377139       14.4954903535  W2        18592           0.0000000000
     55776     18592  TIP3      H2            -24.8560966405        9.4174877139       15.7991803535  W2        18592           0.0000000000
     55777     18593  TIP3      OH2           -27.6387366405        5.8798177139        9.9225603535  W2        18593           0.0000000000
     55778     18593  TIP3      H1            -28.5496266405        5.9364977139       10.2111603535  W2        18593           0.0000000000
     55779     18593  TIP3      H2            -27.1334466405        5.8193677139       10.7332803535  W2        18593           0.0000000000
     55780     18594  TIP3      OH2           -32.8103966405        7.5084477139        8.7493203535  W2        18594           0.0000000000
     55781     18594  TIP3      H1            -33.6995966405        7.6079977139        8.4092803535  W2        18594           0.0000000000
     55782     18594  TIP3      H2            -32.5139066405        6.6667477139        8.4031103535  W2        18594           0.0000000000
     55783     18595  TIP3      OH2           -29.1572166405        7.5087077139        6.4057803535  W2        18595           0.0000000000
     55784     18595  TIP3      H1            -28.2256666405        7.6377077139        6.5840903535  W2        18595           0.0000000000
     55785     18595  TIP3      H2            -29.3721866405        8.1781377139        5.7562503535  W2        18595           0.0000000000
     55786     18596  TIP3      OH2           -23.2335466405        5.1144477139       13.1867403535  W2        18596           0.0000000000
     55787     18596  TIP3      H1            -23.9103866405        5.2457577139       13.8507103535  W2        18596           0.0000000000
     55788     18596  TIP3      H2            -23.7190566405        4.9593977139       12.3765103535  W2        18596           0.0000000000
     55789     18597  TIP3      OH2           -30.4831966405        8.7029277139        3.9723903535  W2        18597           0.0000000000
     55790     18597  TIP3      H1            -31.0256866405        8.3233077139        3.2811503535  W2        18597           0.0000000000
     55791     18597  TIP3      H2            -29.6497066405        8.8973977139        3.5438003535  W2        18597           0.0000000000
     55792     18598  TIP3      OH2           -19.9460366405       20.7859877139       19.4635003535  W2        18598           0.0000000000
     55793     18598  TIP3      H1            -19.7461666405       21.2101777139       18.6290303535  W2        18598           0.0000000000
     55794     18598  TIP3      H2            -19.2906666405       21.1298077139       20.0705403535  W2        18598           0.0000000000
     55795     18599  TIP3      OH2           -32.3480566405       13.2601177139       19.0715503535  W2        18599           0.0000000000
     55796     18599  TIP3      H1            -31.6158166405       13.5147077139       19.6330003535  W2        18599           0.0000000000
     55797     18599  TIP3      H2            -33.1281866405       13.4646577139       19.5870903535  W2        18599           0.0000000000
     55798     18600  TIP3      OH2           -26.3187666405        8.6671177139       11.8095203535  W2        18600           0.0000000000
     55799     18600  TIP3      H1            -25.7544266405        8.1207777139       11.2624803535  W2        18600           0.0000000000
     55800     18600  TIP3      H2            -26.4664266405        8.1453077139       12.5982803535  W2        18600           0.0000000000
     55801     18601  TIP3      OH2           -31.3167966405        4.8037277139        8.2280003535  W2        18601           0.0000000000
     55802     18601  TIP3      H1            -31.6338466405        3.9012577139        8.1925403535  W2        18601           0.0000000000
     55803     18601  TIP3      H2            -30.5353866405        4.8054677139        7.6751603535  W2        18601           0.0000000000
     55804     18602  TIP3      OH2           -27.6921766405        7.0557277139       14.2235603535  W2        18602           0.0000000000
     55805     18602  TIP3      H1            -28.5276466405        7.5096777139       14.3338003535  W2        18602           0.0000000000
     55806     18602  TIP3      H2            -27.1681166405        7.3315777139       14.9755503535  W2        18602           0.0000000000
     55807     18603  TIP3      OH2           -27.1479166405       13.2684977139        5.9082003535  W2        18603           0.0000000000
     55808     18603  TIP3      H1            -27.8928166405       12.7610277139        5.5859903535  W2        18603           0.0000000000
     55809     18603  TIP3      H2            -27.2821966405       13.3172977139        6.8546803535  W2        18603           0.0000000000
     55810     18604  TIP3      OH2           -19.9980266405       12.4013177139       14.6949603535  W2        18604           0.0000000000
     55811     18604  TIP3      H1            -19.3561466405       12.8579477139       14.1511803535  W2        18604           0.0000000000
     55812     18604  TIP3      H2            -20.8283366405       12.5145577139       14.2323703535  W2        18604           0.0000000000
     55813     18605  TIP3      OH2           -23.2502366405        6.0824877139        4.1074603535  W2        18605           0.0000000000
     55814     18605  TIP3      H1            -24.1888166405        6.1940477139        3.9563403535  W2        18605           0.0000000000
     55815     18605  TIP3      H2            -22.9530266405        6.9391777139        4.4140303535  W2        18605           0.0000000000
     55816     18606  TIP3      OH2           -25.6287066405       13.4528277139       17.1451103535  W2        18606           0.0000000000
     55817     18606  TIP3      H1            -25.9740966405       13.0710677139       17.9520703535  W2        18606           0.0000000000
     55818     18606  TIP3      H2            -25.8286966405       14.3861877139       17.2164003535  W2        18606           0.0000000000
     55819     18607  TIP3      OH2           -22.5318866405        7.9497577139        5.7682003535  W2        18607           0.0000000000
     55820     18607  TIP3      H1            -21.6399866405        7.8122577139        6.0873203535  W2        18607           0.0000000000
     55821     18607  TIP3      H2            -22.4755266405        8.7403677139        5.2315503535  W2        18607           0.0000000000
     55822     18608  TIP3      OH2           -32.0230866405       12.5634977139       11.6779903535  W2        18608           0.0000000000
     55823     18608  TIP3      H1            -31.2783666405       12.5610677139       11.0766403535  W2        18608           0.0000000000
     55824     18608  TIP3      H2            -31.9454266405       11.7398777139       12.1595003535  W2        18608           0.0000000000
     55825     18609  TIP3      OH2           -25.0225066405       14.7269277139        4.9336603535  W2        18609           0.0000000000
     55826     18609  TIP3      H1            -25.3176666405       15.5537177139        5.3151403535  W2        18609           0.0000000000
     55827     18609  TIP3      H2            -25.7255066405       14.1076177139        5.1298003535  W2        18609           0.0000000000
     55828     18610  TIP3      OH2           -35.0151166405       11.0241877139       16.9928403535  W2        18610           0.0000000000
     55829     18610  TIP3      H1            -34.7922566405       10.6061477139       17.8245903535  W2        18610           0.0000000000
     55830     18610  TIP3      H2            -35.6171066405       10.4116877139       16.5701203535  W2        18610           0.0000000000
     55831     18611  TIP3      OH2           -27.9986266405       10.5411777139       19.2058103535  W2        18611           0.0000000000
     55832     18611  TIP3      H1            -28.2945466405       10.3754777139       18.3107203535  W2        18611           0.0000000000
     55833     18611  TIP3      H2            -27.0671066405       10.3212077139       19.1952003535  W2        18611           0.0000000000
     55834     18612  TIP3      OH2           -23.3783466405       15.9143777139       17.0956103535  W2        18612           0.0000000000
     55835     18612  TIP3      H1            -24.2789166405       16.0976377139       16.8280003535  W2        18612           0.0000000000
     55836     18612  TIP3      H2            -23.3442366405       16.1733077139       18.0164903535  W2        18612           0.0000000000
     55837     18613  TIP3      OH2           -17.6470166405        8.1591677139        5.4628703535  W2        18613           0.0000000000
     55838     18613  TIP3      H1            -18.2013866405        7.7629677139        4.7906203535  W2        18613           0.0000000000
     55839     18613  TIP3      H2            -17.5466566405        9.0696877139        5.1852003535  W2        18613           0.0000000000
     55840     18614  TIP3      OH2           -17.6838166405       13.9593377139       18.3000203535  W2        18614           0.0000000000
     55841     18614  TIP3      H1            -18.5349666405       14.1977177139       17.9326603535  W2        18614           0.0000000000
     55842     18614  TIP3      H2            -17.0934766405       13.9426577139       17.5467303535  W2        18614           0.0000000000
     55843     18615  TIP3      OH2           -19.3518466405       16.9452077139        5.9280803535  W2        18615           0.0000000000
     55844     18615  TIP3      H1            -19.7247366405       16.1195877139        6.2371403535  W2        18615           0.0000000000
     55845     18615  TIP3      H2            -19.0744966405       16.7621477139        5.0304203535  W2        18615           0.0000000000
     55846     18616  TIP3      OH2           -22.1914566405       11.7531577139       12.9492703535  W2        18616           0.0000000000
     55847     18616  TIP3      H1            -23.1197666405       11.5213477139       12.9222003535  W2        18616           0.0000000000
     55848     18616  TIP3      H2            -21.7403466405       10.9761377139       12.6191503535  W2        18616           0.0000000000
     55849     18617  TIP3      OH2           -29.6481466405       16.0813177139        9.0821403535  W2        18617           0.0000000000
     55850     18617  TIP3      H1            -29.1209266405       16.8547577139        8.8820203535  W2        18617           0.0000000000
     55851     18617  TIP3      H2            -30.5282966405       16.3062377139        8.7805403535  W2        18617           0.0000000000
     55852     18618  TIP3      OH2           -33.8933766405       10.9437277139        3.6693803535  W2        18618           0.0000000000
     55853     18618  TIP3      H1            -33.2773866405       11.5704477139        4.0488603535  W2        18618           0.0000000000
     55854     18618  TIP3      H2            -34.7551166405       11.2597077139        3.9410303535  W2        18618           0.0000000000
     55855     18619  TIP3      OH2           -28.2209166405       13.7443077139        8.6585703535  W2        18619           0.0000000000
     55856     18619  TIP3      H1            -28.4619166405       14.6697477139        8.7001003535  W2        18619           0.0000000000
     55857     18619  TIP3      H2            -28.9615566405       13.2854377139        9.0549603535  W2        18619           0.0000000000
     55858     18620  TIP3      OH2           -27.7062566405       17.8936677139       14.9736803535  W2        18620           0.0000000000
     55859     18620  TIP3      H1            -27.3437866405       18.7482277139       14.7401203535  W2        18620           0.0000000000
     55860     18620  TIP3      H2            -27.1747366405       17.6018277139       15.7143103535  W2        18620           0.0000000000
     55861     18621  TIP3      OH2           -29.5378366405       18.7660677139        8.2037903535  W2        18621           0.0000000000
     55862     18621  TIP3      H1            -30.4877866405       18.8718077139        8.2551203535  W2        18621           0.0000000000
     55863     18621  TIP3      H2            -29.1860266405       19.5868077139        8.5485403535  W2        18621           0.0000000000
     55864     18622  TIP3      OH2           -24.1621766405       13.9927377139       14.6742403535  W2        18622           0.0000000000
     55865     18622  TIP3      H1            -24.5880466405       13.7649077139       15.5006403535  W2        18622           0.0000000000
     55866     18622  TIP3      H2            -23.5815966405       13.2539177139       14.4917703535  W2        18622           0.0000000000
     55867     18623  TIP3      OH2           -21.9592866405       14.9217877139        3.7481403535  W2        18623           0.0000000000
     55868     18623  TIP3      H1            -21.6059766405       14.5417677139        4.5524903535  W2        18623           0.0000000000
     55869     18623  TIP3      H2            -22.9079366405       14.8282677139        3.8350703535  W2        18623           0.0000000000
     55870     18624  TIP3      OH2           -21.5037566405       18.5446877139       17.1437203535  W2        18624           0.0000000000
     55871     18624  TIP3      H1            -22.1054366405       17.9889777139       16.6483503535  W2        18624           0.0000000000
     55872     18624  TIP3      H2            -21.2223866405       19.2116677139       16.5174603535  W2        18624           0.0000000000
     55873     18625  TIP3      OH2           -17.4558466405       19.4010377139        3.9491603535  W2        18625           0.0000000000
     55874     18625  TIP3      H1            -16.7120566405       19.9870877139        3.8093203535  W2        18625           0.0000000000
     55875     18625  TIP3      H2            -18.1500366405       19.9696177139        4.2824003535  W2        18625           0.0000000000
     55876     18626  TIP3      OH2           -33.3811666405        5.7774577139       16.5509803535  W2        18626           0.0000000000
     55877     18626  TIP3      H1            -34.2739366405        6.1159977139       16.4833803535  W2        18626           0.0000000000
     55878     18626  TIP3      H2            -33.4798866405        4.9220677139       16.9690603535  W2        18626           0.0000000000
     55879     18627  TIP3      OH2           -21.0933566405       13.5939877139        5.9749303535  W2        18627           0.0000000000
     55880     18627  TIP3      H1            -21.3705966405       12.8659177139        6.5310403535  W2        18627           0.0000000000
     55881     18627  TIP3      H2            -20.1660566405       13.7131877139        6.1801903535  W2        18627           0.0000000000
     55882     18628  TIP3      OH2           -33.7299666405       17.5818977139       14.9859203535  W2        18628           0.0000000000
     55883     18628  TIP3      H1            -33.5129366405       16.6501377139       14.9548903535  W2        18628           0.0000000000
     55884     18628  TIP3      H2            -33.4836166405       17.8563977139       15.8692003535  W2        18628           0.0000000000
     55885     18629  TIP3      OH2           -27.8685066405       16.0333977139        2.1951403535  W2        18629           0.0000000000
     55886     18629  TIP3      H1            -27.6295266405       15.2852077139        1.6480303535  W2        18629           0.0000000000
     55887     18629  TIP3      H2            -28.1373766405       15.6455677139        3.0279203535  W2        18629           0.0000000000
     55888     18630  TIP3      OH2           -28.9314466405       15.6037777139        4.6514003535  W2        18630           0.0000000000
     55889     18630  TIP3      H1            -28.7846466405       15.0837577139        5.4414903535  W2        18630           0.0000000000
     55890     18630  TIP3      H2            -28.9342766405       16.5105377139        4.9579903535  W2        18630           0.0000000000
     55891     18631  TIP3      OH2           -32.4783366405       12.8561077139        5.1619403535  W2        18631           0.0000000000
     55892     18631  TIP3      H1            -33.1644066405       13.2083577139        5.7289103535  W2        18631           0.0000000000
     55893     18631  TIP3      H2            -31.9555466405       13.6190677139        4.9153703535  W2        18631           0.0000000000
     55894     18632  TIP3      OH2           -24.6468266405        5.5184877139       15.4408403535  W2        18632           0.0000000000
     55895     18632  TIP3      H1            -23.9480366405        5.5923577139       16.0908103535  W2        18632           0.0000000000
     55896     18632  TIP3      H2            -25.0276866405        4.6539877139       15.5951303535  W2        18632           0.0000000000
     55897     18633  TIP3      OH2           -23.8623366405        5.1706577139        6.5380703535  W2        18633           0.0000000000
     55898     18633  TIP3      H1            -23.6425066405        5.6421977139        5.7346103535  W2        18633           0.0000000000
     55899     18633  TIP3      H2            -23.3039366405        5.5649177139        7.2081303535  W2        18633           0.0000000000
     55900     18634  TIP3      OH2           -26.1937266405       17.3011377139        5.4008203535  W2        18634           0.0000000000
     55901     18634  TIP3      H1            -27.0101166405       17.7981077139        5.4532503535  W2        18634           0.0000000000
     55902     18634  TIP3      H2            -25.6640966405       17.7764877139        4.7607003535  W2        18634           0.0000000000
     55903     18635  TIP3      OH2           -26.6623466405        6.8985377139        7.3729103535  W2        18635           0.0000000000
     55904     18635  TIP3      H1            -25.8500866405        7.4028577139        7.4190803535  W2        18635           0.0000000000
     55905     18635  TIP3      H2            -26.9070466405        6.7535077139        8.2868703535  W2        18635           0.0000000000
     55906     18636  TIP3      OH2           -26.1267066405        7.8848077139       16.5575703535  W2        18636           0.0000000000
     55907     18636  TIP3      H1            -26.0076766405        8.4583477139       17.3146103535  W2        18636           0.0000000000
     55908     18636  TIP3      H2            -25.4712466405        7.1967477139       16.6723503535  W2        18636           0.0000000000
     55909     18637  TIP3      OH2           -25.7786766405        3.9798377139        8.3110203535  W2        18637           0.0000000000
     55910     18637  TIP3      H1            -26.1253266405        4.5968977139        8.9554503535  W2        18637           0.0000000000
     55911     18637  TIP3      H2            -25.1199866405        4.4804077139        7.8295703535  W2        18637           0.0000000000
     55912     18638  TIP3      OH2           -28.8554166405       18.3448577139        5.3825103535  W2        18638           0.0000000000
     55913     18638  TIP3      H1            -28.6945466405       19.1446077139        4.8817703535  W2        18638           0.0000000000
     55914     18638  TIP3      H2            -29.0526366405       18.6514577139        6.2675703535  W2        18638           0.0000000000
     55915     18639  TIP3      OH2           -30.1209766405        5.0427777139        4.9982703535  W2        18639           0.0000000000
     55916     18639  TIP3      H1            -30.2044966405        5.9310877139        5.3449103535  W2        18639           0.0000000000
     55917     18639  TIP3      H2            -29.2309466405        4.7774477139        5.2299503535  W2        18639           0.0000000000
     55918     18640  TIP3      OH2           -19.9221266405        5.7918377139       17.3925403535  W2        18640           0.0000000000
     55919     18640  TIP3      H1            -20.8385466405        6.0540077139       17.3049103535  W2        18640           0.0000000000
     55920     18640  TIP3      H2            -19.5866266405        5.7887377139       16.4960703535  W2        18640           0.0000000000
     55921     18641  TIP3      OH2           -21.3200266405        9.5419377139       11.4882703535  W2        18641           0.0000000000
     55922     18641  TIP3      H1            -22.1175866405        9.1269577139       11.1597703535  W2        18641           0.0000000000
     55923     18641  TIP3      H2            -20.8749166405        8.8513077139       11.9793203535  W2        18641           0.0000000000
     55924     18642  TIP3      OH2           -31.8624466405       15.4699977139        4.0587203535  W2        18642           0.0000000000
     55925     18642  TIP3      H1            -31.2702966405       16.1694777139        4.3349603535  W2        18642           0.0000000000
     55926     18642  TIP3      H2            -31.4031466405       15.0369477139        3.3391803535  W2        18642           0.0000000000
     55927     18643  TIP3      OH2           -33.5465266405        8.1342977139        3.1746603535  W2        18643           0.0000000000
     55928     18643  TIP3      H1            -33.5912666405        9.0736077139        3.3533603535  W2        18643           0.0000000000
     55929     18643  TIP3      H2            -34.4342066405        7.8987877139        2.9048703535  W2        18643           0.0000000000
     55930     18644  TIP3      OH2           -20.2335666405       18.7981877139       13.1106203535  W2        18644           0.0000000000
     55931     18644  TIP3      H1            -20.3891366405       19.4766277139       12.4535503535  W2        18644           0.0000000000
     55932     18644  TIP3      H2            -19.3009266405       18.8701177139       13.3136803535  W2        18644           0.0000000000
     55933     18645  TIP3      OH2           -32.7383266405        2.9159577139       11.8477603535  W2        18645           0.0000000000
     55934     18645  TIP3      H1            -32.9673466405        2.9752077139       10.9202603535  W2        18645           0.0000000000
     55935     18645  TIP3      H2            -33.1809866405        2.1245077139       12.1541703535  W2        18645           0.0000000000
     55936     18646  TIP3      OH2           -33.8079966405       16.8566677139        8.0083403535  W2        18646           0.0000000000
     55937     18646  TIP3      H1            -34.6401366405       17.3289377139        8.0354803535  W2        18646           0.0000000000
     55938     18646  TIP3      H2            -33.2621666405       17.3664277139        7.4096503535  W2        18646           0.0000000000
     55939     18647  TIP3      OH2           -34.5196266405       19.4690377139       19.3381403535  W2        18647           0.0000000000
     55940     18647  TIP3      H1            -33.9794066405       19.2524377139       20.0980603535  W2        18647           0.0000000000
     55941     18647  TIP3      H2            -35.0008266405       18.6636377139       19.1483903535  W2        18647           0.0000000000
     55942     18648  TIP3      OH2           -29.9222866405       18.3884777139       20.9585603535  W2        18648           0.0000000000
     55943     18648  TIP3      H1            -29.1545666405       17.9295577139       21.2994803535  W2        18648           0.0000000000
     55944     18648  TIP3      H2            -29.9436666405       18.1624577139       20.0286803535  W2        18648           0.0000000000
     55945     18649  TIP3      OH2           -25.8303266405       17.8965377139        2.3337403535  W2        18649           0.0000000000
     55946     18649  TIP3      H1            -26.4742266405       17.2653977139        2.6551103535  W2        18649           0.0000000000
     55947     18649  TIP3      H2            -25.0684966405       17.3653377139        2.1020903535  W2        18649           0.0000000000
     55948     18650  TIP3      OH2           -23.3454166405       16.7685877139       19.6877103535  W2        18650           0.0000000000
     55949     18650  TIP3      H1            -23.6964666405       15.9118877139       19.9307503535  W2        18650           0.0000000000
     55950     18650  TIP3      H2            -22.6190966405       16.9112577139       20.2946103535  W2        18650           0.0000000000
     55951     18651  TIP3      OH2           -21.2260366405       17.7135277139        2.5675403535  W2        18651           0.0000000000
     55952     18651  TIP3      H1            -20.9429966405       16.9190477139        3.0202303535  W2        18651           0.0000000000
     55953     18651  TIP3      H2            -20.4862466405       17.9466277139        2.0066503535  W2        18651           0.0000000000
     55954     18652  TIP3      OH2           -34.6126766405       13.2794477139       20.2925703535  W2        18652           0.0000000000
     55955     18652  TIP3      H1            -34.4686266405       12.3775177139       20.0062403535  W2        18652           0.0000000000
     55956     18652  TIP3      H2            -35.3849366405       13.5656577139       19.8048003535  W2        18652           0.0000000000
     55957     18653  TIP3      OH2           -30.2713066405       13.6230177139        2.4250303535  W2        18653           0.0000000000
     55958     18653  TIP3      H1            -30.2068966405       12.8289777139        2.9556703535  W2        18653           0.0000000000
     55959     18653  TIP3      H2            -29.6183866405       13.5042977139        1.7352303535  W2        18653           0.0000000000
     55960     18654  TIP3      OH2           -27.9570666405       13.2492577139       19.7252103535  W2        18654           0.0000000000
     55961     18654  TIP3      H1            -28.2856866405       13.5200677139       18.8679503535  W2        18654           0.0000000000
     55962     18654  TIP3      H2            -27.8052466405       12.3082377139       19.6377103535  W2        18654           0.0000000000
     55963     18655  TIP3      OH2           -24.9189666405       14.6701877139        2.1608303535  W2        18655           0.0000000000
     55964     18655  TIP3      H1            -25.1875566405       14.8503977139        3.0617203535  W2        18655           0.0000000000
     55965     18655  TIP3      H2            -25.1254066405       13.7448077139        2.0294103535  W2        18655           0.0000000000
     55966     18656  TIP3      OH2           -22.2225466405       13.1649877139       17.1084403535  W2        18656           0.0000000000
     55967     18656  TIP3      H1            -21.4770666405       13.7533577139       16.9888403535  W2        18656           0.0000000000
     55968     18656  TIP3      H2            -22.9798666405       13.7469577139       17.1717503535  W2        18656           0.0000000000
     55969     18657  TIP3      OH2           -33.7800266405       10.4797777139       19.7125003535  W2        18657           0.0000000000
     55970     18657  TIP3      H1            -33.3719066405        9.6224377139       19.5915603535  W2        18657           0.0000000000
     55971     18657  TIP3      H2            -34.0402666405       10.4939077139       20.6335303535  W2        18657           0.0000000000
     55972     18658  TIP3      OH2           -29.1219266405       11.5956377139        4.7308303535  W2        18658           0.0000000000
     55973     18658  TIP3      H1            -29.5817266405       11.1114677139        5.4166803535  W2        18658           0.0000000000
     55974     18658  TIP3      H2            -28.8670566405       10.9271777139        4.0948803535  W2        18658           0.0000000000
     55975     18659  TIP3      OH2           -29.8329966405        9.4883477139       17.0867903535  W2        18659           0.0000000000
     55976     18659  TIP3      H1            -30.4513866405       10.1630077139       17.3672603535  W2        18659           0.0000000000
     55977     18659  TIP3      H2            -29.4888766405        9.8097377139       16.2534103535  W2        18659           0.0000000000
     55978     18660  TIP3      OH2           -28.0508866405        9.8388177139        2.9931503535  W2        18660           0.0000000000
     55979     18660  TIP3      H1            -28.2313866405        9.6839377139        2.0659803535  W2        18660           0.0000000000
     55980     18660  TIP3      H2            -27.1008366405        9.9466877139        3.0379403535  W2        18660           0.0000000000
     55981     18661  TIP3      OH2           -24.8131766405       11.9598777139       20.3642703535  W2        18661           0.0000000000
     55982     18661  TIP3      H1            -23.8600566405       12.0437877139       20.3368703535  W2        18661           0.0000000000
     55983     18661  TIP3      H2            -24.9737166405       11.2480577139       20.9837603535  W2        18661           0.0000000000
     55984     18662  TIP3      OH2           -18.6610566405       12.1932377139        2.4389603535  W2        18662           0.0000000000
     55985     18662  TIP3      H1            -18.9345766405       11.7687877139        1.6257903535  W2        18662           0.0000000000
     55986     18662  TIP3      H2            -18.6216466405       13.1246877139        2.2220003535  W2        18662           0.0000000000
     55987     18663  TIP3      OH2           -29.4936266405        6.8434277139       18.1691003535  W2        18663           0.0000000000
     55988     18663  TIP3      H1            -29.3435366405        6.1145577139       17.5670703535  W2        18663           0.0000000000
     55989     18663  TIP3      H2            -29.4913866405        7.6205977139       17.6103203535  W2        18663           0.0000000000
     55990     18664  TIP3      OH2           -29.0810566405        5.2130077139       15.6618403535  W2        18664           0.0000000000
     55991     18664  TIP3      H1            -28.5453066405        5.6646777139       15.0097703535  W2        18664           0.0000000000
     55992     18664  TIP3      H2            -29.9330966405        5.1049877139       15.2392503535  W2        18664           0.0000000000
     55993     18665  TIP3      OH2           -27.4992166405       10.6526277139       15.9013603535  W2        18665           0.0000000000
     55994     18665  TIP3      H1            -26.7487366405       10.4963777139       15.3281403535  W2        18665           0.0000000000
     55995     18665  TIP3      H2            -27.8383866405       11.5042877139       15.6259103535  W2        18665           0.0000000000
     55996     18666  TIP3      OH2           -23.0835966405        8.4678077139       20.9298903535  W2        18666           0.0000000000
     55997     18666  TIP3      H1            -22.8914666405        7.5367477139       20.8183403535  W2        18666           0.0000000000
     55998     18666  TIP3      H2            -22.2259666405        8.8927577139       20.9194303535  W2        18666           0.0000000000
     55999     18667  TIP3      OH2           -21.7668766405       11.2563277139       19.0071603535  W2        18667           0.0000000000
     56000     18667  TIP3      H1            -22.0483766405       11.9657877139       18.4295403535  W2        18667           0.0000000000
     56001     18667  TIP3      H2            -20.8244466405       11.1836277139       18.8562803535  W2        18667           0.0000000000
     56002     18668  TIP3      OH2           -31.0149966405        8.0417777139       20.0806603535  W2        18668           0.0000000000
     56003     18668  TIP3      H1            -31.7820966405        7.5092577139       19.8704203535  W2        18668           0.0000000000
     56004     18668  TIP3      H2            -30.3360966405        7.7318177139       19.4812903535  W2        18668           0.0000000000
     56005     18669  TIP3      OH2           -28.2755066405        2.6695777139       16.0932003535  W2        18669           0.0000000000
     56006     18669  TIP3      H1            -28.3735466405        3.6158977139       15.9878203535  W2        18669           0.0000000000
     56007     18669  TIP3      H2            -29.0178866405        2.2969577139       15.6175503535  W2        18669           0.0000000000
     56008     18670  TIP3      OH2           -27.0114566405        6.9911177139       19.6570403535  W2        18670           0.0000000000
     56009     18670  TIP3      H1            -27.2469166405        6.7717877139       20.5585303535  W2        18670           0.0000000000
     56010     18670  TIP3      H2            -27.7947666405        6.7842377139       19.1472903535  W2        18670           0.0000000000
     56011     18671  TIP3      OH2           -24.2957966405        6.1184677139       18.7323903535  W2        18671           0.0000000000
     56012     18671  TIP3      H1            -25.2432566405        6.1504377139       18.8647203535  W2        18671           0.0000000000
     56013     18671  TIP3      H2            -23.9831266405        5.4931777139       19.3862103535  W2        18671           0.0000000000
     56014     18672  TIP3      OH2           -22.6616466405        4.7525777139       20.7375803535  W2        18672           0.0000000000
     56015     18672  TIP3      H1            -22.7584666405        3.8003077139       20.7317703535  W2        18672           0.0000000000
     56016     18672  TIP3      H2            -22.9833366405        5.0212577139       21.5981303535  W2        18672           0.0000000000
     56017     18673  TIP3      OH2           -32.8347166405        5.9621577139       19.7851303535  W2        18673           0.0000000000
     56018     18673  TIP3      H1            -32.6229766405        5.2557677139       19.1748803535  W2        18673           0.0000000000
     56019     18673  TIP3      H2            -32.9459666405        5.5247577139       20.6292503535  W2        18673           0.0000000000
     56020     18674  TIP3      OH2           -28.0536966405        1.9633177139       18.7644803535  W2        18674           0.0000000000
     56021     18674  TIP3      H1            -27.3418566405        1.3235377139       18.7503903535  W2        18674           0.0000000000
     56022     18674  TIP3      H2            -28.1546566405        2.2301477139       17.8507903535  W2        18674           0.0000000000
     56023     18675  TIP3      OH2           -27.6999466405        3.6461577139       20.8181103535  W2        18675           0.0000000000
     56024     18675  TIP3      H1            -27.8317266405        3.1705377139       19.9979603535  W2        18675           0.0000000000
     56025     18675  TIP3      H2            -28.2992066405        4.3905177139       20.7628203535  W2        18675           0.0000000000
     56026     18676  TIP3      OH2           -28.1537166405       20.5291877139        3.9945103535  W2        18676           0.0000000000
     56027     18676  TIP3      H1            -27.2206466405       20.6870577139        4.1383503535  W2        18676           0.0000000000
     56028     18676  TIP3      H2            -28.4178366405       21.2044877139        3.3696603535  W2        18676           0.0000000000
     56029     18677  TIP3      OH2           -34.5852266405       15.1655677139        3.4773203535  W2        18677           0.0000000000
     56030     18677  TIP3      H1            -33.6713066405       15.2444577139        3.7507103535  W2        18677           0.0000000000
     56031     18677  TIP3      H2            -34.5779166405       14.4785277139        2.8108803535  W2        18677           0.0000000000
     56032     18678  TIP3      OH2           -35.9361666405       20.5584177139        8.5547103535  W2        18678           0.0000000000
     56033     18678  TIP3      H1            -36.5834566405       20.0965877139        8.0218303535  W2        18678           0.0000000000
     56034     18678  TIP3      H2            -35.5817066405       19.8867477139        9.1373303535  W2        18678           0.0000000000
     56035     18679  TIP3      OH2           -35.0662466405       18.6391177139       10.3593303535  W2        18679           0.0000000000
     56036     18679  TIP3      H1            -35.4005666405       17.7588477139       10.5313503535  W2        18679           0.0000000000
     56037     18679  TIP3      H2            -34.8440066405       18.9846177139       11.2238903535  W2        18679           0.0000000000
     56038     18680  TIP3      OH2           -17.5177666405       19.4487577139       13.3398103535  W2        18680           0.0000000000
     56039     18680  TIP3      H1            -17.5390966405       19.6335977139       14.2787503535  W2        18680           0.0000000000
     56040     18680  TIP3      H2            -16.8271466405       20.0171577139       12.9989503535  W2        18680           0.0000000000
     56041     18681  TIP3      OH2           -17.9544766405       19.0158677139       16.2617203535  W2        18681           0.0000000000
     56042     18681  TIP3      H1            -18.4416066405       18.2802777139       15.8904603535  W2        18681           0.0000000000
     56043     18681  TIP3      H2            -17.4052066405       18.6222577139       16.9396603535  W2        18681           0.0000000000
     56044     18682  TIP3      OH2           -19.5037466405       14.8056777139       20.8997503535  W2        18682           0.0000000000
     56045     18682  TIP3      H1            -20.3696366405       14.7006477139       21.2939803535  W2        18682           0.0000000000
     56046     18682  TIP3      H2            -19.1271566405       15.5640077139       21.3462203535  W2        18682           0.0000000000
     56047     18683  TIP3      OH2           -18.2027766405       13.0620477139        6.4140003535  W2        18683           0.0000000000
     56048     18683  TIP3      H1            -17.3526366405       13.4831377139        6.5411603535  W2        18683           0.0000000000
     56049     18683  TIP3      H2            -18.1972666405       12.3220577139        7.0211403535  W2        18683           0.0000000000
     56050     18684  TIP3      OH2           -17.8082166405       11.1157877139        8.2375703535  W2        18684           0.0000000000
     56051     18684  TIP3      H1            -18.5347566405       10.6360477139        8.6353303535  W2        18684           0.0000000000
     56052     18684  TIP3      H2            -17.2268866405       11.3212577139        8.9697303535  W2        18684           0.0000000000
     56053     18685  TIP3      OH2           -18.0490966405       13.9005377139       13.1853303535  W2        18685           0.0000000000
     56054     18685  TIP3      H1            -17.2156766405       13.5225377139       12.9046903535  W2        18685           0.0000000000
     56055     18685  TIP3      H2            -17.9370666405       14.8436577139       13.0662403535  W2        18685           0.0000000000
     56056     18686  TIP3      OH2           -19.5628666405       16.7782877139       15.4921703535  W2        18686           0.0000000000
     56057     18686  TIP3      H1            -20.2103366405       17.1034377139       16.1176903535  W2        18686           0.0000000000
     56058     18686  TIP3      H2            -20.0804666405       16.3380577139       14.8180003535  W2        18686           0.0000000000
     56059     18687  TIP3      OH2           -17.5399066405       11.0166377139        4.6287003535  W2        18687           0.0000000000
     56060     18687  TIP3      H1            -18.0617966405       11.3730477139        3.9097903535  W2        18687           0.0000000000
     56061     18687  TIP3      H2            -17.5729866405       11.6914177139        5.3067903535  W2        18687           0.0000000000
     56062     18688  TIP3      OH2           -19.1910066405        8.2561977139        3.1794103535  W2        18688           0.0000000000
     56063     18688  TIP3      H1            -19.0945666405        8.9228977139        2.4993803535  W2        18688           0.0000000000
     56064     18688  TIP3      H2            -19.3310466405        7.4408277139        2.6979603535  W2        18688           0.0000000000
     56065     18689  TIP3      OH2           -20.0215366405        9.6364377139        8.8004403535  W2        18689           0.0000000000
     56066     18689  TIP3      H1            -20.1716566405        8.6912977139        8.7802203535  W2        18689           0.0000000000
     56067     18689  TIP3      H2            -20.3750866405        9.9175777139        9.6443503535  W2        18689           0.0000000000
     56068     18690  TIP3      OH2           -34.9862966405       11.7146577139       12.8108203535  W2        18690           0.0000000000
     56069     18690  TIP3      H1            -34.8020066405       11.6328277139       11.8751103535  W2        18690           0.0000000000
     56070     18690  TIP3      H2            -34.1370066405       11.5903577139       13.2344603535  W2        18690           0.0000000000
     56071     18691  TIP3      OH2           -19.1652466405       11.6067677139       18.4392703535  W2        18691           0.0000000000
     56072     18691  TIP3      H1            -18.5825166405       10.8719977139       18.6309903535  W2        18691           0.0000000000
     56073     18691  TIP3      H2            -18.6013166405       12.3787977139       18.4858503535  W2        18691           0.0000000000
     56074     18692  TIP3      OH2           -17.6685366405        9.5093477139       19.1238103535  W2        18692           0.0000000000
     56075     18692  TIP3      H1            -18.5318666405        9.1305577139       18.9582803535  W2        18692           0.0000000000
     56076     18692  TIP3      H2            -17.0641666405        8.7708277139       19.0493903535  W2        18692           0.0000000000
     56077     18693  TIP3      OH2           -19.9436266405        5.6641777139        2.2969603535  W2        18693           0.0000000000
     56078     18693  TIP3      H1            -19.3330466405        5.2928577139        2.9337803535  W2        18693           0.0000000000
     56079     18693  TIP3      H2            -20.7804766405        5.2428677139        2.4929603535  W2        18693           0.0000000000
     56080     18694  TIP3      OH2           -20.3110566405        7.2190177139        7.2629503535  W2        18694           0.0000000000
     56081     18694  TIP3      H1            -20.0313466405        6.3120577139        7.3871203535  W2        18694           0.0000000000
     56082     18694  TIP3      H2            -19.5518866405        7.6531677139        6.8738703535  W2        18694           0.0000000000
     56083     18695  TIP3      OH2           -19.6992266405        7.8007577139       12.6988403535  W2        18695           0.0000000000
     56084     18695  TIP3      H1            -18.7664266405        8.0127477139       12.6644403535  W2        18695           0.0000000000
     56085     18695  TIP3      H2            -19.9344766405        7.9019677139       13.6211403535  W2        18695           0.0000000000
     56086     18696  TIP3      OH2           -19.6700366405        8.5372877139       15.4747803535  W2        18696           0.0000000000
     56087     18696  TIP3      H1            -20.5129066405        8.8053277139       15.8407603535  W2        18696           0.0000000000
     56088     18696  TIP3      H2            -19.2276066405        9.3594777139       15.2638903535  W2        18696           0.0000000000
     56089     18697  TIP3      OH2           -35.3888166405        6.9851577139       18.9517003535  W2        18697           0.0000000000
     56090     18697  TIP3      H1            -34.4693266405        6.8629877139       19.1880103535  W2        18697           0.0000000000
     56091     18697  TIP3      H2            -35.8383666405        6.2351277139       19.3410503535  W2        18697           0.0000000000
     56092     18698  TIP3      OH2           -17.3868766405        2.5173077139       20.8282803535  W2        18698           0.0000000000
     56093     18698  TIP3      H1            -17.0371766405        1.8636577139       20.2227503535  W2        18698           0.0000000000
     56094     18698  TIP3      H2            -17.2399266405        3.3547177139       20.3885403535  W2        18698           0.0000000000
     56095     18699  TIP3      OH2           -19.6975766405        4.4819477139        7.3111503535  W2        18699           0.0000000000
     56096     18699  TIP3      H1            -19.5150766405        4.0330977139        8.1366503535  W2        18699           0.0000000000
     56097     18699  TIP3      H2            -20.2972866405        3.8973877139        6.8476103535  W2        18699           0.0000000000
     56098     18700  TIP3      OH2           -34.1675666405        5.2973177139       11.8429903535  W2        18700           0.0000000000
     56099     18700  TIP3      H1            -33.7224066405        4.5055677139       12.1449603535  W2        18700           0.0000000000
     56100     18700  TIP3      H2            -33.7012666405        6.0138377139       12.2735503535  W2        18700           0.0000000000
     56101     18701  TIP3      OH2           -35.8635366405        8.2966177139       12.9120103535  W2        18701           0.0000000000
     56102     18701  TIP3      H1            -35.3715566405        8.0756677139       12.1212103535  W2        18701           0.0000000000
     56103     18701  TIP3      H2            -35.5014466405        9.1369577139       13.1929603535  W2        18701           0.0000000000
     56104     18702  TIP3      OH2           -17.8671566405        4.6267677139       19.1774103535  W2        18702           0.0000000000
     56105     18702  TIP3      H1            -18.7845866405        4.8974777139       19.1417603535  W2        18702           0.0000000000
     56106     18702  TIP3      H2            -17.7442166405        4.0916077139       18.3933803535  W2        18702           0.0000000000
     56107     18703  TIP3      OH2           -17.8309566405        4.5497577139        3.8391803535  W2        18703           0.0000000000
     56108     18703  TIP3      H1            -17.4186966405        3.8283277139        3.3639803535  W2        18703           0.0000000000
     56109     18703  TIP3      H2            -17.1493066405        5.2192177139        3.8976103535  W2        18703           0.0000000000
     56110     18704  TIP3      OH2           -35.5498866405        4.5545277139        6.9662503535  W2        18704           0.0000000000
     56111     18704  TIP3      H1            -36.4750466405        4.7631877139        6.8368003535  W2        18704           0.0000000000
     56112     18704  TIP3      H2            -35.0958966405        5.0386077139        6.2764803535  W2        18704           0.0000000000
     56113     18705  TIP3      OH2           -20.7791666405       19.5386977139        8.9119903535  W2        18705           0.0000000000
     56114     18705  TIP3      H1            -20.1268766405       19.1909077139        8.3039003535  W2        18705           0.0000000000
     56115     18705  TIP3      H2            -20.2687866405       20.0270177139        9.5579603535  W2        18705           0.0000000000
     56116     18706  TIP3      OH2           -35.5863466405        3.2924277139       15.3105003535  W2        18706           0.0000000000
     56117     18706  TIP3      H1            -36.2512966405        3.0464577139       15.9535903535  W2        18706           0.0000000000
     56118     18706  TIP3      H2            -36.0292166405        3.9144677139       14.7333003535  W2        18706           0.0000000000
     56119     18707  TIP3      OH2           -33.3944166405       16.4678377139       19.4550803535  W2        18707           0.0000000000
     56120     18707  TIP3      H1            -34.2151666405       16.6424877139       18.9945503535  W2        18707           0.0000000000
     56121     18707  TIP3      H2            -33.6466366405       16.3943077139       20.3755203535  W2        18707           0.0000000000
     56122     18708  TIP3      OH2           -30.4401266405       17.4419577139       15.7134803535  W2        18708           0.0000000000
     56123     18708  TIP3      H1            -30.8650166405       18.2518077139       15.4309403535  W2        18708           0.0000000000
     56124     18708  TIP3      H2            -29.5358466405       17.5273677139       15.4114603535  W2        18708           0.0000000000
     56125     18709  TIP3      OH2           -26.1289866405       18.8409577139       18.6728503535  W2        18709           0.0000000000
     56126     18709  TIP3      H1            -25.9442366405       18.5075677139       19.5508803535  W2        18709           0.0000000000
     56127     18709  TIP3      H2            -25.2825366405       19.1508177139       18.3507703535  W2        18709           0.0000000000
     56128     18710  TIP3      OH2           -23.7839466405       20.1268477139       17.9169903535  W2        18710           0.0000000000
     56129     18710  TIP3      H1            -23.1070566405       19.4940777139       17.6769103535  W2        18710           0.0000000000
     56130     18710  TIP3      H2            -23.4620666405       20.5278977139       18.7243203535  W2        18710           0.0000000000
     56131     18711  TIP3      OH2           -18.8665666405        2.7163977139       16.9964903535  W2        18711           0.0000000000
     56132     18711  TIP3      H1            -19.6792166405        3.0414277139       16.6089603535  W2        18711           0.0000000000
     56133     18711  TIP3      H2            -18.6337166405        1.9562477139       16.4634003535  W2        18711           0.0000000000
     56134     18712  TIP3      OH2           -33.0384566405       20.6983477139       15.7610103535  W2        18712           0.0000000000
     56135     18712  TIP3      H1            -33.7588166405       21.1384477139       15.3097803535  W2        18712           0.0000000000
     56136     18712  TIP3      H2            -33.4040566405       20.4478177139       16.6094103535  W2        18712           0.0000000000
     56137     18713  TIP3      OH2           -30.5711966405       20.2987377139       14.7907303535  W2        18713           0.0000000000
     56138     18713  TIP3      H1            -31.4359766405       20.3705877139       15.1947403535  W2        18713           0.0000000000
     56139     18713  TIP3      H2            -30.6262966405       20.8454677139       14.0069803535  W2        18713           0.0000000000
     56140     18714  TIP3      OH2           -25.8606366405       20.1866277139       13.9663303535  W2        18714           0.0000000000
     56141     18714  TIP3      H1            -26.3172366405       20.7155977139       13.3121703535  W2        18714           0.0000000000
     56142     18714  TIP3      H2            -25.6978366405       20.7897677139       14.6915603535  W2        18714           0.0000000000
     56143     18715  TIP3      OH2           -23.5330066405       19.0645877139       14.9113603535  W2        18715           0.0000000000
     56144     18715  TIP3      H1            -24.4376366405       19.2296077139       14.6455703535  W2        18715           0.0000000000
     56145     18715  TIP3      H2            -23.1041466405       19.9178077139       14.8457003535  W2        18715           0.0000000000
     56146     18716  TIP3      OH2           -20.9288166405       20.6344977139       15.2061403535  W2        18716           0.0000000000
     56147     18716  TIP3      H1            -21.1106166405       21.5503877139       14.9956303535  W2        18716           0.0000000000
     56148     18716  TIP3      H2            -20.7520366405       20.2242077139       14.3596003535  W2        18716           0.0000000000
     56149     18717  TIP3      OH2           -33.6236466405       19.3215977139       12.6711903535  W2        18717           0.0000000000
     56150     18717  TIP3      H1            -33.6420466405       18.8961077139       13.5284203535  W2        18717           0.0000000000
     56151     18717  TIP3      H2            -32.8188566405       19.0030977139       12.2624103535  W2        18717           0.0000000000
     56152     18718  TIP3      OH2           -31.4823366405       18.0314677139       11.3261803535  W2        18718           0.0000000000
     56153     18718  TIP3      H1            -31.7012666405       17.1152077139       11.4957803535  W2        18718           0.0000000000
     56154     18718  TIP3      H2            -30.6581166405       18.1715077139       11.7923203535  W2        18718           0.0000000000
     56155     18719  TIP3      OH2           -28.9450866405       18.5013977139       12.1749803535  W2        18719           0.0000000000
     56156     18719  TIP3      H1            -28.7325166405       17.6132977139       11.8880703535  W2        18719           0.0000000000
     56157     18719  TIP3      H2            -28.8805766405       18.4671677139       13.1293803535  W2        18719           0.0000000000
     56158     18720  TIP3      OH2           -25.4367166405        4.1654577139       11.3193103535  W2        18720           0.0000000000
     56159     18720  TIP3      H1            -26.1110366405        3.5360177139       11.5748903535  W2        18720           0.0000000000
     56160     18720  TIP3      H2            -24.8727966405        3.6813477139       10.7161003535  W2        18720           0.0000000000
     56161     18721  TIP3      OH2           -20.2939966405        2.2728577139       11.4320203535  W2        18721           0.0000000000
     56162     18721  TIP3      H1            -19.6902366405        2.8203977139       10.9301203535  W2        18721           0.0000000000
     56163     18721  TIP3      H2            -21.1637966405        2.5918977139       11.1914303535  W2        18721           0.0000000000
     56164     18722  TIP3      OH2           -18.5669566405        3.4117277139        9.7651103535  W2        18722           0.0000000000
     56165     18722  TIP3      H1            -17.9552066405        2.8972977139        9.2384703535  W2        18722           0.0000000000
     56166     18722  TIP3      H2            -18.1846166405        4.2889377139        9.7885503535  W2        18722           0.0000000000
     56167     18723  TIP3      OH2           -33.1099666405        2.7994877139        9.1413003535  W2        18723           0.0000000000
     56168     18723  TIP3      H1            -33.8869866405        2.5649777139        8.6338903535  W2        18723           0.0000000000
     56169     18723  TIP3      H2            -32.5796066405        2.0026977139        9.1501003535  W2        18723           0.0000000000
     56170     18724  TIP3      OH2           -34.2736266405        2.5972977139        4.9449103535  W2        18724           0.0000000000
     56171     18724  TIP3      H1            -33.8345566405        3.2083477139        4.3532603535  W2        18724           0.0000000000
     56172     18724  TIP3      H2            -34.9073866405        3.1357077139        5.4189103535  W2        18724           0.0000000000
     56173     18725  TIP3      OH2           -28.5307066405        2.7261977139        8.9546103535  W2        18725           0.0000000000
     56174     18725  TIP3      H1            -27.6563666405        3.1146277139        8.9250403535  W2        18725           0.0000000000
     56175     18725  TIP3      H2            -28.6666266405        2.5109777139        9.8773303535  W2        18725           0.0000000000
     56176     18726  TIP3      OH2           -22.9738666405        2.7561777139       10.6037803535  W2        18726           0.0000000000
     56177     18726  TIP3      H1            -22.8977066405        2.8513377139        9.6543803535  W2        18726           0.0000000000
     56178     18726  TIP3      H2            -23.2489466405        1.8484677139       10.7326903535  W2        18726           0.0000000000
     56179     18727  TIP3      OH2           -21.6206066405        2.7819577139        6.2962803535  W2        18727           0.0000000000
     56180     18727  TIP3      H1            -22.3234966405        3.3968777139        6.0864203535  W2        18727           0.0000000000
     56181     18727  TIP3      H2            -22.0654666405        1.9446277139        6.4273703535  W2        18727           0.0000000000
     56182     18728  TIP3      OH2           -34.3726766405       18.5455177139        5.8424203535  W2        18728           0.0000000000
     56183     18728  TIP3      H1            -35.0576866405       18.5074077139        5.1749303535  W2        18728           0.0000000000
     56184     18728  TIP3      H2            -34.3689566405       19.4582777139        6.1306303535  W2        18728           0.0000000000
     56185     18729  TIP3      OH2           -32.4127166405        4.5134477139        3.3873203535  W2        18729           0.0000000000
     56186     18729  TIP3      H1            -31.9213766405        3.8836877139        2.8598703535  W2        18729           0.0000000000
     56187     18729  TIP3      H2            -31.7890866405        4.8093877139        4.0504403535  W2        18729           0.0000000000
     56188     18730  TIP3      OH2           -27.3867066405        4.8065977139        5.8443703535  W2        18730           0.0000000000
     56189     18730  TIP3      H1            -27.2085766405        4.1599177139        6.5272303535  W2        18730           0.0000000000
     56190     18730  TIP3      H2            -27.4400866405        5.6403677139        6.3114803535  W2        18730           0.0000000000
     56191     18731  TIP3      OH2           -25.5083266405       19.7550077139        4.2400403535  W2        18731           0.0000000000
     56192     18731  TIP3      H1            -24.6423066405       20.1217477139        4.0618603535  W2        18731           0.0000000000
     56193     18731  TIP3      H2            -25.7550466405       19.3158077139        3.4261203535  W2        18731           0.0000000000
     56194     18732  TIP3      OH2           -18.7993666405       19.3180377139        6.9191503535  W2        18732           0.0000000000
     56195     18732  TIP3      H1            -18.9936566405       18.5702477139        6.3541103535  W2        18732           0.0000000000
     56196     18732  TIP3      H2            -18.8383566405       20.0760477139        6.3359403535  W2        18732           0.0000000000
     56197     18733  TIP3      OH2           -33.1521666405        3.3136777139       18.6589203535  W2        18733           0.0000000000
     56198     18733  TIP3      H1            -33.5183466405        2.5479377139       19.1013903535  W2        18733           0.0000000000
     56199     18733  TIP3      H2            -32.2393166405        3.3426977139       18.9454303535  W2        18733           0.0000000000
     56200     18734  TIP3      OH2           -31.1790866405        2.6641177139       20.1946303535  W2        18734           0.0000000000
     56201     18734  TIP3      H1            -30.2807266405        2.3901377139       20.0099703535  W2        18734           0.0000000000
     56202     18734  TIP3      H2            -31.5657766405        1.9217177139       20.6588903535  W2        18734           0.0000000000
     56203     18735  TIP3      OH2           -32.5545566405       19.4655977139        2.8676303535  W2        18735           0.0000000000
     56204     18735  TIP3      H1            -32.8220966405       19.7518877139        3.7409403535  W2        18735           0.0000000000
     56205     18735  TIP3      H2            -31.7832966405       18.9195177139        3.0198803535  W2        18735           0.0000000000
     56206     18736  TIP3      OH2           -22.7578566405        1.9966477139       20.3769103535  W2        18736           0.0000000000
     56207     18736  TIP3      H1            -22.6811366405        1.5707177139       21.2306803535  W2        18736           0.0000000000
     56208     18736  TIP3      H2            -21.8641966405        2.0101177139       20.0342603535  W2        18736           0.0000000000
     56209     18737  TIP3      OH2           -19.5817466405       18.0692777139       19.0693303535  W2        18737           0.0000000000
     56210     18737  TIP3      H1            -20.3635566405       17.8830777139       18.5493903535  W2        18737           0.0000000000
     56211     18737  TIP3      H2            -19.6537566405       18.9987077139       19.2865803535  W2        18737           0.0000000000
     56212     18738  TIP3      OH2            -5.1757066405       11.9557177139        9.1000503535  W2        18738           0.0000000000
     56213     18738  TIP3      H1             -5.0865966405       12.8995377139        8.9677603535  W2        18738           0.0000000000
     56214     18738  TIP3      H2             -5.8139466405       11.6803577139        8.4419903535  W2        18738           0.0000000000
     56215     18739  TIP3      OH2            -6.2425766405       11.2107877139       12.5188703535  W2        18739           0.0000000000
     56216     18739  TIP3      H1             -6.2808266405       10.5644177139       13.2238303535  W2        18739           0.0000000000
     56217     18739  TIP3      H2             -6.5649266405       10.7442277139       11.7477403535  W2        18739           0.0000000000
     56218     18740  TIP3      OH2           -13.8740766405       10.8249977139       14.1118603535  W2        18740           0.0000000000
     56219     18740  TIP3      H1            -13.8328666405       10.1993277139       14.8351003535  W2        18740           0.0000000000
     56220     18740  TIP3      H2            -13.1713066405       11.4488577139       14.2939003535  W2        18740           0.0000000000
     56221     18741  TIP3      OH2            -2.5365566405       14.1498277139       10.8203803535  W2        18741           0.0000000000
     56222     18741  TIP3      H1             -2.9772866405       13.4294277139       11.2709403535  W2        18741           0.0000000000
     56223     18741  TIP3      H2             -2.5495866405       14.8705477139       11.4501503535  W2        18741           0.0000000000
     56224     18742  TIP3      OH2           -12.9507666405       15.2748877139       12.6467703535  W2        18742           0.0000000000
     56225     18742  TIP3      H1            -13.3202466405       14.4729377139       12.2772003535  W2        18742           0.0000000000
     56226     18742  TIP3      H2            -12.0096566405       15.1063777139       12.6931103535  W2        18742           0.0000000000
     56227     18743  TIP3      OH2           -16.3407166405        8.9351477139        8.0396503535  W2        18743           0.0000000000
     56228     18743  TIP3      H1            -16.7883766405        9.7810177139        8.0213003535  W2        18743           0.0000000000
     56229     18743  TIP3      H2            -16.9015966405        8.3555677139        7.5241603535  W2        18743           0.0000000000
     56230     18744  TIP3      OH2           -15.6301066405       11.0971077139       10.1654503535  W2        18744           0.0000000000
     56231     18744  TIP3      H1            -15.4167566405       10.3272677139       10.6927503535  W2        18744           0.0000000000
     56232     18744  TIP3      H2            -14.8923466405       11.1867777139        9.5622103535  W2        18744           0.0000000000
     56233     18745  TIP3      OH2            -5.4250066405       19.2539977139       11.0324203535  W2        18745           0.0000000000
     56234     18745  TIP3      H1             -4.8053666405       18.5774677139       10.7593403535  W2        18745           0.0000000000
     56235     18745  TIP3      H2             -5.6332666405       19.0360777139       11.9409103535  W2        18745           0.0000000000
     56236     18746  TIP3      OH2            -7.8531366405       13.6429277139       12.9249703535  W2        18746           0.0000000000
     56237     18746  TIP3      H1             -7.5493466405       12.9570677139       12.3303803535  W2        18746           0.0000000000
     56238     18746  TIP3      H2             -7.1317366405       13.7617977139       13.5427703535  W2        18746           0.0000000000
     56239     18747  TIP3      OH2             0.8098433595        5.2444577139       13.7855903535  W2        18747           0.0000000000
     56240     18747  TIP3      H1              0.8590633595        5.8545777139       14.5215003535  W2        18747           0.0000000000
     56241     18747  TIP3      H2              1.2353533595        5.7055477139       13.0627003535  W2        18747           0.0000000000
     56242     18748  TIP3      OH2            -4.7124366405        8.0371677139       13.2524503535  W2        18748           0.0000000000
     56243     18748  TIP3      H1             -4.5698466405        7.0908677139       13.2726103535  W2        18748           0.0000000000
     56244     18748  TIP3      H2             -4.8185366405        8.2441477139       12.3239403535  W2        18748           0.0000000000
     56245     18749  TIP3      OH2           -11.5576066405        6.1388077139       10.5249303535  W2        18749           0.0000000000
     56246     18749  TIP3      H1            -11.5144966405        6.9986577139       10.1065603535  W2        18749           0.0000000000
     56247     18749  TIP3      H2            -12.0151966405        5.5862777139        9.8912503535  W2        18749           0.0000000000
     56248     18750  TIP3      OH2            -3.8353366405        6.2693677139        8.9257603535  W2        18750           0.0000000000
     56249     18750  TIP3      H1             -3.1889066405        5.9406877139        9.5505203535  W2        18750           0.0000000000
     56250     18750  TIP3      H2             -3.3253966405        6.7872677139        8.3029003535  W2        18750           0.0000000000
     56251     18751  TIP3      OH2           -14.9374566405        8.5353877139       11.2870703535  W2        18751           0.0000000000
     56252     18751  TIP3      H1            -14.2837966405        7.9855577139       11.7190803535  W2        18751           0.0000000000
     56253     18751  TIP3      H2            -14.9135266405        8.2612877139       10.3702703535  W2        18751           0.0000000000
     56254     18752  TIP3      OH2            -9.7810066405       10.0855177139       10.5022203535  W2        18752           0.0000000000
     56255     18752  TIP3      H1             -9.1649066405        9.5590577139       11.0116203535  W2        18752           0.0000000000
     56256     18752  TIP3      H2            -10.3671266405        9.4453877139       10.0985803535  W2        18752           0.0000000000
     56257     18753  TIP3      OH2             1.2013033595        6.7223777139       16.0215703535  W2        18753           0.0000000000
     56258     18753  TIP3      H1              0.5127633595        7.3804477139       15.9262303535  W2        18753           0.0000000000
     56259     18753  TIP3      H2              1.2167633595        6.5251677139       16.9581103535  W2        18753           0.0000000000
     56260     18754  TIP3      OH2           -12.7474166405        5.0566477139       14.5990103535  W2        18754           0.0000000000
     56261     18754  TIP3      H1            -12.9662466405        5.5867077139       13.8326103535  W2        18754           0.0000000000
     56262     18754  TIP3      H2            -13.4153266405        5.2831977139       15.2461503535  W2        18754           0.0000000000
     56263     18755  TIP3      OH2            -5.3784366405       14.5567577139        8.1429203535  W2        18755           0.0000000000
     56264     18755  TIP3      H1             -5.6739266405       14.2339877139        7.2916103535  W2        18755           0.0000000000
     56265     18755  TIP3      H2             -5.7026566405       15.4564277139        8.1841803535  W2        18755           0.0000000000
     56266     18756  TIP3      OH2           -10.1782766405       12.7322177139       14.8863803535  W2        18756           0.0000000000
     56267     18756  TIP3      H1            -10.9183666405       13.3303677139       14.9899003535  W2        18756           0.0000000000
     56268     18756  TIP3      H2             -9.4643266405       13.2861777139       14.5707403535  W2        18756           0.0000000000
     56269     18757  TIP3      OH2            -2.0714966405        5.5602977139       10.9063503535  W2        18757           0.0000000000
     56270     18757  TIP3      H1             -2.2866966405        4.7946377139       11.4389503535  W2        18757           0.0000000000
     56271     18757  TIP3      H2             -1.4157566405        6.0327577139       11.4192003535  W2        18757           0.0000000000
     56272     18758  TIP3      OH2           -13.1536866405        6.9488277139       12.5512303535  W2        18758           0.0000000000
     56273     18758  TIP3      H1            -12.5400566405        7.5815877139       12.9244703535  W2        18758           0.0000000000
     56274     18758  TIP3      H2            -12.6416166405        6.4763277139       11.8949203535  W2        18758           0.0000000000
     56275     18759  TIP3      OH2           -11.7708466405       14.6965177139       15.6735303535  W2        18759           0.0000000000
     56276     18759  TIP3      H1            -11.7760866405       15.5758677139       15.2954603535  W2        18759           0.0000000000
     56277     18759  TIP3      H2            -12.6244366405       14.6129277139       16.0985203535  W2        18759           0.0000000000
     56278     18760  TIP3      OH2           -15.6497566405       14.3673077139        6.4554603535  W2        18760           0.0000000000
     56279     18760  TIP3      H1            -15.9216666405       14.5964077139        5.5667503535  W2        18760           0.0000000000
     56280     18760  TIP3      H2            -15.6041866405       15.2051877139        6.9159903535  W2        18760           0.0000000000
     56281     18761  TIP3      OH2            -2.0247866405       15.9888977139       13.1683103535  W2        18761           0.0000000000
     56282     18761  TIP3      H1             -2.9664166405       16.0472877139       13.3300003535  W2        18761           0.0000000000
     56283     18761  TIP3      H2             -1.7481766405       16.8949477139       13.0312803535  W2        18761           0.0000000000
     56284     18762  TIP3      OH2            -1.7240866405        4.2754277139       14.5857003535  W2        18762           0.0000000000
     56285     18762  TIP3      H1             -2.4601666405        4.8861377139       14.5478303535  W2        18762           0.0000000000
     56286     18762  TIP3      H2             -1.0406866405        4.6903277139       14.0593403535  W2        18762           0.0000000000
     56287     18763  TIP3      OH2            -8.7209466405        2.3621577139       12.0515003535  W2        18763           0.0000000000
     56288     18763  TIP3      H1             -8.8385266405        1.4137577139       11.9973303535  W2        18763           0.0000000000
     56289     18763  TIP3      H2             -9.5759366405        2.6947677139       12.3246103535  W2        18763           0.0000000000
     56290     18764  TIP3      OH2            -3.7726666405       17.7702477139        9.7934703535  W2        18764           0.0000000000
     56291     18764  TIP3      H1             -3.3474366405       17.0630377139        9.3084303535  W2        18764           0.0000000000
     56292     18764  TIP3      H2             -3.4556666405       18.5715177139        9.3766903535  W2        18764           0.0000000000
     56293     18765  TIP3      OH2            -2.6130166405       15.6710977139        8.3021303535  W2        18765           0.0000000000
     56294     18765  TIP3      H1             -2.8705366405       14.9811077139        7.6907203535  W2        18765           0.0000000000
     56295     18765  TIP3      H2             -2.5419366405       15.2282177139        9.1477203535  W2        18765           0.0000000000
     56296     18766  TIP3      OH2            -0.9269966405       14.2377677139       16.7794803535  W2        18766           0.0000000000
     56297     18766  TIP3      H1             -0.7873666405       13.6460177139       16.0401803535  W2        18766           0.0000000000
     56298     18766  TIP3      H2             -0.7597166405       15.1103577139       16.4233603535  W2        18766           0.0000000000
     56299     18767  TIP3      OH2            -6.4544566405       11.1997177139        6.5520803535  W2        18767           0.0000000000
     56300     18767  TIP3      H1             -7.1659066405       11.7346877139        6.2001303535  W2        18767           0.0000000000
     56301     18767  TIP3      H2             -5.7634966405       11.2549277139        5.8919703535  W2        18767           0.0000000000
     56302     18768  TIP3      OH2            -6.4005366405        9.6571477139        3.5905803535  W2        18768           0.0000000000
     56303     18768  TIP3      H1             -5.6995466405        9.6798377139        4.2419803535  W2        18768           0.0000000000
     56304     18768  TIP3      H2             -6.0982466405        9.0291177139        2.9345103535  W2        18768           0.0000000000
     56305     18769  TIP3      OH2             0.9149333595       10.5775677139       14.8455203535  W2        18769           0.0000000000
     56306     18769  TIP3      H1              0.2623433595       11.2721277139       14.9346103535  W2        18769           0.0000000000
     56307     18769  TIP3      H2              1.3799633595       10.7876577139       14.0356803535  W2        18769           0.0000000000
     56308     18770  TIP3      OH2            -3.0486866405       11.4090477139        7.5036703535  W2        18770           0.0000000000
     56309     18770  TIP3      H1             -3.7805866405       11.6374177139        8.0767303535  W2        18770           0.0000000000
     56310     18770  TIP3      H2             -2.6014666405       10.6953177139        7.9584203535  W2        18770           0.0000000000
     56311     18771  TIP3      OH2            -3.1513366405        9.5833077139       16.5713703535  W2        18771           0.0000000000
     56312     18771  TIP3      H1             -3.0714266405       10.3467477139       17.1432203535  W2        18771           0.0000000000
     56313     18771  TIP3      H2             -3.7525666405        9.8625477139       15.8808803535  W2        18771           0.0000000000
     56314     18772  TIP3      OH2           -11.4033166405       12.0396677139        9.3861703535  W2        18772           0.0000000000
     56315     18772  TIP3      H1            -11.7337966405       11.6690077139        8.5678703535  W2        18772           0.0000000000
     56316     18772  TIP3      H2            -10.8149066405       11.3690677139        9.7330003535  W2        18772           0.0000000000
     56317     18773  TIP3      OH2           -10.0365666405       15.4677277139       12.0673903535  W2        18773           0.0000000000
     56318     18773  TIP3      H1            -10.1314366405       14.8890377139       11.3108503535  W2        18773           0.0000000000
     56319     18773  TIP3      H2             -9.3072066405       15.0962977139       12.5636703535  W2        18773           0.0000000000
     56320     18774  TIP3      OH2           -11.0367666405       10.8082277139       13.0196703535  W2        18774           0.0000000000
     56321     18774  TIP3      H1            -10.4715166405       10.9296477139       12.2567903535  W2        18774           0.0000000000
     56322     18774  TIP3      H2            -10.7178766405       11.4457277139       13.6585203535  W2        18774           0.0000000000
     56323     18775  TIP3      OH2            -4.7275466405       16.3114177139       13.7537203535  W2        18775           0.0000000000
     56324     18775  TIP3      H1             -4.9678866405       16.9737277139       14.4016403535  W2        18775           0.0000000000
     56325     18775  TIP3      H2             -4.9257266405       15.4769377139       14.1786803535  W2        18775           0.0000000000
     56326     18776  TIP3      OH2           -10.1566966405       15.2074977139       17.7368603535  W2        18776           0.0000000000
     56327     18776  TIP3      H1            -10.4679466405       15.9898177139       18.1921803535  W2        18776           0.0000000000
     56328     18776  TIP3      H2            -10.8066766405       15.0544077139       17.0510603535  W2        18776           0.0000000000
     56329     18777  TIP3      OH2            -4.1777366405       10.5713377139        5.1887903535  W2        18777           0.0000000000
     56330     18777  TIP3      H1             -3.5981866405       10.7213677139        5.9356803535  W2        18777           0.0000000000
     56331     18777  TIP3      H2             -3.7637366405       11.0420777139        4.4654303535  W2        18777           0.0000000000
     56332     18778  TIP3      OH2           -13.2367066405       11.4056077139       16.9654303535  W2        18778           0.0000000000
     56333     18778  TIP3      H1            -13.1663866405       12.0562877139       17.6639303535  W2        18778           0.0000000000
     56334     18778  TIP3      H2            -14.1274866405       11.5083577139       16.6305203535  W2        18778           0.0000000000
     56335     18779  TIP3      OH2            -6.4512466405       17.3081877139        8.6241003535  W2        18779           0.0000000000
     56336     18779  TIP3      H1             -5.9774866405       17.6038177139        9.4015203535  W2        18779           0.0000000000
     56337     18779  TIP3      H2             -7.0143166405       18.0463477139        8.3910603535  W2        18779           0.0000000000
     56338     18780  TIP3      OH2           -11.9171066405       17.2789977139       18.5002403535  W2        18780           0.0000000000
     56339     18780  TIP3      H1            -11.9095766405       17.1429677139       17.5527903535  W2        18780           0.0000000000
     56340     18780  TIP3      H2            -12.8330666405       17.1618077139       18.7522403535  W2        18780           0.0000000000
     56341     18781  TIP3      OH2            -0.4788966405        2.3213777139        5.0017603535  W2        18781           0.0000000000
     56342     18781  TIP3      H1             -1.3788266405        2.4602777139        5.2968203535  W2        18781           0.0000000000
     56343     18781  TIP3      H2             -0.2270566405        3.1528377139        4.5999303535  W2        18781           0.0000000000
     56344     18782  TIP3      OH2           -12.4130466405       11.1090977139        6.9754503535  W2        18782           0.0000000000
     56345     18782  TIP3      H1            -12.7049166405       11.8772677139        6.4845803535  W2        18782           0.0000000000
     56346     18782  TIP3      H2            -13.0875266405       10.4497177139        6.8125903535  W2        18782           0.0000000000
     56347     18783  TIP3      OH2             0.7102433595       16.6876177139        3.3781503535  W2        18783           0.0000000000
     56348     18783  TIP3      H1              0.7835933595       17.6266377139        3.5486803535  W2        18783           0.0000000000
     56349     18783  TIP3      H2              1.6157533595       16.3824777139        3.3218803535  W2        18783           0.0000000000
     56350     18784  TIP3      OH2           -16.3200366405       13.4720177139       15.7904303535  W2        18784           0.0000000000
     56351     18784  TIP3      H1            -16.8211966405       13.4439577139       14.9754003535  W2        18784           0.0000000000
     56352     18784  TIP3      H2            -16.3146666405       12.5663377139       16.1001603535  W2        18784           0.0000000000
     56353     18785  TIP3      OH2           -16.5697666405       16.2523977139       12.6744503535  W2        18785           0.0000000000
     56354     18785  TIP3      H1            -15.6237066405       16.1080977139       12.6554003535  W2        18785           0.0000000000
     56355     18785  TIP3      H2            -16.6821366405       17.0366777139       13.2115703535  W2        18785           0.0000000000
     56356     18786  TIP3      OH2             1.6280833595       16.9183677139       18.3568203535  W2        18786           0.0000000000
     56357     18786  TIP3      H1              1.5787633595       15.9631777139       18.3195803535  W2        18786           0.0000000000
     56358     18786  TIP3      H2              0.8013133595       17.1858977139       18.7582003535  W2        18786           0.0000000000
     56359     18787  TIP3      OH2            -7.3935166405       16.4922877139       17.2329603535  W2        18787           0.0000000000
     56360     18787  TIP3      H1             -7.3060566405       17.3187477139       17.7078703535  W2        18787           0.0000000000
     56361     18787  TIP3      H2             -8.2570066405       16.1626677139       17.4818903535  W2        18787           0.0000000000
     56362     18788  TIP3      OH2            -6.9789366405       20.2646577139        7.0390203535  W2        18788           0.0000000000
     56363     18788  TIP3      H1             -7.0543366405       20.1433777139        6.0925403535  W2        18788           0.0000000000
     56364     18788  TIP3      H2             -6.9460666405       21.2139277139        7.1574803535  W2        18788           0.0000000000
     56365     18789  TIP3      OH2           -13.3255566405       19.0533577139        8.8199203535  W2        18789           0.0000000000
     56366     18789  TIP3      H1            -13.1735166405       18.7053977139        9.6985703535  W2        18789           0.0000000000
     56367     18789  TIP3      H2            -14.1765166405       18.6970877139        8.5646403535  W2        18789           0.0000000000
     56368     18790  TIP3      OH2            -3.8773366405       19.4186777139        4.0412603535  W2        18790           0.0000000000
     56369     18790  TIP3      H1             -3.5024966405       18.6742877139        3.5705203535  W2        18790           0.0000000000
     56370     18790  TIP3      H2             -3.8729666405       19.1487377139        4.9595903535  W2        18790           0.0000000000
     56371     18791  TIP3      OH2            -4.2085266405       19.3443877139        6.7904803535  W2        18791           0.0000000000
     56372     18791  TIP3      H1             -5.1435466405       19.4445777139        6.9691803535  W2        18791           0.0000000000
     56373     18791  TIP3      H2             -3.9283366405       18.6349877139        7.3688003535  W2        18791           0.0000000000
     56374     18792  TIP3      OH2            -1.2199366405        8.4116177139       18.8370403535  W2        18792           0.0000000000
     56375     18792  TIP3      H1             -1.6272566405        8.8921777139       18.1163703535  W2        18792           0.0000000000
     56376     18792  TIP3      H2             -1.1793666405        7.5062177139       18.5291203535  W2        18792           0.0000000000
     56377     18793  TIP3      OH2           -14.0709866405       14.7955577139       16.8337103535  W2        18793           0.0000000000
     56378     18793  TIP3      H1            -13.8548566405       14.4341177139       17.6932903535  W2        18793           0.0000000000
     56379     18793  TIP3      H2            -14.9265166405       14.4209377139       16.6240603535  W2        18793           0.0000000000
     56380     18794  TIP3      OH2           -11.4521866405        3.2656077139       12.8291303535  W2        18794           0.0000000000
     56381     18794  TIP3      H1            -12.3138166405        3.1784277139       12.4214203535  W2        18794           0.0000000000
     56382     18794  TIP3      H2            -11.4746166405        4.1216177139       13.2568903535  W2        18794           0.0000000000
     56383     18795  TIP3      OH2            -6.7894066405        2.9876477139       16.2038303535  W2        18795           0.0000000000
     56384     18795  TIP3      H1             -6.3690966405        2.5723577139       16.9568903535  W2        18795           0.0000000000
     56385     18795  TIP3      H2             -7.7224466405        2.8089777139       16.3210303535  W2        18795           0.0000000000
     56386     18796  TIP3      OH2            -3.4629166405        6.7431677139       17.0572803535  W2        18796           0.0000000000
     56387     18796  TIP3      H1             -3.9769666405        6.6173877139       17.8548803535  W2        18796           0.0000000000
     56388     18796  TIP3      H2             -3.6184466405        7.6554777139       16.8129003535  W2        18796           0.0000000000
     56389     18797  TIP3      OH2            -2.7004266405       11.6041677139        2.8185803535  W2        18797           0.0000000000
     56390     18797  TIP3      H1             -2.6583466405       11.3815577139        1.8885803535  W2        18797           0.0000000000
     56391     18797  TIP3      H2             -1.8512166405       12.0028777139        3.0085703535  W2        18797           0.0000000000
     56392     18798  TIP3      OH2            -7.1276766405        5.4799877139        3.4889103535  W2        18798           0.0000000000
     56393     18798  TIP3      H1             -7.3811966405        5.4991477139        4.4117203535  W2        18798           0.0000000000
     56394     18798  TIP3      H2             -7.3844666405        4.6085277139        3.1875303535  W2        18798           0.0000000000
     56395     18799  TIP3      OH2           -11.3611766405        8.2310577139       13.9241503535  W2        18799           0.0000000000
     56396     18799  TIP3      H1            -12.0029666405        8.1907877139       14.6331603535  W2        18799           0.0000000000
     56397     18799  TIP3      H2            -11.3239766405        9.1575277139       13.6864503535  W2        18799           0.0000000000
     56398     18800  TIP3      OH2           -11.3642666405        8.4520677139        8.8361503535  W2        18800           0.0000000000
     56399     18800  TIP3      H1            -12.2569766405        8.1116777139        8.7775303535  W2        18800           0.0000000000
     56400     18800  TIP3      H2            -10.9136066405        8.0751577139        8.0804703535  W2        18800           0.0000000000
     56401     18801  TIP3      OH2            -5.8287166405        8.8680977139        7.6532303535  W2        18801           0.0000000000
     56402     18801  TIP3      H1             -6.2376866405        9.6829577139        7.3617103535  W2        18801           0.0000000000
     56403     18801  TIP3      H2             -5.1080966405        8.7281077139        7.0389403535  W2        18801           0.0000000000
     56404     18802  TIP3      OH2            -6.7265566405        9.0437377139       19.1413003535  W2        18802           0.0000000000
     56405     18802  TIP3      H1             -7.2891766405        8.3388977139       19.4620803535  W2        18802           0.0000000000
     56406     18802  TIP3      H2             -5.9002166405        8.9229277139       19.6090603535  W2        18802           0.0000000000
     56407     18803  TIP3      OH2            -4.8239466405        8.3141377139       10.4672003535  W2        18803           0.0000000000
     56408     18803  TIP3      H1             -5.0194966405        8.9198177139        9.7522603535  W2        18803           0.0000000000
     56409     18803  TIP3      H2             -4.6426866405        7.4806577139       10.0328303535  W2        18803           0.0000000000
     56410     18804  TIP3      OH2           -13.6111266405        8.5514077139       15.7913503535  W2        18804           0.0000000000
     56411     18804  TIP3      H1            -13.6491866405        8.9515677139       16.6600603535  W2        18804           0.0000000000
     56412     18804  TIP3      H2            -14.1020166405        7.7346477139       15.8816403535  W2        18804           0.0000000000
     56413     18805  TIP3      OH2           -10.2453866405        5.9256377139        2.5899503535  W2        18805           0.0000000000
     56414     18805  TIP3      H1            -10.6763166405        5.4806477139        3.3196903535  W2        18805           0.0000000000
     56415     18805  TIP3      H2            -10.9635166405        6.2972677139        2.0777003535  W2        18805           0.0000000000
     56416     18806  TIP3      OH2           -17.0030466405        5.6675877139        9.6418203535  W2        18806           0.0000000000
     56417     18806  TIP3      H1            -16.3722766405        5.6387977139       10.3612103535  W2        18806           0.0000000000
     56418     18806  TIP3      H2            -16.5536166405        5.2424577139        8.9114103535  W2        18806           0.0000000000
     56419     18807  TIP3      OH2           -15.7288366405        6.4137877139        5.0658603535  W2        18807           0.0000000000
     56420     18807  TIP3      H1            -15.2546666405        7.0047777139        4.4809503535  W2        18807           0.0000000000
     56421     18807  TIP3      H2            -16.4461966405        6.9440777139        5.4128703535  W2        18807           0.0000000000
     56422     18808  TIP3      OH2            -5.5600266405        9.9522677139       15.1384403535  W2        18808           0.0000000000
     56423     18808  TIP3      H1             -5.2365466405        9.3212377139       14.4954903535  W2        18808           0.0000000000
     56424     18808  TIP3      H2             -6.0000966405        9.4174877139       15.7991803535  W2        18808           0.0000000000
     56425     18809  TIP3      OH2            -8.7827366405        5.8798177139        9.9225603535  W2        18809           0.0000000000
     56426     18809  TIP3      H1             -9.6936266405        5.9364977139       10.2111603535  W2        18809           0.0000000000
     56427     18809  TIP3      H2             -8.2774466405        5.8193677139       10.7332803535  W2        18809           0.0000000000
     56428     18810  TIP3      OH2           -13.9543966405        7.5084477139        8.7493203535  W2        18810           0.0000000000
     56429     18810  TIP3      H1            -14.8435966405        7.6079977139        8.4092803535  W2        18810           0.0000000000
     56430     18810  TIP3      H2            -13.6579066405        6.6667477139        8.4031103535  W2        18810           0.0000000000
     56431     18811  TIP3      OH2           -10.3012166405        7.5087077139        6.4057803535  W2        18811           0.0000000000
     56432     18811  TIP3      H1             -9.3696666405        7.6377077139        6.5840903535  W2        18811           0.0000000000
     56433     18811  TIP3      H2            -10.5161866405        8.1781377139        5.7562503535  W2        18811           0.0000000000
     56434     18812  TIP3      OH2            -4.3775466405        5.1144477139       13.1867403535  W2        18812           0.0000000000
     56435     18812  TIP3      H1             -5.0543866405        5.2457577139       13.8507103535  W2        18812           0.0000000000
     56436     18812  TIP3      H2             -4.8630566405        4.9593977139       12.3765103535  W2        18812           0.0000000000
     56437     18813  TIP3      OH2           -11.6271966405        8.7029277139        3.9723903535  W2        18813           0.0000000000
     56438     18813  TIP3      H1            -12.1696866405        8.3233077139        3.2811503535  W2        18813           0.0000000000
     56439     18813  TIP3      H2            -10.7937066405        8.8973977139        3.5438003535  W2        18813           0.0000000000
     56440     18814  TIP3      OH2            -1.0900366405       20.7859877139       19.4635003535  W2        18814           0.0000000000
     56441     18814  TIP3      H1             -0.8901666405       21.2101777139       18.6290303535  W2        18814           0.0000000000
     56442     18814  TIP3      H2             -0.4346666405       21.1298077139       20.0705403535  W2        18814           0.0000000000
     56443     18815  TIP3      OH2           -13.4920566405       13.2601177139       19.0715503535  W2        18815           0.0000000000
     56444     18815  TIP3      H1            -12.7598166405       13.5147077139       19.6330003535  W2        18815           0.0000000000
     56445     18815  TIP3      H2            -14.2721866405       13.4646577139       19.5870903535  W2        18815           0.0000000000
     56446     18816  TIP3      OH2            -7.4627666405        8.6671177139       11.8095203535  W2        18816           0.0000000000
     56447     18816  TIP3      H1             -6.8984266405        8.1207777139       11.2624803535  W2        18816           0.0000000000
     56448     18816  TIP3      H2             -7.6104266405        8.1453077139       12.5982803535  W2        18816           0.0000000000
     56449     18817  TIP3      OH2           -12.4607966405        4.8037277139        8.2280003535  W2        18817           0.0000000000
     56450     18817  TIP3      H1            -12.7778466405        3.9012577139        8.1925403535  W2        18817           0.0000000000
     56451     18817  TIP3      H2            -11.6793866405        4.8054677139        7.6751603535  W2        18817           0.0000000000
     56452     18818  TIP3      OH2            -8.8361766405        7.0557277139       14.2235603535  W2        18818           0.0000000000
     56453     18818  TIP3      H1             -9.6716466405        7.5096777139       14.3338003535  W2        18818           0.0000000000
     56454     18818  TIP3      H2             -8.3121166405        7.3315777139       14.9755503535  W2        18818           0.0000000000
     56455     18819  TIP3      OH2            -8.2919166405       13.2684977139        5.9082003535  W2        18819           0.0000000000
     56456     18819  TIP3      H1             -9.0368166405       12.7610277139        5.5859903535  W2        18819           0.0000000000
     56457     18819  TIP3      H2             -8.4261966405       13.3172977139        6.8546803535  W2        18819           0.0000000000
     56458     18820  TIP3      OH2            -1.1420266405       12.4013177139       14.6949603535  W2        18820           0.0000000000
     56459     18820  TIP3      H1             -0.5001466405       12.8579477139       14.1511803535  W2        18820           0.0000000000
     56460     18820  TIP3      H2             -1.9723366405       12.5145577139       14.2323703535  W2        18820           0.0000000000
     56461     18821  TIP3      OH2            -4.3942366405        6.0824877139        4.1074603535  W2        18821           0.0000000000
     56462     18821  TIP3      H1             -5.3328166405        6.1940477139        3.9563403535  W2        18821           0.0000000000
     56463     18821  TIP3      H2             -4.0970266405        6.9391777139        4.4140303535  W2        18821           0.0000000000
     56464     18822  TIP3      OH2            -6.7727066405       13.4528277139       17.1451103535  W2        18822           0.0000000000
     56465     18822  TIP3      H1             -7.1180966405       13.0710677139       17.9520703535  W2        18822           0.0000000000
     56466     18822  TIP3      H2             -6.9726966405       14.3861877139       17.2164003535  W2        18822           0.0000000000
     56467     18823  TIP3      OH2            -3.6758866405        7.9497577139        5.7682003535  W2        18823           0.0000000000
     56468     18823  TIP3      H1             -2.7839866405        7.8122577139        6.0873203535  W2        18823           0.0000000000
     56469     18823  TIP3      H2             -3.6195266405        8.7403677139        5.2315503535  W2        18823           0.0000000000
     56470     18824  TIP3      OH2           -13.1670866405       12.5634977139       11.6779903535  W2        18824           0.0000000000
     56471     18824  TIP3      H1            -12.4223666405       12.5610677139       11.0766403535  W2        18824           0.0000000000
     56472     18824  TIP3      H2            -13.0894266405       11.7398777139       12.1595003535  W2        18824           0.0000000000
     56473     18825  TIP3      OH2            -6.1665066405       14.7269277139        4.9336603535  W2        18825           0.0000000000
     56474     18825  TIP3      H1             -6.4616666405       15.5537177139        5.3151403535  W2        18825           0.0000000000
     56475     18825  TIP3      H2             -6.8695066405       14.1076177139        5.1298003535  W2        18825           0.0000000000
     56476     18826  TIP3      OH2           -16.1591166405       11.0241877139       16.9928403535  W2        18826           0.0000000000
     56477     18826  TIP3      H1            -15.9362566405       10.6061477139       17.8245903535  W2        18826           0.0000000000
     56478     18826  TIP3      H2            -16.7611066405       10.4116877139       16.5701203535  W2        18826           0.0000000000
     56479     18827  TIP3      OH2            -9.1426266405       10.5411777139       19.2058103535  W2        18827           0.0000000000
     56480     18827  TIP3      H1             -9.4385466405       10.3754777139       18.3107203535  W2        18827           0.0000000000
     56481     18827  TIP3      H2             -8.2111066405       10.3212077139       19.1952003535  W2        18827           0.0000000000
     56482     18828  TIP3      OH2            -4.5223466405       15.9143777139       17.0956103535  W2        18828           0.0000000000
     56483     18828  TIP3      H1             -5.4229166405       16.0976377139       16.8280003535  W2        18828           0.0000000000
     56484     18828  TIP3      H2             -4.4882366405       16.1733077139       18.0164903535  W2        18828           0.0000000000
     56485     18829  TIP3      OH2             1.2089833595        8.1591677139        5.4628703535  W2        18829           0.0000000000
     56486     18829  TIP3      H1              0.6546133595        7.7629677139        4.7906203535  W2        18829           0.0000000000
     56487     18829  TIP3      H2              1.3093433595        9.0696877139        5.1852003535  W2        18829           0.0000000000
     56488     18830  TIP3      OH2             1.1721833595       13.9593377139       18.3000203535  W2        18830           0.0000000000
     56489     18830  TIP3      H1              0.3210333595       14.1977177139       17.9326603535  W2        18830           0.0000000000
     56490     18830  TIP3      H2              1.7625233595       13.9426577139       17.5467303535  W2        18830           0.0000000000
     56491     18831  TIP3      OH2            -0.4958466405       16.9452077139        5.9280803535  W2        18831           0.0000000000
     56492     18831  TIP3      H1             -0.8687366405       16.1195877139        6.2371403535  W2        18831           0.0000000000
     56493     18831  TIP3      H2             -0.2184966405       16.7621477139        5.0304203535  W2        18831           0.0000000000
     56494     18832  TIP3      OH2            -3.3354566405       11.7531577139       12.9492703535  W2        18832           0.0000000000
     56495     18832  TIP3      H1             -4.2637666405       11.5213477139       12.9222003535  W2        18832           0.0000000000
     56496     18832  TIP3      H2             -2.8843466405       10.9761377139       12.6191503535  W2        18832           0.0000000000
     56497     18833  TIP3      OH2           -10.7921466405       16.0813177139        9.0821403535  W2        18833           0.0000000000
     56498     18833  TIP3      H1            -10.2649266405       16.8547577139        8.8820203535  W2        18833           0.0000000000
     56499     18833  TIP3      H2            -11.6722966405       16.3062377139        8.7805403535  W2        18833           0.0000000000
     56500     18834  TIP3      OH2           -15.0373766405       10.9437277139        3.6693803535  W2        18834           0.0000000000
     56501     18834  TIP3      H1            -14.4213866405       11.5704477139        4.0488603535  W2        18834           0.0000000000
     56502     18834  TIP3      H2            -15.8991166405       11.2597077139        3.9410303535  W2        18834           0.0000000000
     56503     18835  TIP3      OH2            -9.3649166405       13.7443077139        8.6585703535  W2        18835           0.0000000000
     56504     18835  TIP3      H1             -9.6059166405       14.6697477139        8.7001003535  W2        18835           0.0000000000
     56505     18835  TIP3      H2            -10.1055566405       13.2854377139        9.0549603535  W2        18835           0.0000000000
     56506     18836  TIP3      OH2            -8.8502566405       17.8936677139       14.9736803535  W2        18836           0.0000000000
     56507     18836  TIP3      H1             -8.4877866405       18.7482277139       14.7401203535  W2        18836           0.0000000000
     56508     18836  TIP3      H2             -8.3187366405       17.6018277139       15.7143103535  W2        18836           0.0000000000
     56509     18837  TIP3      OH2           -10.6818366405       18.7660677139        8.2037903535  W2        18837           0.0000000000
     56510     18837  TIP3      H1            -11.6317866405       18.8718077139        8.2551203535  W2        18837           0.0000000000
     56511     18837  TIP3      H2            -10.3300266405       19.5868077139        8.5485403535  W2        18837           0.0000000000
     56512     18838  TIP3      OH2            -5.3061766405       13.9927377139       14.6742403535  W2        18838           0.0000000000
     56513     18838  TIP3      H1             -5.7320466405       13.7649077139       15.5006403535  W2        18838           0.0000000000
     56514     18838  TIP3      H2             -4.7255966405       13.2539177139       14.4917703535  W2        18838           0.0000000000
     56515     18839  TIP3      OH2            -3.1032866405       14.9217877139        3.7481403535  W2        18839           0.0000000000
     56516     18839  TIP3      H1             -2.7499766405       14.5417677139        4.5524903535  W2        18839           0.0000000000
     56517     18839  TIP3      H2             -4.0519366405       14.8282677139        3.8350703535  W2        18839           0.0000000000
     56518     18840  TIP3      OH2            -2.6477566405       18.5446877139       17.1437203535  W2        18840           0.0000000000
     56519     18840  TIP3      H1             -3.2494366405       17.9889777139       16.6483503535  W2        18840           0.0000000000
     56520     18840  TIP3      H2             -2.3663866405       19.2116677139       16.5174603535  W2        18840           0.0000000000
     56521     18841  TIP3      OH2             1.4001533595       19.4010377139        3.9491603535  W2        18841           0.0000000000
     56522     18841  TIP3      H1              2.1439433595       19.9870877139        3.8093203535  W2        18841           0.0000000000
     56523     18841  TIP3      H2              0.7059633595       19.9696177139        4.2824003535  W2        18841           0.0000000000
     56524     18842  TIP3      OH2           -14.5251666405        5.7774577139       16.5509803535  W2        18842           0.0000000000
     56525     18842  TIP3      H1            -15.4179366405        6.1159977139       16.4833803535  W2        18842           0.0000000000
     56526     18842  TIP3      H2            -14.6238866405        4.9220677139       16.9690603535  W2        18842           0.0000000000
     56527     18843  TIP3      OH2            -2.2373566405       13.5939877139        5.9749303535  W2        18843           0.0000000000
     56528     18843  TIP3      H1             -2.5145966405       12.8659177139        6.5310403535  W2        18843           0.0000000000
     56529     18843  TIP3      H2             -1.3100566405       13.7131877139        6.1801903535  W2        18843           0.0000000000
     56530     18844  TIP3      OH2           -14.8739666405       17.5818977139       14.9859203535  W2        18844           0.0000000000
     56531     18844  TIP3      H1            -14.6569366405       16.6501377139       14.9548903535  W2        18844           0.0000000000
     56532     18844  TIP3      H2            -14.6276166405       17.8563977139       15.8692003535  W2        18844           0.0000000000
     56533     18845  TIP3      OH2            -9.0125066405       16.0333977139        2.1951403535  W2        18845           0.0000000000
     56534     18845  TIP3      H1             -8.7735266405       15.2852077139        1.6480303535  W2        18845           0.0000000000
     56535     18845  TIP3      H2             -9.2813766405       15.6455677139        3.0279203535  W2        18845           0.0000000000
     56536     18846  TIP3      OH2           -10.0754466405       15.6037777139        4.6514003535  W2        18846           0.0000000000
     56537     18846  TIP3      H1             -9.9286466405       15.0837577139        5.4414903535  W2        18846           0.0000000000
     56538     18846  TIP3      H2            -10.0782766405       16.5105377139        4.9579903535  W2        18846           0.0000000000
     56539     18847  TIP3      OH2           -13.6223366405       12.8561077139        5.1619403535  W2        18847           0.0000000000
     56540     18847  TIP3      H1            -14.3084066405       13.2083577139        5.7289103535  W2        18847           0.0000000000
     56541     18847  TIP3      H2            -13.0995466405       13.6190677139        4.9153703535  W2        18847           0.0000000000
     56542     18848  TIP3      OH2            -5.7908266405        5.5184877139       15.4408403535  W2        18848           0.0000000000
     56543     18848  TIP3      H1             -5.0920366405        5.5923577139       16.0908103535  W2        18848           0.0000000000
     56544     18848  TIP3      H2             -6.1716866405        4.6539877139       15.5951303535  W2        18848           0.0000000000
     56545     18849  TIP3      OH2            -5.0063366405        5.1706577139        6.5380703535  W2        18849           0.0000000000
     56546     18849  TIP3      H1             -4.7865066405        5.6421977139        5.7346103535  W2        18849           0.0000000000
     56547     18849  TIP3      H2             -4.4479366405        5.5649177139        7.2081303535  W2        18849           0.0000000000
     56548     18850  TIP3      OH2            -7.3377266405       17.3011377139        5.4008203535  W2        18850           0.0000000000
     56549     18850  TIP3      H1             -8.1541166405       17.7981077139        5.4532503535  W2        18850           0.0000000000
     56550     18850  TIP3      H2             -6.8080966405       17.7764877139        4.7607003535  W2        18850           0.0000000000
     56551     18851  TIP3      OH2            -7.8063466405        6.8985377139        7.3729103535  W2        18851           0.0000000000
     56552     18851  TIP3      H1             -6.9940866405        7.4028577139        7.4190803535  W2        18851           0.0000000000
     56553     18851  TIP3      H2             -8.0510466405        6.7535077139        8.2868703535  W2        18851           0.0000000000
     56554     18852  TIP3      OH2            -7.2707066405        7.8848077139       16.5575703535  W2        18852           0.0000000000
     56555     18852  TIP3      H1             -7.1516766405        8.4583477139       17.3146103535  W2        18852           0.0000000000
     56556     18852  TIP3      H2             -6.6152466405        7.1967477139       16.6723503535  W2        18852           0.0000000000
     56557     18853  TIP3      OH2            -6.9226766405        3.9798377139        8.3110203535  W2        18853           0.0000000000
     56558     18853  TIP3      H1             -7.2693266405        4.5968977139        8.9554503535  W2        18853           0.0000000000
     56559     18853  TIP3      H2             -6.2639866405        4.4804077139        7.8295703535  W2        18853           0.0000000000
     56560     18854  TIP3      OH2            -9.9994166405       18.3448577139        5.3825103535  W2        18854           0.0000000000
     56561     18854  TIP3      H1             -9.8385466405       19.1446077139        4.8817703535  W2        18854           0.0000000000
     56562     18854  TIP3      H2            -10.1966366405       18.6514577139        6.2675703535  W2        18854           0.0000000000
     56563     18855  TIP3      OH2           -11.2649766405        5.0427777139        4.9982703535  W2        18855           0.0000000000
     56564     18855  TIP3      H1            -11.3484966405        5.9310877139        5.3449103535  W2        18855           0.0000000000
     56565     18855  TIP3      H2            -10.3749466405        4.7774477139        5.2299503535  W2        18855           0.0000000000
     56566     18856  TIP3      OH2            -1.0661266405        5.7918377139       17.3925403535  W2        18856           0.0000000000
     56567     18856  TIP3      H1             -1.9825466405        6.0540077139       17.3049103535  W2        18856           0.0000000000
     56568     18856  TIP3      H2             -0.7306266405        5.7887377139       16.4960703535  W2        18856           0.0000000000
     56569     18857  TIP3      OH2            -2.4640266405        9.5419377139       11.4882703535  W2        18857           0.0000000000
     56570     18857  TIP3      H1             -3.2615866405        9.1269577139       11.1597703535  W2        18857           0.0000000000
     56571     18857  TIP3      H2             -2.0189166405        8.8513077139       11.9793203535  W2        18857           0.0000000000
     56572     18858  TIP3      OH2           -13.0064466405       15.4699977139        4.0587203535  W2        18858           0.0000000000
     56573     18858  TIP3      H1            -12.4142966405       16.1694777139        4.3349603535  W2        18858           0.0000000000
     56574     18858  TIP3      H2            -12.5471466405       15.0369477139        3.3391803535  W2        18858           0.0000000000
     56575     18859  TIP3      OH2           -14.6905266405        8.1342977139        3.1746603535  W2        18859           0.0000000000
     56576     18859  TIP3      H1            -14.7352666405        9.0736077139        3.3533603535  W2        18859           0.0000000000
     56577     18859  TIP3      H2            -15.5782066405        7.8987877139        2.9048703535  W2        18859           0.0000000000
     56578     18860  TIP3      OH2            -1.3775666405       18.7981877139       13.1106203535  W2        18860           0.0000000000
     56579     18860  TIP3      H1             -1.5331366405       19.4766277139       12.4535503535  W2        18860           0.0000000000
     56580     18860  TIP3      H2             -0.4449266405       18.8701177139       13.3136803535  W2        18860           0.0000000000
     56581     18861  TIP3      OH2           -13.8823266405        2.9159577139       11.8477603535  W2        18861           0.0000000000
     56582     18861  TIP3      H1            -14.1113466405        2.9752077139       10.9202603535  W2        18861           0.0000000000
     56583     18861  TIP3      H2            -14.3249866405        2.1245077139       12.1541703535  W2        18861           0.0000000000
     56584     18862  TIP3      OH2           -14.9519966405       16.8566677139        8.0083403535  W2        18862           0.0000000000
     56585     18862  TIP3      H1            -15.7841366405       17.3289377139        8.0354803535  W2        18862           0.0000000000
     56586     18862  TIP3      H2            -14.4061666405       17.3664277139        7.4096503535  W2        18862           0.0000000000
     56587     18863  TIP3      OH2           -15.6636266405       19.4690377139       19.3381403535  W2        18863           0.0000000000
     56588     18863  TIP3      H1            -15.1234066405       19.2524377139       20.0980603535  W2        18863           0.0000000000
     56589     18863  TIP3      H2            -16.1448266405       18.6636377139       19.1483903535  W2        18863           0.0000000000
     56590     18864  TIP3      OH2           -11.0662866405       18.3884777139       20.9585603535  W2        18864           0.0000000000
     56591     18864  TIP3      H1            -10.2985666405       17.9295577139       21.2994803535  W2        18864           0.0000000000
     56592     18864  TIP3      H2            -11.0876666405       18.1624577139       20.0286803535  W2        18864           0.0000000000
     56593     18865  TIP3      OH2            -6.9743266405       17.8965377139        2.3337403535  W2        18865           0.0000000000
     56594     18865  TIP3      H1             -7.6182266405       17.2653977139        2.6551103535  W2        18865           0.0000000000
     56595     18865  TIP3      H2             -6.2124966405       17.3653377139        2.1020903535  W2        18865           0.0000000000
     56596     18866  TIP3      OH2            -4.4894166405       16.7685877139       19.6877103535  W2        18866           0.0000000000
     56597     18866  TIP3      H1             -4.8404666405       15.9118877139       19.9307503535  W2        18866           0.0000000000
     56598     18866  TIP3      H2             -3.7630966405       16.9112577139       20.2946103535  W2        18866           0.0000000000
     56599     18867  TIP3      OH2            -2.3700366405       17.7135277139        2.5675403535  W2        18867           0.0000000000
     56600     18867  TIP3      H1             -2.0869966405       16.9190477139        3.0202303535  W2        18867           0.0000000000
     56601     18867  TIP3      H2             -1.6302466405       17.9466277139        2.0066503535  W2        18867           0.0000000000
     56602     18868  TIP3      OH2           -15.7566766405       13.2794477139       20.2925703535  W2        18868           0.0000000000
     56603     18868  TIP3      H1            -15.6126266405       12.3775177139       20.0062403535  W2        18868           0.0000000000
     56604     18868  TIP3      H2            -16.5289366405       13.5656577139       19.8048003535  W2        18868           0.0000000000
     56605     18869  TIP3      OH2           -11.4153066405       13.6230177139        2.4250303535  W2        18869           0.0000000000
     56606     18869  TIP3      H1            -11.3508966405       12.8289777139        2.9556703535  W2        18869           0.0000000000
     56607     18869  TIP3      H2            -10.7623866405       13.5042977139        1.7352303535  W2        18869           0.0000000000
     56608     18870  TIP3      OH2            -9.1010666405       13.2492577139       19.7252103535  W2        18870           0.0000000000
     56609     18870  TIP3      H1             -9.4296866405       13.5200677139       18.8679503535  W2        18870           0.0000000000
     56610     18870  TIP3      H2             -8.9492466405       12.3082377139       19.6377103535  W2        18870           0.0000000000
     56611     18871  TIP3      OH2            -6.0629666405       14.6701877139        2.1608303535  W2        18871           0.0000000000
     56612     18871  TIP3      H1             -6.3315566405       14.8503977139        3.0617203535  W2        18871           0.0000000000
     56613     18871  TIP3      H2             -6.2694066405       13.7448077139        2.0294103535  W2        18871           0.0000000000
     56614     18872  TIP3      OH2            -3.3665466405       13.1649877139       17.1084403535  W2        18872           0.0000000000
     56615     18872  TIP3      H1             -2.6210666405       13.7533577139       16.9888403535  W2        18872           0.0000000000
     56616     18872  TIP3      H2             -4.1238666405       13.7469577139       17.1717503535  W2        18872           0.0000000000
     56617     18873  TIP3      OH2           -14.9240266405       10.4797777139       19.7125003535  W2        18873           0.0000000000
     56618     18873  TIP3      H1            -14.5159066405        9.6224377139       19.5915603535  W2        18873           0.0000000000
     56619     18873  TIP3      H2            -15.1842666405       10.4939077139       20.6335303535  W2        18873           0.0000000000
     56620     18874  TIP3      OH2           -10.2659266405       11.5956377139        4.7308303535  W2        18874           0.0000000000
     56621     18874  TIP3      H1            -10.7257266405       11.1114677139        5.4166803535  W2        18874           0.0000000000
     56622     18874  TIP3      H2            -10.0110566405       10.9271777139        4.0948803535  W2        18874           0.0000000000
     56623     18875  TIP3      OH2           -10.9769966405        9.4883477139       17.0867903535  W2        18875           0.0000000000
     56624     18875  TIP3      H1            -11.5953866405       10.1630077139       17.3672603535  W2        18875           0.0000000000
     56625     18875  TIP3      H2            -10.6328766405        9.8097377139       16.2534103535  W2        18875           0.0000000000
     56626     18876  TIP3      OH2            -9.1948866405        9.8388177139        2.9931503535  W2        18876           0.0000000000
     56627     18876  TIP3      H1             -9.3753866405        9.6839377139        2.0659803535  W2        18876           0.0000000000
     56628     18876  TIP3      H2             -8.2448366405        9.9466877139        3.0379403535  W2        18876           0.0000000000
     56629     18877  TIP3      OH2            -5.9571766405       11.9598777139       20.3642703535  W2        18877           0.0000000000
     56630     18877  TIP3      H1             -5.0040566405       12.0437877139       20.3368703535  W2        18877           0.0000000000
     56631     18877  TIP3      H2             -6.1177166405       11.2480577139       20.9837603535  W2        18877           0.0000000000
     56632     18878  TIP3      OH2             0.1949433595       12.1932377139        2.4389603535  W2        18878           0.0000000000
     56633     18878  TIP3      H1             -0.0785766405       11.7687877139        1.6257903535  W2        18878           0.0000000000
     56634     18878  TIP3      H2              0.2343533595       13.1246877139        2.2220003535  W2        18878           0.0000000000
     56635     18879  TIP3      OH2           -10.6376266405        6.8434277139       18.1691003535  W2        18879           0.0000000000
     56636     18879  TIP3      H1            -10.4875366405        6.1145577139       17.5670703535  W2        18879           0.0000000000
     56637     18879  TIP3      H2            -10.6353866405        7.6205977139       17.6103203535  W2        18879           0.0000000000
     56638     18880  TIP3      OH2           -10.2250566405        5.2130077139       15.6618403535  W2        18880           0.0000000000
     56639     18880  TIP3      H1             -9.6893066405        5.6646777139       15.0097703535  W2        18880           0.0000000000
     56640     18880  TIP3      H2            -11.0770966405        5.1049877139       15.2392503535  W2        18880           0.0000000000
     56641     18881  TIP3      OH2            -8.6432166405       10.6526277139       15.9013603535  W2        18881           0.0000000000
     56642     18881  TIP3      H1             -7.8927366405       10.4963777139       15.3281403535  W2        18881           0.0000000000
     56643     18881  TIP3      H2             -8.9823866405       11.5042877139       15.6259103535  W2        18881           0.0000000000
     56644     18882  TIP3      OH2            -4.2275966405        8.4678077139       20.9298903535  W2        18882           0.0000000000
     56645     18882  TIP3      H1             -4.0354666405        7.5367477139       20.8183403535  W2        18882           0.0000000000
     56646     18882  TIP3      H2             -3.3699666405        8.8927577139       20.9194303535  W2        18882           0.0000000000
     56647     18883  TIP3      OH2            -2.9108766405       11.2563277139       19.0071603535  W2        18883           0.0000000000
     56648     18883  TIP3      H1             -3.1923766405       11.9657877139       18.4295403535  W2        18883           0.0000000000
     56649     18883  TIP3      H2             -1.9684466405       11.1836277139       18.8562803535  W2        18883           0.0000000000
     56650     18884  TIP3      OH2           -12.1589966405        8.0417777139       20.0806603535  W2        18884           0.0000000000
     56651     18884  TIP3      H1            -12.9260966405        7.5092577139       19.8704203535  W2        18884           0.0000000000
     56652     18884  TIP3      H2            -11.4800966405        7.7318177139       19.4812903535  W2        18884           0.0000000000
     56653     18885  TIP3      OH2            -9.4195066405        2.6695777139       16.0932003535  W2        18885           0.0000000000
     56654     18885  TIP3      H1             -9.5175466405        3.6158977139       15.9878203535  W2        18885           0.0000000000
     56655     18885  TIP3      H2            -10.1618866405        2.2969577139       15.6175503535  W2        18885           0.0000000000
     56656     18886  TIP3      OH2            -8.1554566405        6.9911177139       19.6570403535  W2        18886           0.0000000000
     56657     18886  TIP3      H1             -8.3909166405        6.7717877139       20.5585303535  W2        18886           0.0000000000
     56658     18886  TIP3      H2             -8.9387666405        6.7842377139       19.1472903535  W2        18886           0.0000000000
     56659     18887  TIP3      OH2            -5.4397966405        6.1184677139       18.7323903535  W2        18887           0.0000000000
     56660     18887  TIP3      H1             -6.3872566405        6.1504377139       18.8647203535  W2        18887           0.0000000000
     56661     18887  TIP3      H2             -5.1271266405        5.4931777139       19.3862103535  W2        18887           0.0000000000
     56662     18888  TIP3      OH2            -3.8056466405        4.7525777139       20.7375803535  W2        18888           0.0000000000
     56663     18888  TIP3      H1             -3.9024666405        3.8003077139       20.7317703535  W2        18888           0.0000000000
     56664     18888  TIP3      H2             -4.1273366405        5.0212577139       21.5981303535  W2        18888           0.0000000000
     56665     18889  TIP3      OH2           -13.9787166405        5.9621577139       19.7851303535  W2        18889           0.0000000000
     56666     18889  TIP3      H1            -13.7669766405        5.2557677139       19.1748803535  W2        18889           0.0000000000
     56667     18889  TIP3      H2            -14.0899666405        5.5247577139       20.6292503535  W2        18889           0.0000000000
     56668     18890  TIP3      OH2            -9.1976966405        1.9633177139       18.7644803535  W2        18890           0.0000000000
     56669     18890  TIP3      H1             -8.4858566405        1.3235377139       18.7503903535  W2        18890           0.0000000000
     56670     18890  TIP3      H2             -9.2986566405        2.2301477139       17.8507903535  W2        18890           0.0000000000
     56671     18891  TIP3      OH2            -8.8439466405        3.6461577139       20.8181103535  W2        18891           0.0000000000
     56672     18891  TIP3      H1             -8.9757266405        3.1705377139       19.9979603535  W2        18891           0.0000000000
     56673     18891  TIP3      H2             -9.4432066405        4.3905177139       20.7628203535  W2        18891           0.0000000000
     56674     18892  TIP3      OH2            -9.2977166405       20.5291877139        3.9945103535  W2        18892           0.0000000000
     56675     18892  TIP3      H1             -8.3646466405       20.6870577139        4.1383503535  W2        18892           0.0000000000
     56676     18892  TIP3      H2             -9.5618366405       21.2044877139        3.3696603535  W2        18892           0.0000000000
     56677     18893  TIP3      OH2           -15.7292266405       15.1655677139        3.4773203535  W2        18893           0.0000000000
     56678     18893  TIP3      H1            -14.8153066405       15.2444577139        3.7507103535  W2        18893           0.0000000000
     56679     18893  TIP3      H2            -15.7219166405       14.4785277139        2.8108803535  W2        18893           0.0000000000
     56680     18894  TIP3      OH2           -17.0801666405       20.5584177139        8.5547103535  W2        18894           0.0000000000
     56681     18894  TIP3      H1            -17.7274566405       20.0965877139        8.0218303535  W2        18894           0.0000000000
     56682     18894  TIP3      H2            -16.7257066405       19.8867477139        9.1373303535  W2        18894           0.0000000000
     56683     18895  TIP3      OH2           -16.2102466405       18.6391177139       10.3593303535  W2        18895           0.0000000000
     56684     18895  TIP3      H1            -16.5445666405       17.7588477139       10.5313503535  W2        18895           0.0000000000
     56685     18895  TIP3      H2            -15.9880066405       18.9846177139       11.2238903535  W2        18895           0.0000000000
     56686     18896  TIP3      OH2             1.3382333595       19.4487577139       13.3398103535  W2        18896           0.0000000000
     56687     18896  TIP3      H1              1.3169033595       19.6335977139       14.2787503535  W2        18896           0.0000000000
     56688     18896  TIP3      H2              2.0288533595       20.0171577139       12.9989503535  W2        18896           0.0000000000
     56689     18897  TIP3      OH2             0.9015233595       19.0158677139       16.2617203535  W2        18897           0.0000000000
     56690     18897  TIP3      H1              0.4143933595       18.2802777139       15.8904603535  W2        18897           0.0000000000
     56691     18897  TIP3      H2              1.4507933595       18.6222577139       16.9396603535  W2        18897           0.0000000000
     56692     18898  TIP3      OH2            -0.6477466405       14.8056777139       20.8997503535  W2        18898           0.0000000000
     56693     18898  TIP3      H1             -1.5136366405       14.7006477139       21.2939803535  W2        18898           0.0000000000
     56694     18898  TIP3      H2             -0.2711566405       15.5640077139       21.3462203535  W2        18898           0.0000000000
     56695     18899  TIP3      OH2             0.6532233595       13.0620477139        6.4140003535  W2        18899           0.0000000000
     56696     18899  TIP3      H1              1.5033633595       13.4831377139        6.5411603535  W2        18899           0.0000000000
     56697     18899  TIP3      H2              0.6587333595       12.3220577139        7.0211403535  W2        18899           0.0000000000
     56698     18900  TIP3      OH2             1.0477833595       11.1157877139        8.2375703535  W2        18900           0.0000000000
     56699     18900  TIP3      H1              0.3212433595       10.6360477139        8.6353303535  W2        18900           0.0000000000
     56700     18900  TIP3      H2              1.6291133595       11.3212577139        8.9697303535  W2        18900           0.0000000000
     56701     18901  TIP3      OH2             0.8069033595       13.9005377139       13.1853303535  W2        18901           0.0000000000
     56702     18901  TIP3      H1              1.6403233595       13.5225377139       12.9046903535  W2        18901           0.0000000000
     56703     18901  TIP3      H2              0.9189333595       14.8436577139       13.0662403535  W2        18901           0.0000000000
     56704     18902  TIP3      OH2            -0.7068666405       16.7782877139       15.4921703535  W2        18902           0.0000000000
     56705     18902  TIP3      H1             -1.3543366405       17.1034377139       16.1176903535  W2        18902           0.0000000000
     56706     18902  TIP3      H2             -1.2244666405       16.3380577139       14.8180003535  W2        18902           0.0000000000
     56707     18903  TIP3      OH2             1.3160933595       11.0166377139        4.6287003535  W2        18903           0.0000000000
     56708     18903  TIP3      H1              0.7942033595       11.3730477139        3.9097903535  W2        18903           0.0000000000
     56709     18903  TIP3      H2              1.2830133595       11.6914177139        5.3067903535  W2        18903           0.0000000000
     56710     18904  TIP3      OH2            -0.3350066405        8.2561977139        3.1794103535  W2        18904           0.0000000000
     56711     18904  TIP3      H1             -0.2385666405        8.9228977139        2.4993803535  W2        18904           0.0000000000
     56712     18904  TIP3      H2             -0.4750466405        7.4408277139        2.6979603535  W2        18904           0.0000000000
     56713     18905  TIP3      OH2            -1.1655366405        9.6364377139        8.8004403535  W2        18905           0.0000000000
     56714     18905  TIP3      H1             -1.3156566405        8.6912977139        8.7802203535  W2        18905           0.0000000000
     56715     18905  TIP3      H2             -1.5190866405        9.9175777139        9.6443503535  W2        18905           0.0000000000
     56716     18906  TIP3      OH2           -16.1302966405       11.7146577139       12.8108203535  W2        18906           0.0000000000
     56717     18906  TIP3      H1            -15.9460066405       11.6328277139       11.8751103535  W2        18906           0.0000000000
     56718     18906  TIP3      H2            -15.2810066405       11.5903577139       13.2344603535  W2        18906           0.0000000000
     56719     18907  TIP3      OH2            -0.3092466405       11.6067677139       18.4392703535  W2        18907           0.0000000000
     56720     18907  TIP3      H1              0.2734833595       10.8719977139       18.6309903535  W2        18907           0.0000000000
     56721     18907  TIP3      H2              0.2546833595       12.3787977139       18.4858503535  W2        18907           0.0000000000
     56722     18908  TIP3      OH2             1.1874633595        9.5093477139       19.1238103535  W2        18908           0.0000000000
     56723     18908  TIP3      H1              0.3241333595        9.1305577139       18.9582803535  W2        18908           0.0000000000
     56724     18908  TIP3      H2              1.7918333595        8.7708277139       19.0493903535  W2        18908           0.0000000000
     56725     18909  TIP3      OH2            -1.0876266405        5.6641777139        2.2969603535  W2        18909           0.0000000000
     56726     18909  TIP3      H1             -0.4770466405        5.2928577139        2.9337803535  W2        18909           0.0000000000
     56727     18909  TIP3      H2             -1.9244766405        5.2428677139        2.4929603535  W2        18909           0.0000000000
     56728     18910  TIP3      OH2            -1.4550566405        7.2190177139        7.2629503535  W2        18910           0.0000000000
     56729     18910  TIP3      H1             -1.1753466405        6.3120577139        7.3871203535  W2        18910           0.0000000000
     56730     18910  TIP3      H2             -0.6958866405        7.6531677139        6.8738703535  W2        18910           0.0000000000
     56731     18911  TIP3      OH2            -0.8432266405        7.8007577139       12.6988403535  W2        18911           0.0000000000
     56732     18911  TIP3      H1              0.0895733595        8.0127477139       12.6644403535  W2        18911           0.0000000000
     56733     18911  TIP3      H2             -1.0784766405        7.9019677139       13.6211403535  W2        18911           0.0000000000
     56734     18912  TIP3      OH2            -0.8140366405        8.5372877139       15.4747803535  W2        18912           0.0000000000
     56735     18912  TIP3      H1             -1.6569066405        8.8053277139       15.8407603535  W2        18912           0.0000000000
     56736     18912  TIP3      H2             -0.3716066405        9.3594777139       15.2638903535  W2        18912           0.0000000000
     56737     18913  TIP3      OH2           -16.5328166405        6.9851577139       18.9517003535  W2        18913           0.0000000000
     56738     18913  TIP3      H1            -15.6133266405        6.8629877139       19.1880103535  W2        18913           0.0000000000
     56739     18913  TIP3      H2            -16.9823666405        6.2351277139       19.3410503535  W2        18913           0.0000000000
     56740     18914  TIP3      OH2             1.4691233595        2.5173077139       20.8282803535  W2        18914           0.0000000000
     56741     18914  TIP3      H1              1.8188233595        1.8636577139       20.2227503535  W2        18914           0.0000000000
     56742     18914  TIP3      H2              1.6160733595        3.3547177139       20.3885403535  W2        18914           0.0000000000
     56743     18915  TIP3      OH2            -0.8415766405        4.4819477139        7.3111503535  W2        18915           0.0000000000
     56744     18915  TIP3      H1             -0.6590766405        4.0330977139        8.1366503535  W2        18915           0.0000000000
     56745     18915  TIP3      H2             -1.4412866405        3.8973877139        6.8476103535  W2        18915           0.0000000000
     56746     18916  TIP3      OH2           -15.3115666405        5.2973177139       11.8429903535  W2        18916           0.0000000000
     56747     18916  TIP3      H1            -14.8664066405        4.5055677139       12.1449603535  W2        18916           0.0000000000
     56748     18916  TIP3      H2            -14.8452666405        6.0138377139       12.2735503535  W2        18916           0.0000000000
     56749     18917  TIP3      OH2           -17.0075366405        8.2966177139       12.9120103535  W2        18917           0.0000000000
     56750     18917  TIP3      H1            -16.5155566405        8.0756677139       12.1212103535  W2        18917           0.0000000000
     56751     18917  TIP3      H2            -16.6454466405        9.1369577139       13.1929603535  W2        18917           0.0000000000
     56752     18918  TIP3      OH2             0.9888433595        4.6267677139       19.1774103535  W2        18918           0.0000000000
     56753     18918  TIP3      H1              0.0714133595        4.8974777139       19.1417603535  W2        18918           0.0000000000
     56754     18918  TIP3      H2              1.1117833595        4.0916077139       18.3933803535  W2        18918           0.0000000000
     56755     18919  TIP3      OH2             1.0250433595        4.5497577139        3.8391803535  W2        18919           0.0000000000
     56756     18919  TIP3      H1              1.4373033595        3.8283277139        3.3639803535  W2        18919           0.0000000000
     56757     18919  TIP3      H2              1.7066933595        5.2192177139        3.8976103535  W2        18919           0.0000000000
     56758     18920  TIP3      OH2           -16.6938866405        4.5545277139        6.9662503535  W2        18920           0.0000000000
     56759     18920  TIP3      H1            -17.6190466405        4.7631877139        6.8368003535  W2        18920           0.0000000000
     56760     18920  TIP3      H2            -16.2398966405        5.0386077139        6.2764803535  W2        18920           0.0000000000
     56761     18921  TIP3      OH2            -1.9231666405       19.5386977139        8.9119903535  W2        18921           0.0000000000
     56762     18921  TIP3      H1             -1.2708766405       19.1909077139        8.3039003535  W2        18921           0.0000000000
     56763     18921  TIP3      H2             -1.4127866405       20.0270177139        9.5579603535  W2        18921           0.0000000000
     56764     18922  TIP3      OH2           -16.7303466405        3.2924277139       15.3105003535  W2        18922           0.0000000000
     56765     18922  TIP3      H1            -17.3952966405        3.0464577139       15.9535903535  W2        18922           0.0000000000
     56766     18922  TIP3      H2            -17.1732166405        3.9144677139       14.7333003535  W2        18922           0.0000000000
     56767     18923  TIP3      OH2           -14.5384166405       16.4678377139       19.4550803535  W2        18923           0.0000000000
     56768     18923  TIP3      H1            -15.3591666405       16.6424877139       18.9945503535  W2        18923           0.0000000000
     56769     18923  TIP3      H2            -14.7906366405       16.3943077139       20.3755203535  W2        18923           0.0000000000
     56770     18924  TIP3      OH2           -11.5841266405       17.4419577139       15.7134803535  W2        18924           0.0000000000
     56771     18924  TIP3      H1            -12.0090166405       18.2518077139       15.4309403535  W2        18924           0.0000000000
     56772     18924  TIP3      H2            -10.6798466405       17.5273677139       15.4114603535  W2        18924           0.0000000000
     56773     18925  TIP3      OH2            -7.2729866405       18.8409577139       18.6728503535  W2        18925           0.0000000000
     56774     18925  TIP3      H1             -7.0882366405       18.5075677139       19.5508803535  W2        18925           0.0000000000
     56775     18925  TIP3      H2             -6.4265366405       19.1508177139       18.3507703535  W2        18925           0.0000000000
     56776     18926  TIP3      OH2            -4.9279466405       20.1268477139       17.9169903535  W2        18926           0.0000000000
     56777     18926  TIP3      H1             -4.2510566405       19.4940777139       17.6769103535  W2        18926           0.0000000000
     56778     18926  TIP3      H2             -4.6060666405       20.5278977139       18.7243203535  W2        18926           0.0000000000
     56779     18927  TIP3      OH2            -0.0105666405        2.7163977139       16.9964903535  W2        18927           0.0000000000
     56780     18927  TIP3      H1             -0.8232166405        3.0414277139       16.6089603535  W2        18927           0.0000000000
     56781     18927  TIP3      H2              0.2222833595        1.9562477139       16.4634003535  W2        18927           0.0000000000
     56782     18928  TIP3      OH2           -14.1824566405       20.6983477139       15.7610103535  W2        18928           0.0000000000
     56783     18928  TIP3      H1            -14.9028166405       21.1384477139       15.3097803535  W2        18928           0.0000000000
     56784     18928  TIP3      H2            -14.5480566405       20.4478177139       16.6094103535  W2        18928           0.0000000000
     56785     18929  TIP3      OH2           -11.7151966405       20.2987377139       14.7907303535  W2        18929           0.0000000000
     56786     18929  TIP3      H1            -12.5799766405       20.3705877139       15.1947403535  W2        18929           0.0000000000
     56787     18929  TIP3      H2            -11.7702966405       20.8454677139       14.0069803535  W2        18929           0.0000000000
     56788     18930  TIP3      OH2            -7.0046366405       20.1866277139       13.9663303535  W2        18930           0.0000000000
     56789     18930  TIP3      H1             -7.4612366405       20.7155977139       13.3121703535  W2        18930           0.0000000000
     56790     18930  TIP3      H2             -6.8418366405       20.7897677139       14.6915603535  W2        18930           0.0000000000
     56791     18931  TIP3      OH2            -4.6770066405       19.0645877139       14.9113603535  W2        18931           0.0000000000
     56792     18931  TIP3      H1             -5.5816366405       19.2296077139       14.6455703535  W2        18931           0.0000000000
     56793     18931  TIP3      H2             -4.2481466405       19.9178077139       14.8457003535  W2        18931           0.0000000000
     56794     18932  TIP3      OH2            -2.0728166405       20.6344977139       15.2061403535  W2        18932           0.0000000000
     56795     18932  TIP3      H1             -2.2546166405       21.5503877139       14.9956303535  W2        18932           0.0000000000
     56796     18932  TIP3      H2             -1.8960366405       20.2242077139       14.3596003535  W2        18932           0.0000000000
     56797     18933  TIP3      OH2           -14.7676466405       19.3215977139       12.6711903535  W2        18933           0.0000000000
     56798     18933  TIP3      H1            -14.7860466405       18.8961077139       13.5284203535  W2        18933           0.0000000000
     56799     18933  TIP3      H2            -13.9628566405       19.0030977139       12.2624103535  W2        18933           0.0000000000
     56800     18934  TIP3      OH2           -12.6263366405       18.0314677139       11.3261803535  W2        18934           0.0000000000
     56801     18934  TIP3      H1            -12.8452666405       17.1152077139       11.4957803535  W2        18934           0.0000000000
     56802     18934  TIP3      H2            -11.8021166405       18.1715077139       11.7923203535  W2        18934           0.0000000000
     56803     18935  TIP3      OH2           -10.0890866405       18.5013977139       12.1749803535  W2        18935           0.0000000000
     56804     18935  TIP3      H1             -9.8765166405       17.6132977139       11.8880703535  W2        18935           0.0000000000
     56805     18935  TIP3      H2            -10.0245766405       18.4671677139       13.1293803535  W2        18935           0.0000000000
     56806     18936  TIP3      OH2            -6.5807166405        4.1654577139       11.3193103535  W2        18936           0.0000000000
     56807     18936  TIP3      H1             -7.2550366405        3.5360177139       11.5748903535  W2        18936           0.0000000000
     56808     18936  TIP3      H2             -6.0167966405        3.6813477139       10.7161003535  W2        18936           0.0000000000
     56809     18937  TIP3      OH2            -1.4379966405        2.2728577139       11.4320203535  W2        18937           0.0000000000
     56810     18937  TIP3      H1             -0.8342366405        2.8203977139       10.9301203535  W2        18937           0.0000000000
     56811     18937  TIP3      H2             -2.3077966405        2.5918977139       11.1914303535  W2        18937           0.0000000000
     56812     18938  TIP3      OH2             0.2890433595        3.4117277139        9.7651103535  W2        18938           0.0000000000
     56813     18938  TIP3      H1              0.9007933595        2.8972977139        9.2384703535  W2        18938           0.0000000000
     56814     18938  TIP3      H2              0.6713833595        4.2889377139        9.7885503535  W2        18938           0.0000000000
     56815     18939  TIP3      OH2           -14.2539666405        2.7994877139        9.1413003535  W2        18939           0.0000000000
     56816     18939  TIP3      H1            -15.0309866405        2.5649777139        8.6338903535  W2        18939           0.0000000000
     56817     18939  TIP3      H2            -13.7236066405        2.0026977139        9.1501003535  W2        18939           0.0000000000
     56818     18940  TIP3      OH2           -15.4176266405        2.5972977139        4.9449103535  W2        18940           0.0000000000
     56819     18940  TIP3      H1            -14.9785566405        3.2083477139        4.3532603535  W2        18940           0.0000000000
     56820     18940  TIP3      H2            -16.0513866405        3.1357077139        5.4189103535  W2        18940           0.0000000000
     56821     18941  TIP3      OH2            -9.6747066405        2.7261977139        8.9546103535  W2        18941           0.0000000000
     56822     18941  TIP3      H1             -8.8003666405        3.1146277139        8.9250403535  W2        18941           0.0000000000
     56823     18941  TIP3      H2             -9.8106266405        2.5109777139        9.8773303535  W2        18941           0.0000000000
     56824     18942  TIP3      OH2            -4.1178666405        2.7561777139       10.6037803535  W2        18942           0.0000000000
     56825     18942  TIP3      H1             -4.0417066405        2.8513377139        9.6543803535  W2        18942           0.0000000000
     56826     18942  TIP3      H2             -4.3929466405        1.8484677139       10.7326903535  W2        18942           0.0000000000
     56827     18943  TIP3      OH2            -2.7646066405        2.7819577139        6.2962803535  W2        18943           0.0000000000
     56828     18943  TIP3      H1             -3.4674966405        3.3968777139        6.0864203535  W2        18943           0.0000000000
     56829     18943  TIP3      H2             -3.2094666405        1.9446277139        6.4273703535  W2        18943           0.0000000000
     56830     18944  TIP3      OH2           -15.5166766405       18.5455177139        5.8424203535  W2        18944           0.0000000000
     56831     18944  TIP3      H1            -16.2016866405       18.5074077139        5.1749303535  W2        18944           0.0000000000
     56832     18944  TIP3      H2            -15.5129566405       19.4582777139        6.1306303535  W2        18944           0.0000000000
     56833     18945  TIP3      OH2           -13.5567166405        4.5134477139        3.3873203535  W2        18945           0.0000000000
     56834     18945  TIP3      H1            -13.0653766405        3.8836877139        2.8598703535  W2        18945           0.0000000000
     56835     18945  TIP3      H2            -12.9330866405        4.8093877139        4.0504403535  W2        18945           0.0000000000
     56836     18946  TIP3      OH2            -8.5307066405        4.8065977139        5.8443703535  W2        18946           0.0000000000
     56837     18946  TIP3      H1             -8.3525766405        4.1599177139        6.5272303535  W2        18946           0.0000000000
     56838     18946  TIP3      H2             -8.5840866405        5.6403677139        6.3114803535  W2        18946           0.0000000000
     56839     18947  TIP3      OH2            -6.6523266405       19.7550077139        4.2400403535  W2        18947           0.0000000000
     56840     18947  TIP3      H1             -5.7863066405       20.1217477139        4.0618603535  W2        18947           0.0000000000
     56841     18947  TIP3      H2             -6.8990466405       19.3158077139        3.4261203535  W2        18947           0.0000000000
     56842     18948  TIP3      OH2             0.0566333595       19.3180377139        6.9191503535  W2        18948           0.0000000000
     56843     18948  TIP3      H1             -0.1376566405       18.5702477139        6.3541103535  W2        18948           0.0000000000
     56844     18948  TIP3      H2              0.0176433595       20.0760477139        6.3359403535  W2        18948           0.0000000000
     56845     18949  TIP3      OH2           -14.2961666405        3.3136777139       18.6589203535  W2        18949           0.0000000000
     56846     18949  TIP3      H1            -14.6623466405        2.5479377139       19.1013903535  W2        18949           0.0000000000
     56847     18949  TIP3      H2            -13.3833166405        3.3426977139       18.9454303535  W2        18949           0.0000000000
     56848     18950  TIP3      OH2           -12.3230866405        2.6641177139       20.1946303535  W2        18950           0.0000000000
     56849     18950  TIP3      H1            -11.4247266405        2.3901377139       20.0099703535  W2        18950           0.0000000000
     56850     18950  TIP3      H2            -12.7097766405        1.9217177139       20.6588903535  W2        18950           0.0000000000
     56851     18951  TIP3      OH2           -13.6985566405       19.4655977139        2.8676303535  W2        18951           0.0000000000
     56852     18951  TIP3      H1            -13.9660966405       19.7518877139        3.7409403535  W2        18951           0.0000000000
     56853     18951  TIP3      H2            -12.9272966405       18.9195177139        3.0198803535  W2        18951           0.0000000000
     56854     18952  TIP3      OH2            -3.9018566405        1.9966477139       20.3769103535  W2        18952           0.0000000000
     56855     18952  TIP3      H1             -3.8251366405        1.5707177139       21.2306803535  W2        18952           0.0000000000
     56856     18952  TIP3      H2             -3.0081966405        2.0101177139       20.0342603535  W2        18952           0.0000000000
     56857     18953  TIP3      OH2            -0.7257466405       18.0692777139       19.0693303535  W2        18953           0.0000000000
     56858     18953  TIP3      H1             -1.5075566405       17.8830777139       18.5493903535  W2        18953           0.0000000000
     56859     18953  TIP3      H2             -0.7977566405       18.9987077139       19.2865803535  W2        18953           0.0000000000
     56860     18954  TIP3      OH2            13.6802933595       11.9557177139        9.1000503535  W2        18954           0.0000000000
     56861     18954  TIP3      H1             13.7694033595       12.8995377139        8.9677603535  W2        18954           0.0000000000
     56862     18954  TIP3      H2             13.0420533595       11.6803577139        8.4419903535  W2        18954           0.0000000000
     56863     18955  TIP3      OH2            12.6134233595       11.2107877139       12.5188703535  W2        18955           0.0000000000
     56864     18955  TIP3      H1             12.5751733595       10.5644177139       13.2238303535  W2        18955           0.0000000000
     56865     18955  TIP3      H2             12.2910733595       10.7442277139       11.7477403535  W2        18955           0.0000000000
     56866     18956  TIP3      OH2             4.9819233595       10.8249977139       14.1118603535  W2        18956           0.0000000000
     56867     18956  TIP3      H1              5.0231333595       10.1993277139       14.8351003535  W2        18956           0.0000000000
     56868     18956  TIP3      H2              5.6846933595       11.4488577139       14.2939003535  W2        18956           0.0000000000
     56869     18957  TIP3      OH2            16.3194433595       14.1498277139       10.8203803535  W2        18957           0.0000000000
     56870     18957  TIP3      H1             15.8787133595       13.4294277139       11.2709403535  W2        18957           0.0000000000
     56871     18957  TIP3      H2             16.3064133595       14.8705477139       11.4501503535  W2        18957           0.0000000000
     56872     18958  TIP3      OH2             5.9052333595       15.2748877139       12.6467703535  W2        18958           0.0000000000
     56873     18958  TIP3      H1              5.5357533595       14.4729377139       12.2772003535  W2        18958           0.0000000000
     56874     18958  TIP3      H2              6.8463433595       15.1063777139       12.6931103535  W2        18958           0.0000000000
     56875     18959  TIP3      OH2             2.5152833595        8.9351477139        8.0396503535  W2        18959           0.0000000000
     56876     18959  TIP3      H1              2.0676233595        9.7810177139        8.0213003535  W2        18959           0.0000000000
     56877     18959  TIP3      H2              1.9544033595        8.3555677139        7.5241603535  W2        18959           0.0000000000
     56878     18960  TIP3      OH2             3.2258933595       11.0971077139       10.1654503535  W2        18960           0.0000000000
     56879     18960  TIP3      H1              3.4392433595       10.3272677139       10.6927503535  W2        18960           0.0000000000
     56880     18960  TIP3      H2              3.9636533595       11.1867777139        9.5622103535  W2        18960           0.0000000000
     56881     18961  TIP3      OH2            13.4309933595       19.2539977139       11.0324203535  W2        18961           0.0000000000
     56882     18961  TIP3      H1             14.0506333595       18.5774677139       10.7593403535  W2        18961           0.0000000000
     56883     18961  TIP3      H2             13.2227333595       19.0360777139       11.9409103535  W2        18961           0.0000000000
     56884     18962  TIP3      OH2            11.0028633595       13.6429277139       12.9249703535  W2        18962           0.0000000000
     56885     18962  TIP3      H1             11.3066533595       12.9570677139       12.3303803535  W2        18962           0.0000000000
     56886     18962  TIP3      H2             11.7242633595       13.7617977139       13.5427703535  W2        18962           0.0000000000
     56887     18963  TIP3      OH2            19.6658433595        5.2444577139       13.7855903535  W2        18963           0.0000000000
     56888     18963  TIP3      H1             19.7150633595        5.8545777139       14.5215003535  W2        18963           0.0000000000
     56889     18963  TIP3      H2             20.0913533595        5.7055477139       13.0627003535  W2        18963           0.0000000000
     56890     18964  TIP3      OH2            14.1435633595        8.0371677139       13.2524503535  W2        18964           0.0000000000
     56891     18964  TIP3      H1             14.2861533595        7.0908677139       13.2726103535  W2        18964           0.0000000000
     56892     18964  TIP3      H2             14.0374633595        8.2441477139       12.3239403535  W2        18964           0.0000000000
     56893     18965  TIP3      OH2             7.2983933595        6.1388077139       10.5249303535  W2        18965           0.0000000000
     56894     18965  TIP3      H1              7.3415033595        6.9986577139       10.1065603535  W2        18965           0.0000000000
     56895     18965  TIP3      H2              6.8408033595        5.5862777139        9.8912503535  W2        18965           0.0000000000
     56896     18966  TIP3      OH2            15.0206633595        6.2693677139        8.9257603535  W2        18966           0.0000000000
     56897     18966  TIP3      H1             15.6670933595        5.9406877139        9.5505203535  W2        18966           0.0000000000
     56898     18966  TIP3      H2             15.5306033595        6.7872677139        8.3029003535  W2        18966           0.0000000000
     56899     18967  TIP3      OH2             3.9185433595        8.5353877139       11.2870703535  W2        18967           0.0000000000
     56900     18967  TIP3      H1              4.5722033595        7.9855577139       11.7190803535  W2        18967           0.0000000000
     56901     18967  TIP3      H2              3.9424733595        8.2612877139       10.3702703535  W2        18967           0.0000000000
     56902     18968  TIP3      OH2             9.0749933595       10.0855177139       10.5022203535  W2        18968           0.0000000000
     56903     18968  TIP3      H1              9.6910933595        9.5590577139       11.0116203535  W2        18968           0.0000000000
     56904     18968  TIP3      H2              8.4888733595        9.4453877139       10.0985803535  W2        18968           0.0000000000
     56905     18969  TIP3      OH2            20.0573033595        6.7223777139       16.0215703535  W2        18969           0.0000000000
     56906     18969  TIP3      H1             19.3687633595        7.3804477139       15.9262303535  W2        18969           0.0000000000
     56907     18969  TIP3      H2             20.0727633595        6.5251677139       16.9581103535  W2        18969           0.0000000000
     56908     18970  TIP3      OH2             6.1085833595        5.0566477139       14.5990103535  W2        18970           0.0000000000
     56909     18970  TIP3      H1              5.8897533595        5.5867077139       13.8326103535  W2        18970           0.0000000000
     56910     18970  TIP3      H2              5.4406733595        5.2831977139       15.2461503535  W2        18970           0.0000000000
     56911     18971  TIP3      OH2            13.4775633595       14.5567577139        8.1429203535  W2        18971           0.0000000000
     56912     18971  TIP3      H1             13.1820733595       14.2339877139        7.2916103535  W2        18971           0.0000000000
     56913     18971  TIP3      H2             13.1533433595       15.4564277139        8.1841803535  W2        18971           0.0000000000
     56914     18972  TIP3      OH2             8.6777233595       12.7322177139       14.8863803535  W2        18972           0.0000000000
     56915     18972  TIP3      H1              7.9376333595       13.3303677139       14.9899003535  W2        18972           0.0000000000
     56916     18972  TIP3      H2              9.3916733595       13.2861777139       14.5707403535  W2        18972           0.0000000000
     56917     18973  TIP3      OH2            16.7845033595        5.5602977139       10.9063503535  W2        18973           0.0000000000
     56918     18973  TIP3      H1             16.5693033595        4.7946377139       11.4389503535  W2        18973           0.0000000000
     56919     18973  TIP3      H2             17.4402433595        6.0327577139       11.4192003535  W2        18973           0.0000000000
     56920     18974  TIP3      OH2             5.7023133595        6.9488277139       12.5512303535  W2        18974           0.0000000000
     56921     18974  TIP3      H1              6.3159433595        7.5815877139       12.9244703535  W2        18974           0.0000000000
     56922     18974  TIP3      H2              6.2143833595        6.4763277139       11.8949203535  W2        18974           0.0000000000
     56923     18975  TIP3      OH2             7.0851533595       14.6965177139       15.6735303535  W2        18975           0.0000000000
     56924     18975  TIP3      H1              7.0799133595       15.5758677139       15.2954603535  W2        18975           0.0000000000
     56925     18975  TIP3      H2              6.2315633595       14.6129277139       16.0985203535  W2        18975           0.0000000000
     56926     18976  TIP3      OH2             3.2062433595       14.3673077139        6.4554603535  W2        18976           0.0000000000
     56927     18976  TIP3      H1              2.9343333595       14.5964077139        5.5667503535  W2        18976           0.0000000000
     56928     18976  TIP3      H2              3.2518133595       15.2051877139        6.9159903535  W2        18976           0.0000000000
     56929     18977  TIP3      OH2            16.8312133595       15.9888977139       13.1683103535  W2        18977           0.0000000000
     56930     18977  TIP3      H1             15.8895833595       16.0472877139       13.3300003535  W2        18977           0.0000000000
     56931     18977  TIP3      H2             17.1078233595       16.8949477139       13.0312803535  W2        18977           0.0000000000
     56932     18978  TIP3      OH2            17.1319133595        4.2754277139       14.5857003535  W2        18978           0.0000000000
     56933     18978  TIP3      H1             16.3958333595        4.8861377139       14.5478303535  W2        18978           0.0000000000
     56934     18978  TIP3      H2             17.8153133595        4.6903277139       14.0593403535  W2        18978           0.0000000000
     56935     18979  TIP3      OH2            10.1350533595        2.3621577139       12.0515003535  W2        18979           0.0000000000
     56936     18979  TIP3      H1             10.0174733595        1.4137577139       11.9973303535  W2        18979           0.0000000000
     56937     18979  TIP3      H2              9.2800633595        2.6947677139       12.3246103535  W2        18979           0.0000000000
     56938     18980  TIP3      OH2            15.0833333595       17.7702477139        9.7934703535  W2        18980           0.0000000000
     56939     18980  TIP3      H1             15.5085633595       17.0630377139        9.3084303535  W2        18980           0.0000000000
     56940     18980  TIP3      H2             15.4003333595       18.5715177139        9.3766903535  W2        18980           0.0000000000
     56941     18981  TIP3      OH2            16.2429833595       15.6710977139        8.3021303535  W2        18981           0.0000000000
     56942     18981  TIP3      H1             15.9854633595       14.9811077139        7.6907203535  W2        18981           0.0000000000
     56943     18981  TIP3      H2             16.3140633595       15.2282177139        9.1477203535  W2        18981           0.0000000000
     56944     18982  TIP3      OH2            17.9290033595       14.2377677139       16.7794803535  W2        18982           0.0000000000
     56945     18982  TIP3      H1             18.0686333595       13.6460177139       16.0401803535  W2        18982           0.0000000000
     56946     18982  TIP3      H2             18.0962833595       15.1103577139       16.4233603535  W2        18982           0.0000000000
     56947     18983  TIP3      OH2            12.4015433595       11.1997177139        6.5520803535  W2        18983           0.0000000000
     56948     18983  TIP3      H1             11.6900933595       11.7346877139        6.2001303535  W2        18983           0.0000000000
     56949     18983  TIP3      H2             13.0925033595       11.2549277139        5.8919703535  W2        18983           0.0000000000
     56950     18984  TIP3      OH2            12.4554633595        9.6571477139        3.5905803535  W2        18984           0.0000000000
     56951     18984  TIP3      H1             13.1564533595        9.6798377139        4.2419803535  W2        18984           0.0000000000
     56952     18984  TIP3      H2             12.7577533595        9.0291177139        2.9345103535  W2        18984           0.0000000000
     56953     18985  TIP3      OH2            19.7709333595       10.5775677139       14.8455203535  W2        18985           0.0000000000
     56954     18985  TIP3      H1             19.1183433595       11.2721277139       14.9346103535  W2        18985           0.0000000000
     56955     18985  TIP3      H2             20.2359633595       10.7876577139       14.0356803535  W2        18985           0.0000000000
     56956     18986  TIP3      OH2            15.8073133595       11.4090477139        7.5036703535  W2        18986           0.0000000000
     56957     18986  TIP3      H1             15.0754133595       11.6374177139        8.0767303535  W2        18986           0.0000000000
     56958     18986  TIP3      H2             16.2545333595       10.6953177139        7.9584203535  W2        18986           0.0000000000
     56959     18987  TIP3      OH2            15.7046633595        9.5833077139       16.5713703535  W2        18987           0.0000000000
     56960     18987  TIP3      H1             15.7845733595       10.3467477139       17.1432203535  W2        18987           0.0000000000
     56961     18987  TIP3      H2             15.1034333595        9.8625477139       15.8808803535  W2        18987           0.0000000000
     56962     18988  TIP3      OH2             7.4526833595       12.0396677139        9.3861703535  W2        18988           0.0000000000
     56963     18988  TIP3      H1              7.1222033595       11.6690077139        8.5678703535  W2        18988           0.0000000000
     56964     18988  TIP3      H2              8.0410933595       11.3690677139        9.7330003535  W2        18988           0.0000000000
     56965     18989  TIP3      OH2             8.8194333595       15.4677277139       12.0673903535  W2        18989           0.0000000000
     56966     18989  TIP3      H1              8.7245633595       14.8890377139       11.3108503535  W2        18989           0.0000000000
     56967     18989  TIP3      H2              9.5487933595       15.0962977139       12.5636703535  W2        18989           0.0000000000
     56968     18990  TIP3      OH2             7.8192333595       10.8082277139       13.0196703535  W2        18990           0.0000000000
     56969     18990  TIP3      H1              8.3844833595       10.9296477139       12.2567903535  W2        18990           0.0000000000
     56970     18990  TIP3      H2              8.1381233595       11.4457277139       13.6585203535  W2        18990           0.0000000000
     56971     18991  TIP3      OH2            14.1284533595       16.3114177139       13.7537203535  W2        18991           0.0000000000
     56972     18991  TIP3      H1             13.8881133595       16.9737277139       14.4016403535  W2        18991           0.0000000000
     56973     18991  TIP3      H2             13.9302733595       15.4769377139       14.1786803535  W2        18991           0.0000000000
     56974     18992  TIP3      OH2             8.6993033595       15.2074977139       17.7368603535  W2        18992           0.0000000000
     56975     18992  TIP3      H1              8.3880533595       15.9898177139       18.1921803535  W2        18992           0.0000000000
     56976     18992  TIP3      H2              8.0493233595       15.0544077139       17.0510603535  W2        18992           0.0000000000
     56977     18993  TIP3      OH2            14.6782633595       10.5713377139        5.1887903535  W2        18993           0.0000000000
     56978     18993  TIP3      H1             15.2578133595       10.7213677139        5.9356803535  W2        18993           0.0000000000
     56979     18993  TIP3      H2             15.0922633595       11.0420777139        4.4654303535  W2        18993           0.0000000000
     56980     18994  TIP3      OH2             5.6192933595       11.4056077139       16.9654303535  W2        18994           0.0000000000
     56981     18994  TIP3      H1              5.6896133595       12.0562877139       17.6639303535  W2        18994           0.0000000000
     56982     18994  TIP3      H2              4.7285133595       11.5083577139       16.6305203535  W2        18994           0.0000000000
     56983     18995  TIP3      OH2            12.4047533595       17.3081877139        8.6241003535  W2        18995           0.0000000000
     56984     18995  TIP3      H1             12.8785133595       17.6038177139        9.4015203535  W2        18995           0.0000000000
     56985     18995  TIP3      H2             11.8416833595       18.0463477139        8.3910603535  W2        18995           0.0000000000
     56986     18996  TIP3      OH2             6.9388933595       17.2789977139       18.5002403535  W2        18996           0.0000000000
     56987     18996  TIP3      H1              6.9464233595       17.1429677139       17.5527903535  W2        18996           0.0000000000
     56988     18996  TIP3      H2              6.0229333595       17.1618077139       18.7522403535  W2        18996           0.0000000000
     56989     18997  TIP3      OH2            18.3771033595        2.3213777139        5.0017603535  W2        18997           0.0000000000
     56990     18997  TIP3      H1             17.4771733595        2.4602777139        5.2968203535  W2        18997           0.0000000000
     56991     18997  TIP3      H2             18.6289433595        3.1528377139        4.5999303535  W2        18997           0.0000000000
     56992     18998  TIP3      OH2             6.4429533595       11.1090977139        6.9754503535  W2        18998           0.0000000000
     56993     18998  TIP3      H1              6.1510833595       11.8772677139        6.4845803535  W2        18998           0.0000000000
     56994     18998  TIP3      H2              5.7684733595       10.4497177139        6.8125903535  W2        18998           0.0000000000
     56995     18999  TIP3      OH2            19.5662433595       16.6876177139        3.3781503535  W2        18999           0.0000000000
     56996     18999  TIP3      H1             19.6395933595       17.6266377139        3.5486803535  W2        18999           0.0000000000
     56997     18999  TIP3      H2             20.4717533595       16.3824777139        3.3218803535  W2        18999           0.0000000000
     56998     19000  TIP3      OH2             2.5359633595       13.4720177139       15.7904303535  W2        19000           0.0000000000
     56999     19000  TIP3      H1              2.0348033595       13.4439577139       14.9754003535  W2        19000           0.0000000000
     57000     19000  TIP3      H2              2.5413333595       12.5663377139       16.1001603535  W2        19000           0.0000000000
     57001     19001  TIP3      OH2             2.2862333595       16.2523977139       12.6744503535  W2        19001           0.0000000000
     57002     19001  TIP3      H1              3.2322933595       16.1080977139       12.6554003535  W2        19001           0.0000000000
     57003     19001  TIP3      H2              2.1738633595       17.0366777139       13.2115703535  W2        19001           0.0000000000
     57004     19002  TIP3      OH2            20.4840833595       16.9183677139       18.3568203535  W2        19002           0.0000000000
     57005     19002  TIP3      H1             20.4347633595       15.9631777139       18.3195803535  W2        19002           0.0000000000
     57006     19002  TIP3      H2             19.6573133595       17.1858977139       18.7582003535  W2        19002           0.0000000000
     57007     19003  TIP3      OH2            11.4624833595       16.4922877139       17.2329603535  W2        19003           0.0000000000
     57008     19003  TIP3      H1             11.5499433595       17.3187477139       17.7078703535  W2        19003           0.0000000000
     57009     19003  TIP3      H2             10.5989933595       16.1626677139       17.4818903535  W2        19003           0.0000000000
     57010     19004  TIP3      OH2            11.8770633595       20.2646577139        7.0390203535  W2        19004           0.0000000000
     57011     19004  TIP3      H1             11.8016633595       20.1433777139        6.0925403535  W2        19004           0.0000000000
     57012     19004  TIP3      H2             11.9099333595       21.2139277139        7.1574803535  W2        19004           0.0000000000
     57013     19005  TIP3      OH2             5.5304433595       19.0533577139        8.8199203535  W2        19005           0.0000000000
     57014     19005  TIP3      H1              5.6824833595       18.7053977139        9.6985703535  W2        19005           0.0000000000
     57015     19005  TIP3      H2              4.6794833595       18.6970877139        8.5646403535  W2        19005           0.0000000000
     57016     19006  TIP3      OH2            14.9786633595       19.4186777139        4.0412603535  W2        19006           0.0000000000
     57017     19006  TIP3      H1             15.3535033595       18.6742877139        3.5705203535  W2        19006           0.0000000000
     57018     19006  TIP3      H2             14.9830333595       19.1487377139        4.9595903535  W2        19006           0.0000000000
     57019     19007  TIP3      OH2            14.6474733595       19.3443877139        6.7904803535  W2        19007           0.0000000000
     57020     19007  TIP3      H1             13.7124533595       19.4445777139        6.9691803535  W2        19007           0.0000000000
     57021     19007  TIP3      H2             14.9276633595       18.6349877139        7.3688003535  W2        19007           0.0000000000
     57022     19008  TIP3      OH2            17.6360633595        8.4116177139       18.8370403535  W2        19008           0.0000000000
     57023     19008  TIP3      H1             17.2287433595        8.8921777139       18.1163703535  W2        19008           0.0000000000
     57024     19008  TIP3      H2             17.6766333595        7.5062177139       18.5291203535  W2        19008           0.0000000000
     57025     19009  TIP3      OH2             4.7850133595       14.7955577139       16.8337103535  W2        19009           0.0000000000
     57026     19009  TIP3      H1              5.0011433595       14.4341177139       17.6932903535  W2        19009           0.0000000000
     57027     19009  TIP3      H2              3.9294833595       14.4209377139       16.6240603535  W2        19009           0.0000000000
     57028     19010  TIP3      OH2             7.4038133595        3.2656077139       12.8291303535  W2        19010           0.0000000000
     57029     19010  TIP3      H1              6.5421833595        3.1784277139       12.4214203535  W2        19010           0.0000000000
     57030     19010  TIP3      H2              7.3813833595        4.1216177139       13.2568903535  W2        19010           0.0000000000
     57031     19011  TIP3      OH2            12.0665933595        2.9876477139       16.2038303535  W2        19011           0.0000000000
     57032     19011  TIP3      H1             12.4869033595        2.5723577139       16.9568903535  W2        19011           0.0000000000
     57033     19011  TIP3      H2             11.1335533595        2.8089777139       16.3210303535  W2        19011           0.0000000000
     57034     19012  TIP3      OH2            15.3930833595        6.7431677139       17.0572803535  W2        19012           0.0000000000
     57035     19012  TIP3      H1             14.8790333595        6.6173877139       17.8548803535  W2        19012           0.0000000000
     57036     19012  TIP3      H2             15.2375533595        7.6554777139       16.8129003535  W2        19012           0.0000000000
     57037     19013  TIP3      OH2            16.1555733595       11.6041677139        2.8185803535  W2        19013           0.0000000000
     57038     19013  TIP3      H1             16.1976533595       11.3815577139        1.8885803535  W2        19013           0.0000000000
     57039     19013  TIP3      H2             17.0047833595       12.0028777139        3.0085703535  W2        19013           0.0000000000
     57040     19014  TIP3      OH2            11.7283233595        5.4799877139        3.4889103535  W2        19014           0.0000000000
     57041     19014  TIP3      H1             11.4748033595        5.4991477139        4.4117203535  W2        19014           0.0000000000
     57042     19014  TIP3      H2             11.4715333595        4.6085277139        3.1875303535  W2        19014           0.0000000000
     57043     19015  TIP3      OH2             7.4948233595        8.2310577139       13.9241503535  W2        19015           0.0000000000
     57044     19015  TIP3      H1              6.8530333595        8.1907877139       14.6331603535  W2        19015           0.0000000000
     57045     19015  TIP3      H2              7.5320233595        9.1575277139       13.6864503535  W2        19015           0.0000000000
     57046     19016  TIP3      OH2             7.4917333595        8.4520677139        8.8361503535  W2        19016           0.0000000000
     57047     19016  TIP3      H1              6.5990233595        8.1116777139        8.7775303535  W2        19016           0.0000000000
     57048     19016  TIP3      H2              7.9423933595        8.0751577139        8.0804703535  W2        19016           0.0000000000
     57049     19017  TIP3      OH2            13.0272833595        8.8680977139        7.6532303535  W2        19017           0.0000000000
     57050     19017  TIP3      H1             12.6183133595        9.6829577139        7.3617103535  W2        19017           0.0000000000
     57051     19017  TIP3      H2             13.7479033595        8.7281077139        7.0389403535  W2        19017           0.0000000000
     57052     19018  TIP3      OH2            12.1294433595        9.0437377139       19.1413003535  W2        19018           0.0000000000
     57053     19018  TIP3      H1             11.5668233595        8.3388977139       19.4620803535  W2        19018           0.0000000000
     57054     19018  TIP3      H2             12.9557833595        8.9229277139       19.6090603535  W2        19018           0.0000000000
     57055     19019  TIP3      OH2            14.0320533595        8.3141377139       10.4672003535  W2        19019           0.0000000000
     57056     19019  TIP3      H1             13.8365033595        8.9198177139        9.7522603535  W2        19019           0.0000000000
     57057     19019  TIP3      H2             14.2133133595        7.4806577139       10.0328303535  W2        19019           0.0000000000
     57058     19020  TIP3      OH2             5.2448733595        8.5514077139       15.7913503535  W2        19020           0.0000000000
     57059     19020  TIP3      H1              5.2068133595        8.9515677139       16.6600603535  W2        19020           0.0000000000
     57060     19020  TIP3      H2              4.7539833595        7.7346477139       15.8816403535  W2        19020           0.0000000000
     57061     19021  TIP3      OH2             8.6106133595        5.9256377139        2.5899503535  W2        19021           0.0000000000
     57062     19021  TIP3      H1              8.1796833595        5.4806477139        3.3196903535  W2        19021           0.0000000000
     57063     19021  TIP3      H2              7.8924833595        6.2972677139        2.0777003535  W2        19021           0.0000000000
     57064     19022  TIP3      OH2             1.8529533595        5.6675877139        9.6418203535  W2        19022           0.0000000000
     57065     19022  TIP3      H1              2.4837233595        5.6387977139       10.3612103535  W2        19022           0.0000000000
     57066     19022  TIP3      H2              2.3023833595        5.2424577139        8.9114103535  W2        19022           0.0000000000
     57067     19023  TIP3      OH2             3.1271633595        6.4137877139        5.0658603535  W2        19023           0.0000000000
     57068     19023  TIP3      H1              3.6013333595        7.0047777139        4.4809503535  W2        19023           0.0000000000
     57069     19023  TIP3      H2              2.4098033595        6.9440777139        5.4128703535  W2        19023           0.0000000000
     57070     19024  TIP3      OH2            13.2959733595        9.9522677139       15.1384403535  W2        19024           0.0000000000
     57071     19024  TIP3      H1             13.6194533595        9.3212377139       14.4954903535  W2        19024           0.0000000000
     57072     19024  TIP3      H2             12.8559033595        9.4174877139       15.7991803535  W2        19024           0.0000000000
     57073     19025  TIP3      OH2            10.0732633595        5.8798177139        9.9225603535  W2        19025           0.0000000000
     57074     19025  TIP3      H1              9.1623733595        5.9364977139       10.2111603535  W2        19025           0.0000000000
     57075     19025  TIP3      H2             10.5785533595        5.8193677139       10.7332803535  W2        19025           0.0000000000
     57076     19026  TIP3      OH2             4.9016033595        7.5084477139        8.7493203535  W2        19026           0.0000000000
     57077     19026  TIP3      H1              4.0124033595        7.6079977139        8.4092803535  W2        19026           0.0000000000
     57078     19026  TIP3      H2              5.1980933595        6.6667477139        8.4031103535  W2        19026           0.0000000000
     57079     19027  TIP3      OH2             8.5547833595        7.5087077139        6.4057803535  W2        19027           0.0000000000
     57080     19027  TIP3      H1              9.4863333595        7.6377077139        6.5840903535  W2        19027           0.0000000000
     57081     19027  TIP3      H2              8.3398133595        8.1781377139        5.7562503535  W2        19027           0.0000000000
     57082     19028  TIP3      OH2            14.4784533595        5.1144477139       13.1867403535  W2        19028           0.0000000000
     57083     19028  TIP3      H1             13.8016133595        5.2457577139       13.8507103535  W2        19028           0.0000000000
     57084     19028  TIP3      H2             13.9929433595        4.9593977139       12.3765103535  W2        19028           0.0000000000
     57085     19029  TIP3      OH2             7.2288033595        8.7029277139        3.9723903535  W2        19029           0.0000000000
     57086     19029  TIP3      H1              6.6863133595        8.3233077139        3.2811503535  W2        19029           0.0000000000
     57087     19029  TIP3      H2              8.0622933595        8.8973977139        3.5438003535  W2        19029           0.0000000000
     57088     19030  TIP3      OH2            17.7659633595       20.7859877139       19.4635003535  W2        19030           0.0000000000
     57089     19030  TIP3      H1             17.9658333595       21.2101777139       18.6290303535  W2        19030           0.0000000000
     57090     19030  TIP3      H2             18.4213333595       21.1298077139       20.0705403535  W2        19030           0.0000000000
     57091     19031  TIP3      OH2             5.3639433595       13.2601177139       19.0715503535  W2        19031           0.0000000000
     57092     19031  TIP3      H1              6.0961833595       13.5147077139       19.6330003535  W2        19031           0.0000000000
     57093     19031  TIP3      H2              4.5838133595       13.4646577139       19.5870903535  W2        19031           0.0000000000
     57094     19032  TIP3      OH2            11.3932333595        8.6671177139       11.8095203535  W2        19032           0.0000000000
     57095     19032  TIP3      H1             11.9575733595        8.1207777139       11.2624803535  W2        19032           0.0000000000
     57096     19032  TIP3      H2             11.2455733595        8.1453077139       12.5982803535  W2        19032           0.0000000000
     57097     19033  TIP3      OH2             6.3952033595        4.8037277139        8.2280003535  W2        19033           0.0000000000
     57098     19033  TIP3      H1              6.0781533595        3.9012577139        8.1925403535  W2        19033           0.0000000000
     57099     19033  TIP3      H2              7.1766133595        4.8054677139        7.6751603535  W2        19033           0.0000000000
     57100     19034  TIP3      OH2            10.0198233595        7.0557277139       14.2235603535  W2        19034           0.0000000000
     57101     19034  TIP3      H1              9.1843533595        7.5096777139       14.3338003535  W2        19034           0.0000000000
     57102     19034  TIP3      H2             10.5438833595        7.3315777139       14.9755503535  W2        19034           0.0000000000
     57103     19035  TIP3      OH2            10.5640833595       13.2684977139        5.9082003535  W2        19035           0.0000000000
     57104     19035  TIP3      H1              9.8191833595       12.7610277139        5.5859903535  W2        19035           0.0000000000
     57105     19035  TIP3      H2             10.4298033595       13.3172977139        6.8546803535  W2        19035           0.0000000000
     57106     19036  TIP3      OH2            17.7139733595       12.4013177139       14.6949603535  W2        19036           0.0000000000
     57107     19036  TIP3      H1             18.3558533595       12.8579477139       14.1511803535  W2        19036           0.0000000000
     57108     19036  TIP3      H2             16.8836633595       12.5145577139       14.2323703535  W2        19036           0.0000000000
     57109     19037  TIP3      OH2            14.4617633595        6.0824877139        4.1074603535  W2        19037           0.0000000000
     57110     19037  TIP3      H1             13.5231833595        6.1940477139        3.9563403535  W2        19037           0.0000000000
     57111     19037  TIP3      H2             14.7589733595        6.9391777139        4.4140303535  W2        19037           0.0000000000
     57112     19038  TIP3      OH2            12.0832933595       13.4528277139       17.1451103535  W2        19038           0.0000000000
     57113     19038  TIP3      H1             11.7379033595       13.0710677139       17.9520703535  W2        19038           0.0000000000
     57114     19038  TIP3      H2             11.8833033595       14.3861877139       17.2164003535  W2        19038           0.0000000000
     57115     19039  TIP3      OH2            15.1801133595        7.9497577139        5.7682003535  W2        19039           0.0000000000
     57116     19039  TIP3      H1             16.0720133595        7.8122577139        6.0873203535  W2        19039           0.0000000000
     57117     19039  TIP3      H2             15.2364733595        8.7403677139        5.2315503535  W2        19039           0.0000000000
     57118     19040  TIP3      OH2             5.6889133595       12.5634977139       11.6779903535  W2        19040           0.0000000000
     57119     19040  TIP3      H1              6.4336333595       12.5610677139       11.0766403535  W2        19040           0.0000000000
     57120     19040  TIP3      H2              5.7665733595       11.7398777139       12.1595003535  W2        19040           0.0000000000
     57121     19041  TIP3      OH2            12.6894933595       14.7269277139        4.9336603535  W2        19041           0.0000000000
     57122     19041  TIP3      H1             12.3943333595       15.5537177139        5.3151403535  W2        19041           0.0000000000
     57123     19041  TIP3      H2             11.9864933595       14.1076177139        5.1298003535  W2        19041           0.0000000000
     57124     19042  TIP3      OH2             2.6968833595       11.0241877139       16.9928403535  W2        19042           0.0000000000
     57125     19042  TIP3      H1              2.9197433595       10.6061477139       17.8245903535  W2        19042           0.0000000000
     57126     19042  TIP3      H2              2.0948933595       10.4116877139       16.5701203535  W2        19042           0.0000000000
     57127     19043  TIP3      OH2             9.7133733595       10.5411777139       19.2058103535  W2        19043           0.0000000000
     57128     19043  TIP3      H1              9.4174533595       10.3754777139       18.3107203535  W2        19043           0.0000000000
     57129     19043  TIP3      H2             10.6448933595       10.3212077139       19.1952003535  W2        19043           0.0000000000
     57130     19044  TIP3      OH2            14.3336533595       15.9143777139       17.0956103535  W2        19044           0.0000000000
     57131     19044  TIP3      H1             13.4330833595       16.0976377139       16.8280003535  W2        19044           0.0000000000
     57132     19044  TIP3      H2             14.3677633595       16.1733077139       18.0164903535  W2        19044           0.0000000000
     57133     19045  TIP3      OH2            20.0649833595        8.1591677139        5.4628703535  W2        19045           0.0000000000
     57134     19045  TIP3      H1             19.5106133595        7.7629677139        4.7906203535  W2        19045           0.0000000000
     57135     19045  TIP3      H2             20.1653433595        9.0696877139        5.1852003535  W2        19045           0.0000000000
     57136     19046  TIP3      OH2            20.0281833595       13.9593377139       18.3000203535  W2        19046           0.0000000000
     57137     19046  TIP3      H1             19.1770333595       14.1977177139       17.9326603535  W2        19046           0.0000000000
     57138     19046  TIP3      H2             20.6185233595       13.9426577139       17.5467303535  W2        19046           0.0000000000
     57139     19047  TIP3      OH2            18.3601533595       16.9452077139        5.9280803535  W2        19047           0.0000000000
     57140     19047  TIP3      H1             17.9872633595       16.1195877139        6.2371403535  W2        19047           0.0000000000
     57141     19047  TIP3      H2             18.6375033595       16.7621477139        5.0304203535  W2        19047           0.0000000000
     57142     19048  TIP3      OH2            15.5205433595       11.7531577139       12.9492703535  W2        19048           0.0000000000
     57143     19048  TIP3      H1             14.5922333595       11.5213477139       12.9222003535  W2        19048           0.0000000000
     57144     19048  TIP3      H2             15.9716533595       10.9761377139       12.6191503535  W2        19048           0.0000000000
     57145     19049  TIP3      OH2             8.0638533595       16.0813177139        9.0821403535  W2        19049           0.0000000000
     57146     19049  TIP3      H1              8.5910733595       16.8547577139        8.8820203535  W2        19049           0.0000000000
     57147     19049  TIP3      H2              7.1837033595       16.3062377139        8.7805403535  W2        19049           0.0000000000
     57148     19050  TIP3      OH2             3.8186233595       10.9437277139        3.6693803535  W2        19050           0.0000000000
     57149     19050  TIP3      H1              4.4346133595       11.5704477139        4.0488603535  W2        19050           0.0000000000
     57150     19050  TIP3      H2              2.9568833595       11.2597077139        3.9410303535  W2        19050           0.0000000000
     57151     19051  TIP3      OH2             9.4910833595       13.7443077139        8.6585703535  W2        19051           0.0000000000
     57152     19051  TIP3      H1              9.2500833595       14.6697477139        8.7001003535  W2        19051           0.0000000000
     57153     19051  TIP3      H2              8.7504433595       13.2854377139        9.0549603535  W2        19051           0.0000000000
     57154     19052  TIP3      OH2            10.0057433595       17.8936677139       14.9736803535  W2        19052           0.0000000000
     57155     19052  TIP3      H1             10.3682133595       18.7482277139       14.7401203535  W2        19052           0.0000000000
     57156     19052  TIP3      H2             10.5372633595       17.6018277139       15.7143103535  W2        19052           0.0000000000
     57157     19053  TIP3      OH2             8.1741633595       18.7660677139        8.2037903535  W2        19053           0.0000000000
     57158     19053  TIP3      H1              7.2242133595       18.8718077139        8.2551203535  W2        19053           0.0000000000
     57159     19053  TIP3      H2              8.5259733595       19.5868077139        8.5485403535  W2        19053           0.0000000000
     57160     19054  TIP3      OH2            13.5498233595       13.9927377139       14.6742403535  W2        19054           0.0000000000
     57161     19054  TIP3      H1             13.1239533595       13.7649077139       15.5006403535  W2        19054           0.0000000000
     57162     19054  TIP3      H2             14.1304033595       13.2539177139       14.4917703535  W2        19054           0.0000000000
     57163     19055  TIP3      OH2            15.7527133595       14.9217877139        3.7481403535  W2        19055           0.0000000000
     57164     19055  TIP3      H1             16.1060233595       14.5417677139        4.5524903535  W2        19055           0.0000000000
     57165     19055  TIP3      H2             14.8040633595       14.8282677139        3.8350703535  W2        19055           0.0000000000
     57166     19056  TIP3      OH2            16.2082433595       18.5446877139       17.1437203535  W2        19056           0.0000000000
     57167     19056  TIP3      H1             15.6065633595       17.9889777139       16.6483503535  W2        19056           0.0000000000
     57168     19056  TIP3      H2             16.4896133595       19.2116677139       16.5174603535  W2        19056           0.0000000000
     57169     19057  TIP3      OH2            20.2561533595       19.4010377139        3.9491603535  W2        19057           0.0000000000
     57170     19057  TIP3      H1             20.9999433595       19.9870877139        3.8093203535  W2        19057           0.0000000000
     57171     19057  TIP3      H2             19.5619633595       19.9696177139        4.2824003535  W2        19057           0.0000000000
     57172     19058  TIP3      OH2             4.3308333595        5.7774577139       16.5509803535  W2        19058           0.0000000000
     57173     19058  TIP3      H1              3.4380633595        6.1159977139       16.4833803535  W2        19058           0.0000000000
     57174     19058  TIP3      H2              4.2321133595        4.9220677139       16.9690603535  W2        19058           0.0000000000
     57175     19059  TIP3      OH2            16.6186433595       13.5939877139        5.9749303535  W2        19059           0.0000000000
     57176     19059  TIP3      H1             16.3414033595       12.8659177139        6.5310403535  W2        19059           0.0000000000
     57177     19059  TIP3      H2             17.5459433595       13.7131877139        6.1801903535  W2        19059           0.0000000000
     57178     19060  TIP3      OH2             3.9820333595       17.5818977139       14.9859203535  W2        19060           0.0000000000
     57179     19060  TIP3      H1              4.1990633595       16.6501377139       14.9548903535  W2        19060           0.0000000000
     57180     19060  TIP3      H2              4.2283833595       17.8563977139       15.8692003535  W2        19060           0.0000000000
     57181     19061  TIP3      OH2             9.8434933595       16.0333977139        2.1951403535  W2        19061           0.0000000000
     57182     19061  TIP3      H1             10.0824733595       15.2852077139        1.6480303535  W2        19061           0.0000000000
     57183     19061  TIP3      H2              9.5746233595       15.6455677139        3.0279203535  W2        19061           0.0000000000
     57184     19062  TIP3      OH2             8.7805533595       15.6037777139        4.6514003535  W2        19062           0.0000000000
     57185     19062  TIP3      H1              8.9273533595       15.0837577139        5.4414903535  W2        19062           0.0000000000
     57186     19062  TIP3      H2              8.7777233595       16.5105377139        4.9579903535  W2        19062           0.0000000000
     57187     19063  TIP3      OH2             5.2336633595       12.8561077139        5.1619403535  W2        19063           0.0000000000
     57188     19063  TIP3      H1              4.5475933595       13.2083577139        5.7289103535  W2        19063           0.0000000000
     57189     19063  TIP3      H2              5.7564533595       13.6190677139        4.9153703535  W2        19063           0.0000000000
     57190     19064  TIP3      OH2            13.0651733595        5.5184877139       15.4408403535  W2        19064           0.0000000000
     57191     19064  TIP3      H1             13.7639633595        5.5923577139       16.0908103535  W2        19064           0.0000000000
     57192     19064  TIP3      H2             12.6843133595        4.6539877139       15.5951303535  W2        19064           0.0000000000
     57193     19065  TIP3      OH2            13.8496633595        5.1706577139        6.5380703535  W2        19065           0.0000000000
     57194     19065  TIP3      H1             14.0694933595        5.6421977139        5.7346103535  W2        19065           0.0000000000
     57195     19065  TIP3      H2             14.4080633595        5.5649177139        7.2081303535  W2        19065           0.0000000000
     57196     19066  TIP3      OH2            11.5182733595       17.3011377139        5.4008203535  W2        19066           0.0000000000
     57197     19066  TIP3      H1             10.7018833595       17.7981077139        5.4532503535  W2        19066           0.0000000000
     57198     19066  TIP3      H2             12.0479033595       17.7764877139        4.7607003535  W2        19066           0.0000000000
     57199     19067  TIP3      OH2            11.0496533595        6.8985377139        7.3729103535  W2        19067           0.0000000000
     57200     19067  TIP3      H1             11.8619133595        7.4028577139        7.4190803535  W2        19067           0.0000000000
     57201     19067  TIP3      H2             10.8049533595        6.7535077139        8.2868703535  W2        19067           0.0000000000
     57202     19068  TIP3      OH2            11.5852933595        7.8848077139       16.5575703535  W2        19068           0.0000000000
     57203     19068  TIP3      H1             11.7043233595        8.4583477139       17.3146103535  W2        19068           0.0000000000
     57204     19068  TIP3      H2             12.2407533595        7.1967477139       16.6723503535  W2        19068           0.0000000000
     57205     19069  TIP3      OH2            11.9333233595        3.9798377139        8.3110203535  W2        19069           0.0000000000
     57206     19069  TIP3      H1             11.5866733595        4.5968977139        8.9554503535  W2        19069           0.0000000000
     57207     19069  TIP3      H2             12.5920133595        4.4804077139        7.8295703535  W2        19069           0.0000000000
     57208     19070  TIP3      OH2             8.8565833595       18.3448577139        5.3825103535  W2        19070           0.0000000000
     57209     19070  TIP3      H1              9.0174533595       19.1446077139        4.8817703535  W2        19070           0.0000000000
     57210     19070  TIP3      H2              8.6593633595       18.6514577139        6.2675703535  W2        19070           0.0000000000
     57211     19071  TIP3      OH2             7.5910233595        5.0427777139        4.9982703535  W2        19071           0.0000000000
     57212     19071  TIP3      H1              7.5075033595        5.9310877139        5.3449103535  W2        19071           0.0000000000
     57213     19071  TIP3      H2              8.4810533595        4.7774477139        5.2299503535  W2        19071           0.0000000000
     57214     19072  TIP3      OH2            17.7898733595        5.7918377139       17.3925403535  W2        19072           0.0000000000
     57215     19072  TIP3      H1             16.8734533595        6.0540077139       17.3049103535  W2        19072           0.0000000000
     57216     19072  TIP3      H2             18.1253733595        5.7887377139       16.4960703535  W2        19072           0.0000000000
     57217     19073  TIP3      OH2            16.3919733595        9.5419377139       11.4882703535  W2        19073           0.0000000000
     57218     19073  TIP3      H1             15.5944133595        9.1269577139       11.1597703535  W2        19073           0.0000000000
     57219     19073  TIP3      H2             16.8370833595        8.8513077139       11.9793203535  W2        19073           0.0000000000
     57220     19074  TIP3      OH2             5.8495533595       15.4699977139        4.0587203535  W2        19074           0.0000000000
     57221     19074  TIP3      H1              6.4417033595       16.1694777139        4.3349603535  W2        19074           0.0000000000
     57222     19074  TIP3      H2              6.3088533595       15.0369477139        3.3391803535  W2        19074           0.0000000000
     57223     19075  TIP3      OH2             4.1654733595        8.1342977139        3.1746603535  W2        19075           0.0000000000
     57224     19075  TIP3      H1              4.1207333595        9.0736077139        3.3533603535  W2        19075           0.0000000000
     57225     19075  TIP3      H2              3.2777933595        7.8987877139        2.9048703535  W2        19075           0.0000000000
     57226     19076  TIP3      OH2            17.4784333595       18.7981877139       13.1106203535  W2        19076           0.0000000000
     57227     19076  TIP3      H1             17.3228633595       19.4766277139       12.4535503535  W2        19076           0.0000000000
     57228     19076  TIP3      H2             18.4110733595       18.8701177139       13.3136803535  W2        19076           0.0000000000
     57229     19077  TIP3      OH2             4.9736733595        2.9159577139       11.8477603535  W2        19077           0.0000000000
     57230     19077  TIP3      H1              4.7446533595        2.9752077139       10.9202603535  W2        19077           0.0000000000
     57231     19077  TIP3      H2              4.5310133595        2.1245077139       12.1541703535  W2        19077           0.0000000000
     57232     19078  TIP3      OH2             3.9040033595       16.8566677139        8.0083403535  W2        19078           0.0000000000
     57233     19078  TIP3      H1              3.0718633595       17.3289377139        8.0354803535  W2        19078           0.0000000000
     57234     19078  TIP3      H2              4.4498333595       17.3664277139        7.4096503535  W2        19078           0.0000000000
     57235     19079  TIP3      OH2             3.1923733595       19.4690377139       19.3381403535  W2        19079           0.0000000000
     57236     19079  TIP3      H1              3.7325933595       19.2524377139       20.0980603535  W2        19079           0.0000000000
     57237     19079  TIP3      H2              2.7111733595       18.6636377139       19.1483903535  W2        19079           0.0000000000
     57238     19080  TIP3      OH2             7.7897133595       18.3884777139       20.9585603535  W2        19080           0.0000000000
     57239     19080  TIP3      H1              8.5574333595       17.9295577139       21.2994803535  W2        19080           0.0000000000
     57240     19080  TIP3      H2              7.7683333595       18.1624577139       20.0286803535  W2        19080           0.0000000000
     57241     19081  TIP3      OH2            11.8816733595       17.8965377139        2.3337403535  W2        19081           0.0000000000
     57242     19081  TIP3      H1             11.2377733595       17.2653977139        2.6551103535  W2        19081           0.0000000000
     57243     19081  TIP3      H2             12.6435033595       17.3653377139        2.1020903535  W2        19081           0.0000000000
     57244     19082  TIP3      OH2            14.3665833595       16.7685877139       19.6877103535  W2        19082           0.0000000000
     57245     19082  TIP3      H1             14.0155333595       15.9118877139       19.9307503535  W2        19082           0.0000000000
     57246     19082  TIP3      H2             15.0929033595       16.9112577139       20.2946103535  W2        19082           0.0000000000
     57247     19083  TIP3      OH2            16.4859633595       17.7135277139        2.5675403535  W2        19083           0.0000000000
     57248     19083  TIP3      H1             16.7690033595       16.9190477139        3.0202303535  W2        19083           0.0000000000
     57249     19083  TIP3      H2             17.2257533595       17.9466277139        2.0066503535  W2        19083           0.0000000000
     57250     19084  TIP3      OH2             3.0993233595       13.2794477139       20.2925703535  W2        19084           0.0000000000
     57251     19084  TIP3      H1              3.2433733595       12.3775177139       20.0062403535  W2        19084           0.0000000000
     57252     19084  TIP3      H2              2.3270633595       13.5656577139       19.8048003535  W2        19084           0.0000000000
     57253     19085  TIP3      OH2             7.4406933595       13.6230177139        2.4250303535  W2        19085           0.0000000000
     57254     19085  TIP3      H1              7.5051033595       12.8289777139        2.9556703535  W2        19085           0.0000000000
     57255     19085  TIP3      H2              8.0936133595       13.5042977139        1.7352303535  W2        19085           0.0000000000
     57256     19086  TIP3      OH2             9.7549333595       13.2492577139       19.7252103535  W2        19086           0.0000000000
     57257     19086  TIP3      H1              9.4263133595       13.5200677139       18.8679503535  W2        19086           0.0000000000
     57258     19086  TIP3      H2              9.9067533595       12.3082377139       19.6377103535  W2        19086           0.0000000000
     57259     19087  TIP3      OH2            12.7930333595       14.6701877139        2.1608303535  W2        19087           0.0000000000
     57260     19087  TIP3      H1             12.5244433595       14.8503977139        3.0617203535  W2        19087           0.0000000000
     57261     19087  TIP3      H2             12.5865933595       13.7448077139        2.0294103535  W2        19087           0.0000000000
     57262     19088  TIP3      OH2            15.4894533595       13.1649877139       17.1084403535  W2        19088           0.0000000000
     57263     19088  TIP3      H1             16.2349333595       13.7533577139       16.9888403535  W2        19088           0.0000000000
     57264     19088  TIP3      H2             14.7321333595       13.7469577139       17.1717503535  W2        19088           0.0000000000
     57265     19089  TIP3      OH2             3.9319733595       10.4797777139       19.7125003535  W2        19089           0.0000000000
     57266     19089  TIP3      H1              4.3400933595        9.6224377139       19.5915603535  W2        19089           0.0000000000
     57267     19089  TIP3      H2              3.6717333595       10.4939077139       20.6335303535  W2        19089           0.0000000000
     57268     19090  TIP3      OH2             8.5900733595       11.5956377139        4.7308303535  W2        19090           0.0000000000
     57269     19090  TIP3      H1              8.1302733595       11.1114677139        5.4166803535  W2        19090           0.0000000000
     57270     19090  TIP3      H2              8.8449433595       10.9271777139        4.0948803535  W2        19090           0.0000000000
     57271     19091  TIP3      OH2             7.8790033595        9.4883477139       17.0867903535  W2        19091           0.0000000000
     57272     19091  TIP3      H1              7.2606133595       10.1630077139       17.3672603535  W2        19091           0.0000000000
     57273     19091  TIP3      H2              8.2231233595        9.8097377139       16.2534103535  W2        19091           0.0000000000
     57274     19092  TIP3      OH2             9.6611133595        9.8388177139        2.9931503535  W2        19092           0.0000000000
     57275     19092  TIP3      H1              9.4806133595        9.6839377139        2.0659803535  W2        19092           0.0000000000
     57276     19092  TIP3      H2             10.6111633595        9.9466877139        3.0379403535  W2        19092           0.0000000000
     57277     19093  TIP3      OH2            12.8988233595       11.9598777139       20.3642703535  W2        19093           0.0000000000
     57278     19093  TIP3      H1             13.8519433595       12.0437877139       20.3368703535  W2        19093           0.0000000000
     57279     19093  TIP3      H2             12.7382833595       11.2480577139       20.9837603535  W2        19093           0.0000000000
     57280     19094  TIP3      OH2            19.0509433595       12.1932377139        2.4389603535  W2        19094           0.0000000000
     57281     19094  TIP3      H1             18.7774233595       11.7687877139        1.6257903535  W2        19094           0.0000000000
     57282     19094  TIP3      H2             19.0903533595       13.1246877139        2.2220003535  W2        19094           0.0000000000
     57283     19095  TIP3      OH2             8.2183733595        6.8434277139       18.1691003535  W2        19095           0.0000000000
     57284     19095  TIP3      H1              8.3684633595        6.1145577139       17.5670703535  W2        19095           0.0000000000
     57285     19095  TIP3      H2              8.2206133595        7.6205977139       17.6103203535  W2        19095           0.0000000000
     57286     19096  TIP3      OH2             8.6309433595        5.2130077139       15.6618403535  W2        19096           0.0000000000
     57287     19096  TIP3      H1              9.1666933595        5.6646777139       15.0097703535  W2        19096           0.0000000000
     57288     19096  TIP3      H2              7.7789033595        5.1049877139       15.2392503535  W2        19096           0.0000000000
     57289     19097  TIP3      OH2            10.2127833595       10.6526277139       15.9013603535  W2        19097           0.0000000000
     57290     19097  TIP3      H1             10.9632633595       10.4963777139       15.3281403535  W2        19097           0.0000000000
     57291     19097  TIP3      H2              9.8736133595       11.5042877139       15.6259103535  W2        19097           0.0000000000
     57292     19098  TIP3      OH2            14.6284033595        8.4678077139       20.9298903535  W2        19098           0.0000000000
     57293     19098  TIP3      H1             14.8205333595        7.5367477139       20.8183403535  W2        19098           0.0000000000
     57294     19098  TIP3      H2             15.4860333595        8.8927577139       20.9194303535  W2        19098           0.0000000000
     57295     19099  TIP3      OH2            15.9451233595       11.2563277139       19.0071603535  W2        19099           0.0000000000
     57296     19099  TIP3      H1             15.6636233595       11.9657877139       18.4295403535  W2        19099           0.0000000000
     57297     19099  TIP3      H2             16.8875533595       11.1836277139       18.8562803535  W2        19099           0.0000000000
     57298     19100  TIP3      OH2             6.6970033595        8.0417777139       20.0806603535  W2        19100           0.0000000000
     57299     19100  TIP3      H1              5.9299033595        7.5092577139       19.8704203535  W2        19100           0.0000000000
     57300     19100  TIP3      H2              7.3759033595        7.7318177139       19.4812903535  W2        19100           0.0000000000
     57301     19101  TIP3      OH2             9.4364933595        2.6695777139       16.0932003535  W2        19101           0.0000000000
     57302     19101  TIP3      H1              9.3384533595        3.6158977139       15.9878203535  W2        19101           0.0000000000
     57303     19101  TIP3      H2              8.6941133595        2.2969577139       15.6175503535  W2        19101           0.0000000000
     57304     19102  TIP3      OH2            10.7005433595        6.9911177139       19.6570403535  W2        19102           0.0000000000
     57305     19102  TIP3      H1             10.4650833595        6.7717877139       20.5585303535  W2        19102           0.0000000000
     57306     19102  TIP3      H2              9.9172333595        6.7842377139       19.1472903535  W2        19102           0.0000000000
     57307     19103  TIP3      OH2            13.4162033595        6.1184677139       18.7323903535  W2        19103           0.0000000000
     57308     19103  TIP3      H1             12.4687433595        6.1504377139       18.8647203535  W2        19103           0.0000000000
     57309     19103  TIP3      H2             13.7288733595        5.4931777139       19.3862103535  W2        19103           0.0000000000
     57310     19104  TIP3      OH2            15.0503533595        4.7525777139       20.7375803535  W2        19104           0.0000000000
     57311     19104  TIP3      H1             14.9535333595        3.8003077139       20.7317703535  W2        19104           0.0000000000
     57312     19104  TIP3      H2             14.7286633595        5.0212577139       21.5981303535  W2        19104           0.0000000000
     57313     19105  TIP3      OH2             4.8772833595        5.9621577139       19.7851303535  W2        19105           0.0000000000
     57314     19105  TIP3      H1              5.0890233595        5.2557677139       19.1748803535  W2        19105           0.0000000000
     57315     19105  TIP3      H2              4.7660333595        5.5247577139       20.6292503535  W2        19105           0.0000000000
     57316     19106  TIP3      OH2             9.6583033595        1.9633177139       18.7644803535  W2        19106           0.0000000000
     57317     19106  TIP3      H1             10.3701433595        1.3235377139       18.7503903535  W2        19106           0.0000000000
     57318     19106  TIP3      H2              9.5573433595        2.2301477139       17.8507903535  W2        19106           0.0000000000
     57319     19107  TIP3      OH2            10.0120533595        3.6461577139       20.8181103535  W2        19107           0.0000000000
     57320     19107  TIP3      H1              9.8802733595        3.1705377139       19.9979603535  W2        19107           0.0000000000
     57321     19107  TIP3      H2              9.4127933595        4.3905177139       20.7628203535  W2        19107           0.0000000000
     57322     19108  TIP3      OH2             9.5582833595       20.5291877139        3.9945103535  W2        19108           0.0000000000
     57323     19108  TIP3      H1             10.4913533595       20.6870577139        4.1383503535  W2        19108           0.0000000000
     57324     19108  TIP3      H2              9.2941633595       21.2044877139        3.3696603535  W2        19108           0.0000000000
     57325     19109  TIP3      OH2             3.1267733595       15.1655677139        3.4773203535  W2        19109           0.0000000000
     57326     19109  TIP3      H1              4.0406933595       15.2444577139        3.7507103535  W2        19109           0.0000000000
     57327     19109  TIP3      H2              3.1340833595       14.4785277139        2.8108803535  W2        19109           0.0000000000
     57328     19110  TIP3      OH2             1.7758333595       20.5584177139        8.5547103535  W2        19110           0.0000000000
     57329     19110  TIP3      H1              1.1285433595       20.0965877139        8.0218303535  W2        19110           0.0000000000
     57330     19110  TIP3      H2              2.1302933595       19.8867477139        9.1373303535  W2        19110           0.0000000000
     57331     19111  TIP3      OH2             2.6457533595       18.6391177139       10.3593303535  W2        19111           0.0000000000
     57332     19111  TIP3      H1              2.3114333595       17.7588477139       10.5313503535  W2        19111           0.0000000000
     57333     19111  TIP3      H2              2.8679933595       18.9846177139       11.2238903535  W2        19111           0.0000000000
     57334     19112  TIP3      OH2            20.1942333595       19.4487577139       13.3398103535  W2        19112           0.0000000000
     57335     19112  TIP3      H1             20.1729033595       19.6335977139       14.2787503535  W2        19112           0.0000000000
     57336     19112  TIP3      H2             20.8848533595       20.0171577139       12.9989503535  W2        19112           0.0000000000
     57337     19113  TIP3      OH2            19.7575233595       19.0158677139       16.2617203535  W2        19113           0.0000000000
     57338     19113  TIP3      H1             19.2703933595       18.2802777139       15.8904603535  W2        19113           0.0000000000
     57339     19113  TIP3      H2             20.3067933595       18.6222577139       16.9396603535  W2        19113           0.0000000000
     57340     19114  TIP3      OH2            18.2082533595       14.8056777139       20.8997503535  W2        19114           0.0000000000
     57341     19114  TIP3      H1             17.3423633595       14.7006477139       21.2939803535  W2        19114           0.0000000000
     57342     19114  TIP3      H2             18.5848433595       15.5640077139       21.3462203535  W2        19114           0.0000000000
     57343     19115  TIP3      OH2            19.5092233595       13.0620477139        6.4140003535  W2        19115           0.0000000000
     57344     19115  TIP3      H1             20.3593633595       13.4831377139        6.5411603535  W2        19115           0.0000000000
     57345     19115  TIP3      H2             19.5147333595       12.3220577139        7.0211403535  W2        19115           0.0000000000
     57346     19116  TIP3      OH2            19.9037833595       11.1157877139        8.2375703535  W2        19116           0.0000000000
     57347     19116  TIP3      H1             19.1772433595       10.6360477139        8.6353303535  W2        19116           0.0000000000
     57348     19116  TIP3      H2             20.4851133595       11.3212577139        8.9697303535  W2        19116           0.0000000000
     57349     19117  TIP3      OH2            19.6629033595       13.9005377139       13.1853303535  W2        19117           0.0000000000
     57350     19117  TIP3      H1             20.4963233595       13.5225377139       12.9046903535  W2        19117           0.0000000000
     57351     19117  TIP3      H2             19.7749333595       14.8436577139       13.0662403535  W2        19117           0.0000000000
     57352     19118  TIP3      OH2            18.1491333595       16.7782877139       15.4921703535  W2        19118           0.0000000000
     57353     19118  TIP3      H1             17.5016633595       17.1034377139       16.1176903535  W2        19118           0.0000000000
     57354     19118  TIP3      H2             17.6315333595       16.3380577139       14.8180003535  W2        19118           0.0000000000
     57355     19119  TIP3      OH2            20.1720933595       11.0166377139        4.6287003535  W2        19119           0.0000000000
     57356     19119  TIP3      H1             19.6502033595       11.3730477139        3.9097903535  W2        19119           0.0000000000
     57357     19119  TIP3      H2             20.1390133595       11.6914177139        5.3067903535  W2        19119           0.0000000000
     57358     19120  TIP3      OH2            18.5209933595        8.2561977139        3.1794103535  W2        19120           0.0000000000
     57359     19120  TIP3      H1             18.6174333595        8.9228977139        2.4993803535  W2        19120           0.0000000000
     57360     19120  TIP3      H2             18.3809533595        7.4408277139        2.6979603535  W2        19120           0.0000000000
     57361     19121  TIP3      OH2            17.6904633595        9.6364377139        8.8004403535  W2        19121           0.0000000000
     57362     19121  TIP3      H1             17.5403433595        8.6912977139        8.7802203535  W2        19121           0.0000000000
     57363     19121  TIP3      H2             17.3369133595        9.9175777139        9.6443503535  W2        19121           0.0000000000
     57364     19122  TIP3      OH2             2.7257033595       11.7146577139       12.8108203535  W2        19122           0.0000000000
     57365     19122  TIP3      H1              2.9099933595       11.6328277139       11.8751103535  W2        19122           0.0000000000
     57366     19122  TIP3      H2              3.5749933595       11.5903577139       13.2344603535  W2        19122           0.0000000000
     57367     19123  TIP3      OH2            18.5467533595       11.6067677139       18.4392703535  W2        19123           0.0000000000
     57368     19123  TIP3      H1             19.1294833595       10.8719977139       18.6309903535  W2        19123           0.0000000000
     57369     19123  TIP3      H2             19.1106833595       12.3787977139       18.4858503535  W2        19123           0.0000000000
     57370     19124  TIP3      OH2            20.0434633595        9.5093477139       19.1238103535  W2        19124           0.0000000000
     57371     19124  TIP3      H1             19.1801333595        9.1305577139       18.9582803535  W2        19124           0.0000000000
     57372     19124  TIP3      H2             20.6478333595        8.7708277139       19.0493903535  W2        19124           0.0000000000
     57373     19125  TIP3      OH2            17.7683733595        5.6641777139        2.2969603535  W2        19125           0.0000000000
     57374     19125  TIP3      H1             18.3789533595        5.2928577139        2.9337803535  W2        19125           0.0000000000
     57375     19125  TIP3      H2             16.9315233595        5.2428677139        2.4929603535  W2        19125           0.0000000000
     57376     19126  TIP3      OH2            17.4009433595        7.2190177139        7.2629503535  W2        19126           0.0000000000
     57377     19126  TIP3      H1             17.6806533595        6.3120577139        7.3871203535  W2        19126           0.0000000000
     57378     19126  TIP3      H2             18.1601133595        7.6531677139        6.8738703535  W2        19126           0.0000000000
     57379     19127  TIP3      OH2            18.0127733595        7.8007577139       12.6988403535  W2        19127           0.0000000000
     57380     19127  TIP3      H1             18.9455733595        8.0127477139       12.6644403535  W2        19127           0.0000000000
     57381     19127  TIP3      H2             17.7775233595        7.9019677139       13.6211403535  W2        19127           0.0000000000
     57382     19128  TIP3      OH2            18.0419633595        8.5372877139       15.4747803535  W2        19128           0.0000000000
     57383     19128  TIP3      H1             17.1990933595        8.8053277139       15.8407603535  W2        19128           0.0000000000
     57384     19128  TIP3      H2             18.4843933595        9.3594777139       15.2638903535  W2        19128           0.0000000000
     57385     19129  TIP3      OH2             2.3231833595        6.9851577139       18.9517003535  W2        19129           0.0000000000
     57386     19129  TIP3      H1              3.2426733595        6.8629877139       19.1880103535  W2        19129           0.0000000000
     57387     19129  TIP3      H2              1.8736333595        6.2351277139       19.3410503535  W2        19129           0.0000000000
     57388     19130  TIP3      OH2            20.3251233595        2.5173077139       20.8282803535  W2        19130           0.0000000000
     57389     19130  TIP3      H1             20.6748233595        1.8636577139       20.2227503535  W2        19130           0.0000000000
     57390     19130  TIP3      H2             20.4720733595        3.3547177139       20.3885403535  W2        19130           0.0000000000
     57391     19131  TIP3      OH2            18.0144233595        4.4819477139        7.3111503535  W2        19131           0.0000000000
     57392     19131  TIP3      H1             18.1969233595        4.0330977139        8.1366503535  W2        19131           0.0000000000
     57393     19131  TIP3      H2             17.4147133595        3.8973877139        6.8476103535  W2        19131           0.0000000000
     57394     19132  TIP3      OH2             3.5444333595        5.2973177139       11.8429903535  W2        19132           0.0000000000
     57395     19132  TIP3      H1              3.9895933595        4.5055677139       12.1449603535  W2        19132           0.0000000000
     57396     19132  TIP3      H2              4.0107333595        6.0138377139       12.2735503535  W2        19132           0.0000000000
     57397     19133  TIP3      OH2             1.8484633595        8.2966177139       12.9120103535  W2        19133           0.0000000000
     57398     19133  TIP3      H1              2.3404433595        8.0756677139       12.1212103535  W2        19133           0.0000000000
     57399     19133  TIP3      H2              2.2105533595        9.1369577139       13.1929603535  W2        19133           0.0000000000
     57400     19134  TIP3      OH2            19.8448433595        4.6267677139       19.1774103535  W2        19134           0.0000000000
     57401     19134  TIP3      H1             18.9274133595        4.8974777139       19.1417603535  W2        19134           0.0000000000
     57402     19134  TIP3      H2             19.9677833595        4.0916077139       18.3933803535  W2        19134           0.0000000000
     57403     19135  TIP3      OH2            19.8810433595        4.5497577139        3.8391803535  W2        19135           0.0000000000
     57404     19135  TIP3      H1             20.2933033595        3.8283277139        3.3639803535  W2        19135           0.0000000000
     57405     19135  TIP3      H2             20.5626933595        5.2192177139        3.8976103535  W2        19135           0.0000000000
     57406     19136  TIP3      OH2             2.1621133595        4.5545277139        6.9662503535  W2        19136           0.0000000000
     57407     19136  TIP3      H1              1.2369533595        4.7631877139        6.8368003535  W2        19136           0.0000000000
     57408     19136  TIP3      H2              2.6161033595        5.0386077139        6.2764803535  W2        19136           0.0000000000
     57409     19137  TIP3      OH2            16.9328333595       19.5386977139        8.9119903535  W2        19137           0.0000000000
     57410     19137  TIP3      H1             17.5851233595       19.1909077139        8.3039003535  W2        19137           0.0000000000
     57411     19137  TIP3      H2             17.4432133595       20.0270177139        9.5579603535  W2        19137           0.0000000000
     57412     19138  TIP3      OH2             2.1256533595        3.2924277139       15.3105003535  W2        19138           0.0000000000
     57413     19138  TIP3      H1              1.4607033595        3.0464577139       15.9535903535  W2        19138           0.0000000000
     57414     19138  TIP3      H2              1.6827833595        3.9144677139       14.7333003535  W2        19138           0.0000000000
     57415     19139  TIP3      OH2             4.3175833595       16.4678377139       19.4550803535  W2        19139           0.0000000000
     57416     19139  TIP3      H1              3.4968333595       16.6424877139       18.9945503535  W2        19139           0.0000000000
     57417     19139  TIP3      H2              4.0653633595       16.3943077139       20.3755203535  W2        19139           0.0000000000
     57418     19140  TIP3      OH2             7.2718733595       17.4419577139       15.7134803535  W2        19140           0.0000000000
     57419     19140  TIP3      H1              6.8469833595       18.2518077139       15.4309403535  W2        19140           0.0000000000
     57420     19140  TIP3      H2              8.1761533595       17.5273677139       15.4114603535  W2        19140           0.0000000000
     57421     19141  TIP3      OH2            11.5830133595       18.8409577139       18.6728503535  W2        19141           0.0000000000
     57422     19141  TIP3      H1             11.7677633595       18.5075677139       19.5508803535  W2        19141           0.0000000000
     57423     19141  TIP3      H2             12.4294633595       19.1508177139       18.3507703535  W2        19141           0.0000000000
     57424     19142  TIP3      OH2            13.9280533595       20.1268477139       17.9169903535  W2        19142           0.0000000000
     57425     19142  TIP3      H1             14.6049433595       19.4940777139       17.6769103535  W2        19142           0.0000000000
     57426     19142  TIP3      H2             14.2499333595       20.5278977139       18.7243203535  W2        19142           0.0000000000
     57427     19143  TIP3      OH2            18.8454333595        2.7163977139       16.9964903535  W2        19143           0.0000000000
     57428     19143  TIP3      H1             18.0327833595        3.0414277139       16.6089603535  W2        19143           0.0000000000
     57429     19143  TIP3      H2             19.0782833595        1.9562477139       16.4634003535  W2        19143           0.0000000000
     57430     19144  TIP3      OH2             4.6735433595       20.6983477139       15.7610103535  W2        19144           0.0000000000
     57431     19144  TIP3      H1              3.9531833595       21.1384477139       15.3097803535  W2        19144           0.0000000000
     57432     19144  TIP3      H2              4.3079433595       20.4478177139       16.6094103535  W2        19144           0.0000000000
     57433     19145  TIP3      OH2             7.1408033595       20.2987377139       14.7907303535  W2        19145           0.0000000000
     57434     19145  TIP3      H1              6.2760233595       20.3705877139       15.1947403535  W2        19145           0.0000000000
     57435     19145  TIP3      H2              7.0857033595       20.8454677139       14.0069803535  W2        19145           0.0000000000
     57436     19146  TIP3      OH2            11.8513633595       20.1866277139       13.9663303535  W2        19146           0.0000000000
     57437     19146  TIP3      H1             11.3947633595       20.7155977139       13.3121703535  W2        19146           0.0000000000
     57438     19146  TIP3      H2             12.0141633595       20.7897677139       14.6915603535  W2        19146           0.0000000000
     57439     19147  TIP3      OH2            14.1789933595       19.0645877139       14.9113603535  W2        19147           0.0000000000
     57440     19147  TIP3      H1             13.2743633595       19.2296077139       14.6455703535  W2        19147           0.0000000000
     57441     19147  TIP3      H2             14.6078533595       19.9178077139       14.8457003535  W2        19147           0.0000000000
     57442     19148  TIP3      OH2            16.7831833595       20.6344977139       15.2061403535  W2        19148           0.0000000000
     57443     19148  TIP3      H1             16.6013833595       21.5503877139       14.9956303535  W2        19148           0.0000000000
     57444     19148  TIP3      H2             16.9599633595       20.2242077139       14.3596003535  W2        19148           0.0000000000
     57445     19149  TIP3      OH2             4.0883533595       19.3215977139       12.6711903535  W2        19149           0.0000000000
     57446     19149  TIP3      H1              4.0699533595       18.8961077139       13.5284203535  W2        19149           0.0000000000
     57447     19149  TIP3      H2              4.8931433595       19.0030977139       12.2624103535  W2        19149           0.0000000000
     57448     19150  TIP3      OH2             6.2296633595       18.0314677139       11.3261803535  W2        19150           0.0000000000
     57449     19150  TIP3      H1              6.0107333595       17.1152077139       11.4957803535  W2        19150           0.0000000000
     57450     19150  TIP3      H2              7.0538833595       18.1715077139       11.7923203535  W2        19150           0.0000000000
     57451     19151  TIP3      OH2             8.7669133595       18.5013977139       12.1749803535  W2        19151           0.0000000000
     57452     19151  TIP3      H1              8.9794833595       17.6132977139       11.8880703535  W2        19151           0.0000000000
     57453     19151  TIP3      H2              8.8314233595       18.4671677139       13.1293803535  W2        19151           0.0000000000
     57454     19152  TIP3      OH2            12.2752833595        4.1654577139       11.3193103535  W2        19152           0.0000000000
     57455     19152  TIP3      H1             11.6009633595        3.5360177139       11.5748903535  W2        19152           0.0000000000
     57456     19152  TIP3      H2             12.8392033595        3.6813477139       10.7161003535  W2        19152           0.0000000000
     57457     19153  TIP3      OH2            17.4180033595        2.2728577139       11.4320203535  W2        19153           0.0000000000
     57458     19153  TIP3      H1             18.0217633595        2.8203977139       10.9301203535  W2        19153           0.0000000000
     57459     19153  TIP3      H2             16.5482033595        2.5918977139       11.1914303535  W2        19153           0.0000000000
     57460     19154  TIP3      OH2            19.1450433595        3.4117277139        9.7651103535  W2        19154           0.0000000000
     57461     19154  TIP3      H1             19.7567933595        2.8972977139        9.2384703535  W2        19154           0.0000000000
     57462     19154  TIP3      H2             19.5273833595        4.2889377139        9.7885503535  W2        19154           0.0000000000
     57463     19155  TIP3      OH2             4.6020333595        2.7994877139        9.1413003535  W2        19155           0.0000000000
     57464     19155  TIP3      H1              3.8250133595        2.5649777139        8.6338903535  W2        19155           0.0000000000
     57465     19155  TIP3      H2              5.1323933595        2.0026977139        9.1501003535  W2        19155           0.0000000000
     57466     19156  TIP3      OH2             3.4383733595        2.5972977139        4.9449103535  W2        19156           0.0000000000
     57467     19156  TIP3      H1              3.8774433595        3.2083477139        4.3532603535  W2        19156           0.0000000000
     57468     19156  TIP3      H2              2.8046133595        3.1357077139        5.4189103535  W2        19156           0.0000000000
     57469     19157  TIP3      OH2             9.1812933595        2.7261977139        8.9546103535  W2        19157           0.0000000000
     57470     19157  TIP3      H1             10.0556333595        3.1146277139        8.9250403535  W2        19157           0.0000000000
     57471     19157  TIP3      H2              9.0453733595        2.5109777139        9.8773303535  W2        19157           0.0000000000
     57472     19158  TIP3      OH2            14.7381333595        2.7561777139       10.6037803535  W2        19158           0.0000000000
     57473     19158  TIP3      H1             14.8142933595        2.8513377139        9.6543803535  W2        19158           0.0000000000
     57474     19158  TIP3      H2             14.4630533595        1.8484677139       10.7326903535  W2        19158           0.0000000000
     57475     19159  TIP3      OH2            16.0913933595        2.7819577139        6.2962803535  W2        19159           0.0000000000
     57476     19159  TIP3      H1             15.3885033595        3.3968777139        6.0864203535  W2        19159           0.0000000000
     57477     19159  TIP3      H2             15.6465333595        1.9446277139        6.4273703535  W2        19159           0.0000000000
     57478     19160  TIP3      OH2             3.3393233595       18.5455177139        5.8424203535  W2        19160           0.0000000000
     57479     19160  TIP3      H1              2.6543133595       18.5074077139        5.1749303535  W2        19160           0.0000000000
     57480     19160  TIP3      H2              3.3430433595       19.4582777139        6.1306303535  W2        19160           0.0000000000
     57481     19161  TIP3      OH2             5.2992833595        4.5134477139        3.3873203535  W2        19161           0.0000000000
     57482     19161  TIP3      H1              5.7906233595        3.8836877139        2.8598703535  W2        19161           0.0000000000
     57483     19161  TIP3      H2              5.9229133595        4.8093877139        4.0504403535  W2        19161           0.0000000000
     57484     19162  TIP3      OH2            10.3252933595        4.8065977139        5.8443703535  W2        19162           0.0000000000
     57485     19162  TIP3      H1             10.5034233595        4.1599177139        6.5272303535  W2        19162           0.0000000000
     57486     19162  TIP3      H2             10.2719133595        5.6403677139        6.3114803535  W2        19162           0.0000000000
     57487     19163  TIP3      OH2            12.2036733595       19.7550077139        4.2400403535  W2        19163           0.0000000000
     57488     19163  TIP3      H1             13.0696933595       20.1217477139        4.0618603535  W2        19163           0.0000000000
     57489     19163  TIP3      H2             11.9569533595       19.3158077139        3.4261203535  W2        19163           0.0000000000
     57490     19164  TIP3      OH2            18.9126333595       19.3180377139        6.9191503535  W2        19164           0.0000000000
     57491     19164  TIP3      H1             18.7183433595       18.5702477139        6.3541103535  W2        19164           0.0000000000
     57492     19164  TIP3      H2             18.8736433595       20.0760477139        6.3359403535  W2        19164           0.0000000000
     57493     19165  TIP3      OH2             4.5598333595        3.3136777139       18.6589203535  W2        19165           0.0000000000
     57494     19165  TIP3      H1              4.1936533595        2.5479377139       19.1013903535  W2        19165           0.0000000000
     57495     19165  TIP3      H2              5.4726833595        3.3426977139       18.9454303535  W2        19165           0.0000000000
     57496     19166  TIP3      OH2             6.5329133595        2.6641177139       20.1946303535  W2        19166           0.0000000000
     57497     19166  TIP3      H1              7.4312733595        2.3901377139       20.0099703535  W2        19166           0.0000000000
     57498     19166  TIP3      H2              6.1462233595        1.9217177139       20.6588903535  W2        19166           0.0000000000
     57499     19167  TIP3      OH2             5.1574433595       19.4655977139        2.8676303535  W2        19167           0.0000000000
     57500     19167  TIP3      H1              4.8899033595       19.7518877139        3.7409403535  W2        19167           0.0000000000
     57501     19167  TIP3      H2              5.9287033595       18.9195177139        3.0198803535  W2        19167           0.0000000000
     57502     19168  TIP3      OH2            14.9541433595        1.9966477139       20.3769103535  W2        19168           0.0000000000
     57503     19168  TIP3      H1             15.0308633595        1.5707177139       21.2306803535  W2        19168           0.0000000000
     57504     19168  TIP3      H2             15.8478033595        2.0101177139       20.0342603535  W2        19168           0.0000000000
     57505     19169  TIP3      OH2            18.1302533595       18.0692777139       19.0693303535  W2        19169           0.0000000000
     57506     19169  TIP3      H1             17.3484433595       17.8830777139       18.5493903535  W2        19169           0.0000000000
     57507     19169  TIP3      H2             18.0582433595       18.9987077139       19.2865803535  W2        19169           0.0000000000
     57508     19170  TIP3      OH2            32.5362933595       11.9557177139        9.1000503535  W2        19170           0.0000000000
     57509     19170  TIP3      H1             32.6254033595       12.8995377139        8.9677603535  W2        19170           0.0000000000
     57510     19170  TIP3      H2             31.8980533595       11.6803577139        8.4419903535  W2        19170           0.0000000000
     57511     19171  TIP3      OH2            31.4694233595       11.2107877139       12.5188703535  W2        19171           0.0000000000
     57512     19171  TIP3      H1             31.4311733595       10.5644177139       13.2238303535  W2        19171           0.0000000000
     57513     19171  TIP3      H2             31.1470733595       10.7442277139       11.7477403535  W2        19171           0.0000000000
     57514     19172  TIP3      OH2            23.8379233595       10.8249977139       14.1118603535  W2        19172           0.0000000000
     57515     19172  TIP3      H1             23.8791333595       10.1993277139       14.8351003535  W2        19172           0.0000000000
     57516     19172  TIP3      H2             24.5406933595       11.4488577139       14.2939003535  W2        19172           0.0000000000
     57517     19173  TIP3      OH2            35.1754433595       14.1498277139       10.8203803535  W2        19173           0.0000000000
     57518     19173  TIP3      H1             34.7347133595       13.4294277139       11.2709403535  W2        19173           0.0000000000
     57519     19173  TIP3      H2             35.1624133595       14.8705477139       11.4501503535  W2        19173           0.0000000000
     57520     19174  TIP3      OH2            24.7612333595       15.2748877139       12.6467703535  W2        19174           0.0000000000
     57521     19174  TIP3      H1             24.3917533595       14.4729377139       12.2772003535  W2        19174           0.0000000000
     57522     19174  TIP3      H2             25.7023433595       15.1063777139       12.6931103535  W2        19174           0.0000000000
     57523     19175  TIP3      OH2            21.3712833595        8.9351477139        8.0396503535  W2        19175           0.0000000000
     57524     19175  TIP3      H1             20.9236233595        9.7810177139        8.0213003535  W2        19175           0.0000000000
     57525     19175  TIP3      H2             20.8104033595        8.3555677139        7.5241603535  W2        19175           0.0000000000
     57526     19176  TIP3      OH2            22.0818933595       11.0971077139       10.1654503535  W2        19176           0.0000000000
     57527     19176  TIP3      H1             22.2952433595       10.3272677139       10.6927503535  W2        19176           0.0000000000
     57528     19176  TIP3      H2             22.8196533595       11.1867777139        9.5622103535  W2        19176           0.0000000000
     57529     19177  TIP3      OH2            32.2869933595       19.2539977139       11.0324203535  W2        19177           0.0000000000
     57530     19177  TIP3      H1             32.9066333595       18.5774677139       10.7593403535  W2        19177           0.0000000000
     57531     19177  TIP3      H2             32.0787333595       19.0360777139       11.9409103535  W2        19177           0.0000000000
     57532     19178  TIP3      OH2            29.8588633595       13.6429277139       12.9249703535  W2        19178           0.0000000000
     57533     19178  TIP3      H1             30.1626533595       12.9570677139       12.3303803535  W2        19178           0.0000000000
     57534     19178  TIP3      H2             30.5802633595       13.7617977139       13.5427703535  W2        19178           0.0000000000
     57535     19179  TIP3      OH2            38.5218433595        5.2444577139       13.7855903535  W2        19179           0.0000000000
     57536     19179  TIP3      H1             38.5710633595        5.8545777139       14.5215003535  W2        19179           0.0000000000
     57537     19179  TIP3      H2             38.9473533595        5.7055477139       13.0627003535  W2        19179           0.0000000000
     57538     19180  TIP3      OH2            32.9995633595        8.0371677139       13.2524503535  W2        19180           0.0000000000
     57539     19180  TIP3      H1             33.1421533595        7.0908677139       13.2726103535  W2        19180           0.0000000000
     57540     19180  TIP3      H2             32.8934633595        8.2441477139       12.3239403535  W2        19180           0.0000000000
     57541     19181  TIP3      OH2            26.1543933595        6.1388077139       10.5249303535  W2        19181           0.0000000000
     57542     19181  TIP3      H1             26.1975033595        6.9986577139       10.1065603535  W2        19181           0.0000000000
     57543     19181  TIP3      H2             25.6968033595        5.5862777139        9.8912503535  W2        19181           0.0000000000
     57544     19182  TIP3      OH2            33.8766633595        6.2693677139        8.9257603535  W2        19182           0.0000000000
     57545     19182  TIP3      H1             34.5230933595        5.9406877139        9.5505203535  W2        19182           0.0000000000
     57546     19182  TIP3      H2             34.3866033595        6.7872677139        8.3029003535  W2        19182           0.0000000000
     57547     19183  TIP3      OH2            22.7745433595        8.5353877139       11.2870703535  W2        19183           0.0000000000
     57548     19183  TIP3      H1             23.4282033595        7.9855577139       11.7190803535  W2        19183           0.0000000000
     57549     19183  TIP3      H2             22.7984733595        8.2612877139       10.3702703535  W2        19183           0.0000000000
     57550     19184  TIP3      OH2            27.9309933595       10.0855177139       10.5022203535  W2        19184           0.0000000000
     57551     19184  TIP3      H1             28.5470933595        9.5590577139       11.0116203535  W2        19184           0.0000000000
     57552     19184  TIP3      H2             27.3448733595        9.4453877139       10.0985803535  W2        19184           0.0000000000
     57553     19185  TIP3      OH2            38.9133033595        6.7223777139       16.0215703535  W2        19185           0.0000000000
     57554     19185  TIP3      H1             38.2247633595        7.3804477139       15.9262303535  W2        19185           0.0000000000
     57555     19185  TIP3      H2             38.9287633595        6.5251677139       16.9581103535  W2        19185           0.0000000000
     57556     19186  TIP3      OH2            24.9645833595        5.0566477139       14.5990103535  W2        19186           0.0000000000
     57557     19186  TIP3      H1             24.7457533595        5.5867077139       13.8326103535  W2        19186           0.0000000000
     57558     19186  TIP3      H2             24.2966733595        5.2831977139       15.2461503535  W2        19186           0.0000000000
     57559     19187  TIP3      OH2            32.3335633595       14.5567577139        8.1429203535  W2        19187           0.0000000000
     57560     19187  TIP3      H1             32.0380733595       14.2339877139        7.2916103535  W2        19187           0.0000000000
     57561     19187  TIP3      H2             32.0093433595       15.4564277139        8.1841803535  W2        19187           0.0000000000
     57562     19188  TIP3      OH2            27.5337233595       12.7322177139       14.8863803535  W2        19188           0.0000000000
     57563     19188  TIP3      H1             26.7936333595       13.3303677139       14.9899003535  W2        19188           0.0000000000
     57564     19188  TIP3      H2             28.2476733595       13.2861777139       14.5707403535  W2        19188           0.0000000000
     57565     19189  TIP3      OH2            35.6405033595        5.5602977139       10.9063503535  W2        19189           0.0000000000
     57566     19189  TIP3      H1             35.4253033595        4.7946377139       11.4389503535  W2        19189           0.0000000000
     57567     19189  TIP3      H2             36.2962433595        6.0327577139       11.4192003535  W2        19189           0.0000000000
     57568     19190  TIP3      OH2            24.5583133595        6.9488277139       12.5512303535  W2        19190           0.0000000000
     57569     19190  TIP3      H1             25.1719433595        7.5815877139       12.9244703535  W2        19190           0.0000000000
     57570     19190  TIP3      H2             25.0703833595        6.4763277139       11.8949203535  W2        19190           0.0000000000
     57571     19191  TIP3      OH2            25.9411533595       14.6965177139       15.6735303535  W2        19191           0.0000000000
     57572     19191  TIP3      H1             25.9359133595       15.5758677139       15.2954603535  W2        19191           0.0000000000
     57573     19191  TIP3      H2             25.0875633595       14.6129277139       16.0985203535  W2        19191           0.0000000000
     57574     19192  TIP3      OH2            22.0622433595       14.3673077139        6.4554603535  W2        19192           0.0000000000
     57575     19192  TIP3      H1             21.7903333595       14.5964077139        5.5667503535  W2        19192           0.0000000000
     57576     19192  TIP3      H2             22.1078133595       15.2051877139        6.9159903535  W2        19192           0.0000000000
     57577     19193  TIP3      OH2            35.6872133595       15.9888977139       13.1683103535  W2        19193           0.0000000000
     57578     19193  TIP3      H1             34.7455833595       16.0472877139       13.3300003535  W2        19193           0.0000000000
     57579     19193  TIP3      H2             35.9638233595       16.8949477139       13.0312803535  W2        19193           0.0000000000
     57580     19194  TIP3      OH2            35.9879133595        4.2754277139       14.5857003535  W2        19194           0.0000000000
     57581     19194  TIP3      H1             35.2518333595        4.8861377139       14.5478303535  W2        19194           0.0000000000
     57582     19194  TIP3      H2             36.6713133595        4.6903277139       14.0593403535  W2        19194           0.0000000000
     57583     19195  TIP3      OH2            28.9910533595        2.3621577139       12.0515003535  W2        19195           0.0000000000
     57584     19195  TIP3      H1             28.8734733595        1.4137577139       11.9973303535  W2        19195           0.0000000000
     57585     19195  TIP3      H2             28.1360633595        2.6947677139       12.3246103535  W2        19195           0.0000000000
     57586     19196  TIP3      OH2            33.9393333595       17.7702477139        9.7934703535  W2        19196           0.0000000000
     57587     19196  TIP3      H1             34.3645633595       17.0630377139        9.3084303535  W2        19196           0.0000000000
     57588     19196  TIP3      H2             34.2563333595       18.5715177139        9.3766903535  W2        19196           0.0000000000
     57589     19197  TIP3      OH2            35.0989833595       15.6710977139        8.3021303535  W2        19197           0.0000000000
     57590     19197  TIP3      H1             34.8414633595       14.9811077139        7.6907203535  W2        19197           0.0000000000
     57591     19197  TIP3      H2             35.1700633595       15.2282177139        9.1477203535  W2        19197           0.0000000000
     57592     19198  TIP3      OH2            36.7850033595       14.2377677139       16.7794803535  W2        19198           0.0000000000
     57593     19198  TIP3      H1             36.9246333595       13.6460177139       16.0401803535  W2        19198           0.0000000000
     57594     19198  TIP3      H2             36.9522833595       15.1103577139       16.4233603535  W2        19198           0.0000000000
     57595     19199  TIP3      OH2            31.2575433595       11.1997177139        6.5520803535  W2        19199           0.0000000000
     57596     19199  TIP3      H1             30.5460933595       11.7346877139        6.2001303535  W2        19199           0.0000000000
     57597     19199  TIP3      H2             31.9485033595       11.2549277139        5.8919703535  W2        19199           0.0000000000
     57598     19200  TIP3      OH2            31.3114633595        9.6571477139        3.5905803535  W2        19200           0.0000000000
     57599     19200  TIP3      H1             32.0124533595        9.6798377139        4.2419803535  W2        19200           0.0000000000
     57600     19200  TIP3      H2             31.6137533595        9.0291177139        2.9345103535  W2        19200           0.0000000000
     57601     19201  TIP3      OH2            38.6269333595       10.5775677139       14.8455203535  W2        19201           0.0000000000
     57602     19201  TIP3      H1             37.9743433595       11.2721277139       14.9346103535  W2        19201           0.0000000000
     57603     19201  TIP3      H2             39.0919633595       10.7876577139       14.0356803535  W2        19201           0.0000000000
     57604     19202  TIP3      OH2            34.6633133595       11.4090477139        7.5036703535  W2        19202           0.0000000000
     57605     19202  TIP3      H1             33.9314133595       11.6374177139        8.0767303535  W2        19202           0.0000000000
     57606     19202  TIP3      H2             35.1105333595       10.6953177139        7.9584203535  W2        19202           0.0000000000
     57607     19203  TIP3      OH2            34.5606633595        9.5833077139       16.5713703535  W2        19203           0.0000000000
     57608     19203  TIP3      H1             34.6405733595       10.3467477139       17.1432203535  W2        19203           0.0000000000
     57609     19203  TIP3      H2             33.9594333595        9.8625477139       15.8808803535  W2        19203           0.0000000000
     57610     19204  TIP3      OH2            26.3086833595       12.0396677139        9.3861703535  W2        19204           0.0000000000
     57611     19204  TIP3      H1             25.9782033595       11.6690077139        8.5678703535  W2        19204           0.0000000000
     57612     19204  TIP3      H2             26.8970933595       11.3690677139        9.7330003535  W2        19204           0.0000000000
     57613     19205  TIP3      OH2            27.6754333595       15.4677277139       12.0673903535  W2        19205           0.0000000000
     57614     19205  TIP3      H1             27.5805633595       14.8890377139       11.3108503535  W2        19205           0.0000000000
     57615     19205  TIP3      H2             28.4047933595       15.0962977139       12.5636703535  W2        19205           0.0000000000
     57616     19206  TIP3      OH2            26.6752333595       10.8082277139       13.0196703535  W2        19206           0.0000000000
     57617     19206  TIP3      H1             27.2404833595       10.9296477139       12.2567903535  W2        19206           0.0000000000
     57618     19206  TIP3      H2             26.9941233595       11.4457277139       13.6585203535  W2        19206           0.0000000000
     57619     19207  TIP3      OH2            32.9844533595       16.3114177139       13.7537203535  W2        19207           0.0000000000
     57620     19207  TIP3      H1             32.7441133595       16.9737277139       14.4016403535  W2        19207           0.0000000000
     57621     19207  TIP3      H2             32.7862733595       15.4769377139       14.1786803535  W2        19207           0.0000000000
     57622     19208  TIP3      OH2            27.5553033595       15.2074977139       17.7368603535  W2        19208           0.0000000000
     57623     19208  TIP3      H1             27.2440533595       15.9898177139       18.1921803535  W2        19208           0.0000000000
     57624     19208  TIP3      H2             26.9053233595       15.0544077139       17.0510603535  W2        19208           0.0000000000
     57625     19209  TIP3      OH2            33.5342633595       10.5713377139        5.1887903535  W2        19209           0.0000000000
     57626     19209  TIP3      H1             34.1138133595       10.7213677139        5.9356803535  W2        19209           0.0000000000
     57627     19209  TIP3      H2             33.9482633595       11.0420777139        4.4654303535  W2        19209           0.0000000000
     57628     19210  TIP3      OH2            24.4752933595       11.4056077139       16.9654303535  W2        19210           0.0000000000
     57629     19210  TIP3      H1             24.5456133595       12.0562877139       17.6639303535  W2        19210           0.0000000000
     57630     19210  TIP3      H2             23.5845133595       11.5083577139       16.6305203535  W2        19210           0.0000000000
     57631     19211  TIP3      OH2            31.2607533595       17.3081877139        8.6241003535  W2        19211           0.0000000000
     57632     19211  TIP3      H1             31.7345133595       17.6038177139        9.4015203535  W2        19211           0.0000000000
     57633     19211  TIP3      H2             30.6976833595       18.0463477139        8.3910603535  W2        19211           0.0000000000
     57634     19212  TIP3      OH2            25.7948933595       17.2789977139       18.5002403535  W2        19212           0.0000000000
     57635     19212  TIP3      H1             25.8024233595       17.1429677139       17.5527903535  W2        19212           0.0000000000
     57636     19212  TIP3      H2             24.8789333595       17.1618077139       18.7522403535  W2        19212           0.0000000000
     57637     19213  TIP3      OH2            37.2331033595        2.3213777139        5.0017603535  W2        19213           0.0000000000
     57638     19213  TIP3      H1             36.3331733595        2.4602777139        5.2968203535  W2        19213           0.0000000000
     57639     19213  TIP3      H2             37.4849433595        3.1528377139        4.5999303535  W2        19213           0.0000000000
     57640     19214  TIP3      OH2            25.2989533595       11.1090977139        6.9754503535  W2        19214           0.0000000000
     57641     19214  TIP3      H1             25.0070833595       11.8772677139        6.4845803535  W2        19214           0.0000000000
     57642     19214  TIP3      H2             24.6244733595       10.4497177139        6.8125903535  W2        19214           0.0000000000
     57643     19215  TIP3      OH2            38.4222433595       16.6876177139        3.3781503535  W2        19215           0.0000000000
     57644     19215  TIP3      H1             38.4955933595       17.6266377139        3.5486803535  W2        19215           0.0000000000
     57645     19215  TIP3      H2             39.3277533595       16.3824777139        3.3218803535  W2        19215           0.0000000000
     57646     19216  TIP3      OH2            21.3919633595       13.4720177139       15.7904303535  W2        19216           0.0000000000
     57647     19216  TIP3      H1             20.8908033595       13.4439577139       14.9754003535  W2        19216           0.0000000000
     57648     19216  TIP3      H2             21.3973333595       12.5663377139       16.1001603535  W2        19216           0.0000000000
     57649     19217  TIP3      OH2            21.1422333595       16.2523977139       12.6744503535  W2        19217           0.0000000000
     57650     19217  TIP3      H1             22.0882933595       16.1080977139       12.6554003535  W2        19217           0.0000000000
     57651     19217  TIP3      H2             21.0298633595       17.0366777139       13.2115703535  W2        19217           0.0000000000
     57652     19218  TIP3      OH2            39.3400833595       16.9183677139       18.3568203535  W2        19218           0.0000000000
     57653     19218  TIP3      H1             39.2907633595       15.9631777139       18.3195803535  W2        19218           0.0000000000
     57654     19218  TIP3      H2             38.5133133595       17.1858977139       18.7582003535  W2        19218           0.0000000000
     57655     19219  TIP3      OH2            30.3184833595       16.4922877139       17.2329603535  W2        19219           0.0000000000
     57656     19219  TIP3      H1             30.4059433595       17.3187477139       17.7078703535  W2        19219           0.0000000000
     57657     19219  TIP3      H2             29.4549933595       16.1626677139       17.4818903535  W2        19219           0.0000000000
     57658     19220  TIP3      OH2            30.7330633595       20.2646577139        7.0390203535  W2        19220           0.0000000000
     57659     19220  TIP3      H1             30.6576633595       20.1433777139        6.0925403535  W2        19220           0.0000000000
     57660     19220  TIP3      H2             30.7659333595       21.2139277139        7.1574803535  W2        19220           0.0000000000
     57661     19221  TIP3      OH2            24.3864433595       19.0533577139        8.8199203535  W2        19221           0.0000000000
     57662     19221  TIP3      H1             24.5384833595       18.7053977139        9.6985703535  W2        19221           0.0000000000
     57663     19221  TIP3      H2             23.5354833595       18.6970877139        8.5646403535  W2        19221           0.0000000000
     57664     19222  TIP3      OH2            33.8346633595       19.4186777139        4.0412603535  W2        19222           0.0000000000
     57665     19222  TIP3      H1             34.2095033595       18.6742877139        3.5705203535  W2        19222           0.0000000000
     57666     19222  TIP3      H2             33.8390333595       19.1487377139        4.9595903535  W2        19222           0.0000000000
     57667     19223  TIP3      OH2            33.5034733595       19.3443877139        6.7904803535  W2        19223           0.0000000000
     57668     19223  TIP3      H1             32.5684533595       19.4445777139        6.9691803535  W2        19223           0.0000000000
     57669     19223  TIP3      H2             33.7836633595       18.6349877139        7.3688003535  W2        19223           0.0000000000
     57670     19224  TIP3      OH2            36.4920633595        8.4116177139       18.8370403535  W2        19224           0.0000000000
     57671     19224  TIP3      H1             36.0847433595        8.8921777139       18.1163703535  W2        19224           0.0000000000
     57672     19224  TIP3      H2             36.5326333595        7.5062177139       18.5291203535  W2        19224           0.0000000000
     57673     19225  TIP3      OH2            23.6410133595       14.7955577139       16.8337103535  W2        19225           0.0000000000
     57674     19225  TIP3      H1             23.8571433595       14.4341177139       17.6932903535  W2        19225           0.0000000000
     57675     19225  TIP3      H2             22.7854833595       14.4209377139       16.6240603535  W2        19225           0.0000000000
     57676     19226  TIP3      OH2            26.2598133595        3.2656077139       12.8291303535  W2        19226           0.0000000000
     57677     19226  TIP3      H1             25.3981833595        3.1784277139       12.4214203535  W2        19226           0.0000000000
     57678     19226  TIP3      H2             26.2373833595        4.1216177139       13.2568903535  W2        19226           0.0000000000
     57679     19227  TIP3      OH2            30.9225933595        2.9876477139       16.2038303535  W2        19227           0.0000000000
     57680     19227  TIP3      H1             31.3429033595        2.5723577139       16.9568903535  W2        19227           0.0000000000
     57681     19227  TIP3      H2             29.9895533595        2.8089777139       16.3210303535  W2        19227           0.0000000000
     57682     19228  TIP3      OH2            34.2490833595        6.7431677139       17.0572803535  W2        19228           0.0000000000
     57683     19228  TIP3      H1             33.7350333595        6.6173877139       17.8548803535  W2        19228           0.0000000000
     57684     19228  TIP3      H2             34.0935533595        7.6554777139       16.8129003535  W2        19228           0.0000000000
     57685     19229  TIP3      OH2            35.0115733595       11.6041677139        2.8185803535  W2        19229           0.0000000000
     57686     19229  TIP3      H1             35.0536533595       11.3815577139        1.8885803535  W2        19229           0.0000000000
     57687     19229  TIP3      H2             35.8607833595       12.0028777139        3.0085703535  W2        19229           0.0000000000
     57688     19230  TIP3      OH2            30.5843233595        5.4799877139        3.4889103535  W2        19230           0.0000000000
     57689     19230  TIP3      H1             30.3308033595        5.4991477139        4.4117203535  W2        19230           0.0000000000
     57690     19230  TIP3      H2             30.3275333595        4.6085277139        3.1875303535  W2        19230           0.0000000000
     57691     19231  TIP3      OH2            26.3508233595        8.2310577139       13.9241503535  W2        19231           0.0000000000
     57692     19231  TIP3      H1             25.7090333595        8.1907877139       14.6331603535  W2        19231           0.0000000000
     57693     19231  TIP3      H2             26.3880233595        9.1575277139       13.6864503535  W2        19231           0.0000000000
     57694     19232  TIP3      OH2            26.3477333595        8.4520677139        8.8361503535  W2        19232           0.0000000000
     57695     19232  TIP3      H1             25.4550233595        8.1116777139        8.7775303535  W2        19232           0.0000000000
     57696     19232  TIP3      H2             26.7983933595        8.0751577139        8.0804703535  W2        19232           0.0000000000
     57697     19233  TIP3      OH2            31.8832833595        8.8680977139        7.6532303535  W2        19233           0.0000000000
     57698     19233  TIP3      H1             31.4743133595        9.6829577139        7.3617103535  W2        19233           0.0000000000
     57699     19233  TIP3      H2             32.6039033595        8.7281077139        7.0389403535  W2        19233           0.0000000000
     57700     19234  TIP3      OH2            30.9854433595        9.0437377139       19.1413003535  W2        19234           0.0000000000
     57701     19234  TIP3      H1             30.4228233595        8.3388977139       19.4620803535  W2        19234           0.0000000000
     57702     19234  TIP3      H2             31.8117833595        8.9229277139       19.6090603535  W2        19234           0.0000000000
     57703     19235  TIP3      OH2            32.8880533595        8.3141377139       10.4672003535  W2        19235           0.0000000000
     57704     19235  TIP3      H1             32.6925033595        8.9198177139        9.7522603535  W2        19235           0.0000000000
     57705     19235  TIP3      H2             33.0693133595        7.4806577139       10.0328303535  W2        19235           0.0000000000
     57706     19236  TIP3      OH2            24.1008733595        8.5514077139       15.7913503535  W2        19236           0.0000000000
     57707     19236  TIP3      H1             24.0628133595        8.9515677139       16.6600603535  W2        19236           0.0000000000
     57708     19236  TIP3      H2             23.6099833595        7.7346477139       15.8816403535  W2        19236           0.0000000000
     57709     19237  TIP3      OH2            27.4666133595        5.9256377139        2.5899503535  W2        19237           0.0000000000
     57710     19237  TIP3      H1             27.0356833595        5.4806477139        3.3196903535  W2        19237           0.0000000000
     57711     19237  TIP3      H2             26.7484833595        6.2972677139        2.0777003535  W2        19237           0.0000000000
     57712     19238  TIP3      OH2            20.7089533595        5.6675877139        9.6418203535  W2        19238           0.0000000000
     57713     19238  TIP3      H1             21.3397233595        5.6387977139       10.3612103535  W2        19238           0.0000000000
     57714     19238  TIP3      H2             21.1583833595        5.2424577139        8.9114103535  W2        19238           0.0000000000
     57715     19239  TIP3      OH2            21.9831633595        6.4137877139        5.0658603535  W2        19239           0.0000000000
     57716     19239  TIP3      H1             22.4573333595        7.0047777139        4.4809503535  W2        19239           0.0000000000
     57717     19239  TIP3      H2             21.2658033595        6.9440777139        5.4128703535  W2        19239           0.0000000000
     57718     19240  TIP3      OH2            32.1519733595        9.9522677139       15.1384403535  W2        19240           0.0000000000
     57719     19240  TIP3      H1             32.4754533595        9.3212377139       14.4954903535  W2        19240           0.0000000000
     57720     19240  TIP3      H2             31.7119033595        9.4174877139       15.7991803535  W2        19240           0.0000000000
     57721     19241  TIP3      OH2            28.9292633595        5.8798177139        9.9225603535  W2        19241           0.0000000000
     57722     19241  TIP3      H1             28.0183733595        5.9364977139       10.2111603535  W2        19241           0.0000000000
     57723     19241  TIP3      H2             29.4345533595        5.8193677139       10.7332803535  W2        19241           0.0000000000
     57724     19242  TIP3      OH2            23.7576033595        7.5084477139        8.7493203535  W2        19242           0.0000000000
     57725     19242  TIP3      H1             22.8684033595        7.6079977139        8.4092803535  W2        19242           0.0000000000
     57726     19242  TIP3      H2             24.0540933595        6.6667477139        8.4031103535  W2        19242           0.0000000000
     57727     19243  TIP3      OH2            27.4107833595        7.5087077139        6.4057803535  W2        19243           0.0000000000
     57728     19243  TIP3      H1             28.3423333595        7.6377077139        6.5840903535  W2        19243           0.0000000000
     57729     19243  TIP3      H2             27.1958133595        8.1781377139        5.7562503535  W2        19243           0.0000000000
     57730     19244  TIP3      OH2            33.3344533595        5.1144477139       13.1867403535  W2        19244           0.0000000000
     57731     19244  TIP3      H1             32.6576133595        5.2457577139       13.8507103535  W2        19244           0.0000000000
     57732     19244  TIP3      H2             32.8489433595        4.9593977139       12.3765103535  W2        19244           0.0000000000
     57733     19245  TIP3      OH2            26.0848033595        8.7029277139        3.9723903535  W2        19245           0.0000000000
     57734     19245  TIP3      H1             25.5423133595        8.3233077139        3.2811503535  W2        19245           0.0000000000
     57735     19245  TIP3      H2             26.9182933595        8.8973977139        3.5438003535  W2        19245           0.0000000000
     57736     19246  TIP3      OH2            36.6219633595       20.7859877139       19.4635003535  W2        19246           0.0000000000
     57737     19246  TIP3      H1             36.8218333595       21.2101777139       18.6290303535  W2        19246           0.0000000000
     57738     19246  TIP3      H2             37.2773333595       21.1298077139       20.0705403535  W2        19246           0.0000000000
     57739     19247  TIP3      OH2            24.2199433595       13.2601177139       19.0715503535  W2        19247           0.0000000000
     57740     19247  TIP3      H1             24.9521833595       13.5147077139       19.6330003535  W2        19247           0.0000000000
     57741     19247  TIP3      H2             23.4398133595       13.4646577139       19.5870903535  W2        19247           0.0000000000
     57742     19248  TIP3      OH2            30.2492333595        8.6671177139       11.8095203535  W2        19248           0.0000000000
     57743     19248  TIP3      H1             30.8135733595        8.1207777139       11.2624803535  W2        19248           0.0000000000
     57744     19248  TIP3      H2             30.1015733595        8.1453077139       12.5982803535  W2        19248           0.0000000000
     57745     19249  TIP3      OH2            25.2512033595        4.8037277139        8.2280003535  W2        19249           0.0000000000
     57746     19249  TIP3      H1             24.9341533595        3.9012577139        8.1925403535  W2        19249           0.0000000000
     57747     19249  TIP3      H2             26.0326133595        4.8054677139        7.6751603535  W2        19249           0.0000000000
     57748     19250  TIP3      OH2            28.8758233595        7.0557277139       14.2235603535  W2        19250           0.0000000000
     57749     19250  TIP3      H1             28.0403533595        7.5096777139       14.3338003535  W2        19250           0.0000000000
     57750     19250  TIP3      H2             29.3998833595        7.3315777139       14.9755503535  W2        19250           0.0000000000
     57751     19251  TIP3      OH2            29.4200833595       13.2684977139        5.9082003535  W2        19251           0.0000000000
     57752     19251  TIP3      H1             28.6751833595       12.7610277139        5.5859903535  W2        19251           0.0000000000
     57753     19251  TIP3      H2             29.2858033595       13.3172977139        6.8546803535  W2        19251           0.0000000000
     57754     19252  TIP3      OH2            36.5699733595       12.4013177139       14.6949603535  W2        19252           0.0000000000
     57755     19252  TIP3      H1             37.2118533595       12.8579477139       14.1511803535  W2        19252           0.0000000000
     57756     19252  TIP3      H2             35.7396633595       12.5145577139       14.2323703535  W2        19252           0.0000000000
     57757     19253  TIP3      OH2            33.3177633595        6.0824877139        4.1074603535  W2        19253           0.0000000000
     57758     19253  TIP3      H1             32.3791833595        6.1940477139        3.9563403535  W2        19253           0.0000000000
     57759     19253  TIP3      H2             33.6149733595        6.9391777139        4.4140303535  W2        19253           0.0000000000
     57760     19254  TIP3      OH2            30.9392933595       13.4528277139       17.1451103535  W2        19254           0.0000000000
     57761     19254  TIP3      H1             30.5939033595       13.0710677139       17.9520703535  W2        19254           0.0000000000
     57762     19254  TIP3      H2             30.7393033595       14.3861877139       17.2164003535  W2        19254           0.0000000000
     57763     19255  TIP3      OH2            34.0361133595        7.9497577139        5.7682003535  W2        19255           0.0000000000
     57764     19255  TIP3      H1             34.9280133595        7.8122577139        6.0873203535  W2        19255           0.0000000000
     57765     19255  TIP3      H2             34.0924733595        8.7403677139        5.2315503535  W2        19255           0.0000000000
     57766     19256  TIP3      OH2            24.5449133595       12.5634977139       11.6779903535  W2        19256           0.0000000000
     57767     19256  TIP3      H1             25.2896333595       12.5610677139       11.0766403535  W2        19256           0.0000000000
     57768     19256  TIP3      H2             24.6225733595       11.7398777139       12.1595003535  W2        19256           0.0000000000
     57769     19257  TIP3      OH2            31.5454933595       14.7269277139        4.9336603535  W2        19257           0.0000000000
     57770     19257  TIP3      H1             31.2503333595       15.5537177139        5.3151403535  W2        19257           0.0000000000
     57771     19257  TIP3      H2             30.8424933595       14.1076177139        5.1298003535  W2        19257           0.0000000000
     57772     19258  TIP3      OH2            21.5528833595       11.0241877139       16.9928403535  W2        19258           0.0000000000
     57773     19258  TIP3      H1             21.7757433595       10.6061477139       17.8245903535  W2        19258           0.0000000000
     57774     19258  TIP3      H2             20.9508933595       10.4116877139       16.5701203535  W2        19258           0.0000000000
     57775     19259  TIP3      OH2            28.5693733595       10.5411777139       19.2058103535  W2        19259           0.0000000000
     57776     19259  TIP3      H1             28.2734533595       10.3754777139       18.3107203535  W2        19259           0.0000000000
     57777     19259  TIP3      H2             29.5008933595       10.3212077139       19.1952003535  W2        19259           0.0000000000
     57778     19260  TIP3      OH2            33.1896533595       15.9143777139       17.0956103535  W2        19260           0.0000000000
     57779     19260  TIP3      H1             32.2890833595       16.0976377139       16.8280003535  W2        19260           0.0000000000
     57780     19260  TIP3      H2             33.2237633595       16.1733077139       18.0164903535  W2        19260           0.0000000000
     57781     19261  TIP3      OH2            38.9209833595        8.1591677139        5.4628703535  W2        19261           0.0000000000
     57782     19261  TIP3      H1             38.3666133595        7.7629677139        4.7906203535  W2        19261           0.0000000000
     57783     19261  TIP3      H2             39.0213433595        9.0696877139        5.1852003535  W2        19261           0.0000000000
     57784     19262  TIP3      OH2            38.8841833595       13.9593377139       18.3000203535  W2        19262           0.0000000000
     57785     19262  TIP3      H1             38.0330333595       14.1977177139       17.9326603535  W2        19262           0.0000000000
     57786     19262  TIP3      H2             39.4745233595       13.9426577139       17.5467303535  W2        19262           0.0000000000
     57787     19263  TIP3      OH2            37.2161533595       16.9452077139        5.9280803535  W2        19263           0.0000000000
     57788     19263  TIP3      H1             36.8432633595       16.1195877139        6.2371403535  W2        19263           0.0000000000
     57789     19263  TIP3      H2             37.4935033595       16.7621477139        5.0304203535  W2        19263           0.0000000000
     57790     19264  TIP3      OH2            34.3765433595       11.7531577139       12.9492703535  W2        19264           0.0000000000
     57791     19264  TIP3      H1             33.4482333595       11.5213477139       12.9222003535  W2        19264           0.0000000000
     57792     19264  TIP3      H2             34.8276533595       10.9761377139       12.6191503535  W2        19264           0.0000000000
     57793     19265  TIP3      OH2            26.9198533595       16.0813177139        9.0821403535  W2        19265           0.0000000000
     57794     19265  TIP3      H1             27.4470733595       16.8547577139        8.8820203535  W2        19265           0.0000000000
     57795     19265  TIP3      H2             26.0397033595       16.3062377139        8.7805403535  W2        19265           0.0000000000
     57796     19266  TIP3      OH2            22.6746233595       10.9437277139        3.6693803535  W2        19266           0.0000000000
     57797     19266  TIP3      H1             23.2906133595       11.5704477139        4.0488603535  W2        19266           0.0000000000
     57798     19266  TIP3      H2             21.8128833595       11.2597077139        3.9410303535  W2        19266           0.0000000000
     57799     19267  TIP3      OH2            28.3470833595       13.7443077139        8.6585703535  W2        19267           0.0000000000
     57800     19267  TIP3      H1             28.1060833595       14.6697477139        8.7001003535  W2        19267           0.0000000000
     57801     19267  TIP3      H2             27.6064433595       13.2854377139        9.0549603535  W2        19267           0.0000000000
     57802     19268  TIP3      OH2            28.8617433595       17.8936677139       14.9736803535  W2        19268           0.0000000000
     57803     19268  TIP3      H1             29.2242133595       18.7482277139       14.7401203535  W2        19268           0.0000000000
     57804     19268  TIP3      H2             29.3932633595       17.6018277139       15.7143103535  W2        19268           0.0000000000
     57805     19269  TIP3      OH2            27.0301633595       18.7660677139        8.2037903535  W2        19269           0.0000000000
     57806     19269  TIP3      H1             26.0802133595       18.8718077139        8.2551203535  W2        19269           0.0000000000
     57807     19269  TIP3      H2             27.3819733595       19.5868077139        8.5485403535  W2        19269           0.0000000000
     57808     19270  TIP3      OH2            32.4058233595       13.9927377139       14.6742403535  W2        19270           0.0000000000
     57809     19270  TIP3      H1             31.9799533595       13.7649077139       15.5006403535  W2        19270           0.0000000000
     57810     19270  TIP3      H2             32.9864033595       13.2539177139       14.4917703535  W2        19270           0.0000000000
     57811     19271  TIP3      OH2            34.6087133595       14.9217877139        3.7481403535  W2        19271           0.0000000000
     57812     19271  TIP3      H1             34.9620233595       14.5417677139        4.5524903535  W2        19271           0.0000000000
     57813     19271  TIP3      H2             33.6600633595       14.8282677139        3.8350703535  W2        19271           0.0000000000
     57814     19272  TIP3      OH2            35.0642433595       18.5446877139       17.1437203535  W2        19272           0.0000000000
     57815     19272  TIP3      H1             34.4625633595       17.9889777139       16.6483503535  W2        19272           0.0000000000
     57816     19272  TIP3      H2             35.3456133595       19.2116677139       16.5174603535  W2        19272           0.0000000000
     57817     19273  TIP3      OH2            39.1121533595       19.4010377139        3.9491603535  W2        19273           0.0000000000
     57818     19273  TIP3      H1             39.8559433595       19.9870877139        3.8093203535  W2        19273           0.0000000000
     57819     19273  TIP3      H2             38.4179633595       19.9696177139        4.2824003535  W2        19273           0.0000000000
     57820     19274  TIP3      OH2            23.1868333595        5.7774577139       16.5509803535  W2        19274           0.0000000000
     57821     19274  TIP3      H1             22.2940633595        6.1159977139       16.4833803535  W2        19274           0.0000000000
     57822     19274  TIP3      H2             23.0881133595        4.9220677139       16.9690603535  W2        19274           0.0000000000
     57823     19275  TIP3      OH2            35.4746433595       13.5939877139        5.9749303535  W2        19275           0.0000000000
     57824     19275  TIP3      H1             35.1974033595       12.8659177139        6.5310403535  W2        19275           0.0000000000
     57825     19275  TIP3      H2             36.4019433595       13.7131877139        6.1801903535  W2        19275           0.0000000000
     57826     19276  TIP3      OH2            22.8380333595       17.5818977139       14.9859203535  W2        19276           0.0000000000
     57827     19276  TIP3      H1             23.0550633595       16.6501377139       14.9548903535  W2        19276           0.0000000000
     57828     19276  TIP3      H2             23.0843833595       17.8563977139       15.8692003535  W2        19276           0.0000000000
     57829     19277  TIP3      OH2            28.6994933595       16.0333977139        2.1951403535  W2        19277           0.0000000000
     57830     19277  TIP3      H1             28.9384733595       15.2852077139        1.6480303535  W2        19277           0.0000000000
     57831     19277  TIP3      H2             28.4306233595       15.6455677139        3.0279203535  W2        19277           0.0000000000
     57832     19278  TIP3      OH2            27.6365533595       15.6037777139        4.6514003535  W2        19278           0.0000000000
     57833     19278  TIP3      H1             27.7833533595       15.0837577139        5.4414903535  W2        19278           0.0000000000
     57834     19278  TIP3      H2             27.6337233595       16.5105377139        4.9579903535  W2        19278           0.0000000000
     57835     19279  TIP3      OH2            24.0896633595       12.8561077139        5.1619403535  W2        19279           0.0000000000
     57836     19279  TIP3      H1             23.4035933595       13.2083577139        5.7289103535  W2        19279           0.0000000000
     57837     19279  TIP3      H2             24.6124533595       13.6190677139        4.9153703535  W2        19279           0.0000000000
     57838     19280  TIP3      OH2            31.9211733595        5.5184877139       15.4408403535  W2        19280           0.0000000000
     57839     19280  TIP3      H1             32.6199633595        5.5923577139       16.0908103535  W2        19280           0.0000000000
     57840     19280  TIP3      H2             31.5403133595        4.6539877139       15.5951303535  W2        19280           0.0000000000
     57841     19281  TIP3      OH2            32.7056633595        5.1706577139        6.5380703535  W2        19281           0.0000000000
     57842     19281  TIP3      H1             32.9254933595        5.6421977139        5.7346103535  W2        19281           0.0000000000
     57843     19281  TIP3      H2             33.2640633595        5.5649177139        7.2081303535  W2        19281           0.0000000000
     57844     19282  TIP3      OH2            30.3742733595       17.3011377139        5.4008203535  W2        19282           0.0000000000
     57845     19282  TIP3      H1             29.5578833595       17.7981077139        5.4532503535  W2        19282           0.0000000000
     57846     19282  TIP3      H2             30.9039033595       17.7764877139        4.7607003535  W2        19282           0.0000000000
     57847     19283  TIP3      OH2            29.9056533595        6.8985377139        7.3729103535  W2        19283           0.0000000000
     57848     19283  TIP3      H1             30.7179133595        7.4028577139        7.4190803535  W2        19283           0.0000000000
     57849     19283  TIP3      H2             29.6609533595        6.7535077139        8.2868703535  W2        19283           0.0000000000
     57850     19284  TIP3      OH2            30.4412933595        7.8848077139       16.5575703535  W2        19284           0.0000000000
     57851     19284  TIP3      H1             30.5603233595        8.4583477139       17.3146103535  W2        19284           0.0000000000
     57852     19284  TIP3      H2             31.0967533595        7.1967477139       16.6723503535  W2        19284           0.0000000000
     57853     19285  TIP3      OH2            30.7893233595        3.9798377139        8.3110203535  W2        19285           0.0000000000
     57854     19285  TIP3      H1             30.4426733595        4.5968977139        8.9554503535  W2        19285           0.0000000000
     57855     19285  TIP3      H2             31.4480133595        4.4804077139        7.8295703535  W2        19285           0.0000000000
     57856     19286  TIP3      OH2            27.7125833595       18.3448577139        5.3825103535  W2        19286           0.0000000000
     57857     19286  TIP3      H1             27.8734533595       19.1446077139        4.8817703535  W2        19286           0.0000000000
     57858     19286  TIP3      H2             27.5153633595       18.6514577139        6.2675703535  W2        19286           0.0000000000
     57859     19287  TIP3      OH2            26.4470233595        5.0427777139        4.9982703535  W2        19287           0.0000000000
     57860     19287  TIP3      H1             26.3635033595        5.9310877139        5.3449103535  W2        19287           0.0000000000
     57861     19287  TIP3      H2             27.3370533595        4.7774477139        5.2299503535  W2        19287           0.0000000000
     57862     19288  TIP3      OH2            36.6458733595        5.7918377139       17.3925403535  W2        19288           0.0000000000
     57863     19288  TIP3      H1             35.7294533595        6.0540077139       17.3049103535  W2        19288           0.0000000000
     57864     19288  TIP3      H2             36.9813733595        5.7887377139       16.4960703535  W2        19288           0.0000000000
     57865     19289  TIP3      OH2            35.2479733595        9.5419377139       11.4882703535  W2        19289           0.0000000000
     57866     19289  TIP3      H1             34.4504133595        9.1269577139       11.1597703535  W2        19289           0.0000000000
     57867     19289  TIP3      H2             35.6930833595        8.8513077139       11.9793203535  W2        19289           0.0000000000
     57868     19290  TIP3      OH2            24.7055533595       15.4699977139        4.0587203535  W2        19290           0.0000000000
     57869     19290  TIP3      H1             25.2977033595       16.1694777139        4.3349603535  W2        19290           0.0000000000
     57870     19290  TIP3      H2             25.1648533595       15.0369477139        3.3391803535  W2        19290           0.0000000000
     57871     19291  TIP3      OH2            23.0214733595        8.1342977139        3.1746603535  W2        19291           0.0000000000
     57872     19291  TIP3      H1             22.9767333595        9.0736077139        3.3533603535  W2        19291           0.0000000000
     57873     19291  TIP3      H2             22.1337933595        7.8987877139        2.9048703535  W2        19291           0.0000000000
     57874     19292  TIP3      OH2            36.3344333595       18.7981877139       13.1106203535  W2        19292           0.0000000000
     57875     19292  TIP3      H1             36.1788633595       19.4766277139       12.4535503535  W2        19292           0.0000000000
     57876     19292  TIP3      H2             37.2670733595       18.8701177139       13.3136803535  W2        19292           0.0000000000
     57877     19293  TIP3      OH2            23.8296733595        2.9159577139       11.8477603535  W2        19293           0.0000000000
     57878     19293  TIP3      H1             23.6006533595        2.9752077139       10.9202603535  W2        19293           0.0000000000
     57879     19293  TIP3      H2             23.3870133595        2.1245077139       12.1541703535  W2        19293           0.0000000000
     57880     19294  TIP3      OH2            22.7600033595       16.8566677139        8.0083403535  W2        19294           0.0000000000
     57881     19294  TIP3      H1             21.9278633595       17.3289377139        8.0354803535  W2        19294           0.0000000000
     57882     19294  TIP3      H2             23.3058333595       17.3664277139        7.4096503535  W2        19294           0.0000000000
     57883     19295  TIP3      OH2            22.0483733595       19.4690377139       19.3381403535  W2        19295           0.0000000000
     57884     19295  TIP3      H1             22.5885933595       19.2524377139       20.0980603535  W2        19295           0.0000000000
     57885     19295  TIP3      H2             21.5671733595       18.6636377139       19.1483903535  W2        19295           0.0000000000
     57886     19296  TIP3      OH2            26.6457133595       18.3884777139       20.9585603535  W2        19296           0.0000000000
     57887     19296  TIP3      H1             27.4134333595       17.9295577139       21.2994803535  W2        19296           0.0000000000
     57888     19296  TIP3      H2             26.6243333595       18.1624577139       20.0286803535  W2        19296           0.0000000000
     57889     19297  TIP3      OH2            30.7376733595       17.8965377139        2.3337403535  W2        19297           0.0000000000
     57890     19297  TIP3      H1             30.0937733595       17.2653977139        2.6551103535  W2        19297           0.0000000000
     57891     19297  TIP3      H2             31.4995033595       17.3653377139        2.1020903535  W2        19297           0.0000000000
     57892     19298  TIP3      OH2            33.2225833595       16.7685877139       19.6877103535  W2        19298           0.0000000000
     57893     19298  TIP3      H1             32.8715333595       15.9118877139       19.9307503535  W2        19298           0.0000000000
     57894     19298  TIP3      H2             33.9489033595       16.9112577139       20.2946103535  W2        19298           0.0000000000
     57895     19299  TIP3      OH2            35.3419633595       17.7135277139        2.5675403535  W2        19299           0.0000000000
     57896     19299  TIP3      H1             35.6250033595       16.9190477139        3.0202303535  W2        19299           0.0000000000
     57897     19299  TIP3      H2             36.0817533595       17.9466277139        2.0066503535  W2        19299           0.0000000000
     57898     19300  TIP3      OH2            21.9553233595       13.2794477139       20.2925703535  W2        19300           0.0000000000
     57899     19300  TIP3      H1             22.0993733595       12.3775177139       20.0062403535  W2        19300           0.0000000000
     57900     19300  TIP3      H2             21.1830633595       13.5656577139       19.8048003535  W2        19300           0.0000000000
     57901     19301  TIP3      OH2            26.2966933595       13.6230177139        2.4250303535  W2        19301           0.0000000000
     57902     19301  TIP3      H1             26.3611033595       12.8289777139        2.9556703535  W2        19301           0.0000000000
     57903     19301  TIP3      H2             26.9496133595       13.5042977139        1.7352303535  W2        19301           0.0000000000
     57904     19302  TIP3      OH2            28.6109333595       13.2492577139       19.7252103535  W2        19302           0.0000000000
     57905     19302  TIP3      H1             28.2823133595       13.5200677139       18.8679503535  W2        19302           0.0000000000
     57906     19302  TIP3      H2             28.7627533595       12.3082377139       19.6377103535  W2        19302           0.0000000000
     57907     19303  TIP3      OH2            31.6490333595       14.6701877139        2.1608303535  W2        19303           0.0000000000
     57908     19303  TIP3      H1             31.3804433595       14.8503977139        3.0617203535  W2        19303           0.0000000000
     57909     19303  TIP3      H2             31.4425933595       13.7448077139        2.0294103535  W2        19303           0.0000000000
     57910     19304  TIP3      OH2            34.3454533595       13.1649877139       17.1084403535  W2        19304           0.0000000000
     57911     19304  TIP3      H1             35.0909333595       13.7533577139       16.9888403535  W2        19304           0.0000000000
     57912     19304  TIP3      H2             33.5881333595       13.7469577139       17.1717503535  W2        19304           0.0000000000
     57913     19305  TIP3      OH2            22.7879733595       10.4797777139       19.7125003535  W2        19305           0.0000000000
     57914     19305  TIP3      H1             23.1960933595        9.6224377139       19.5915603535  W2        19305           0.0000000000
     57915     19305  TIP3      H2             22.5277333595       10.4939077139       20.6335303535  W2        19305           0.0000000000
     57916     19306  TIP3      OH2            27.4460733595       11.5956377139        4.7308303535  W2        19306           0.0000000000
     57917     19306  TIP3      H1             26.9862733595       11.1114677139        5.4166803535  W2        19306           0.0000000000
     57918     19306  TIP3      H2             27.7009433595       10.9271777139        4.0948803535  W2        19306           0.0000000000
     57919     19307  TIP3      OH2            26.7350033595        9.4883477139       17.0867903535  W2        19307           0.0000000000
     57920     19307  TIP3      H1             26.1166133595       10.1630077139       17.3672603535  W2        19307           0.0000000000
     57921     19307  TIP3      H2             27.0791233595        9.8097377139       16.2534103535  W2        19307           0.0000000000
     57922     19308  TIP3      OH2            28.5171133595        9.8388177139        2.9931503535  W2        19308           0.0000000000
     57923     19308  TIP3      H1             28.3366133595        9.6839377139        2.0659803535  W2        19308           0.0000000000
     57924     19308  TIP3      H2             29.4671633595        9.9466877139        3.0379403535  W2        19308           0.0000000000
     57925     19309  TIP3      OH2            31.7548233595       11.9598777139       20.3642703535  W2        19309           0.0000000000
     57926     19309  TIP3      H1             32.7079433595       12.0437877139       20.3368703535  W2        19309           0.0000000000
     57927     19309  TIP3      H2             31.5942833595       11.2480577139       20.9837603535  W2        19309           0.0000000000
     57928     19310  TIP3      OH2            37.9069433595       12.1932377139        2.4389603535  W2        19310           0.0000000000
     57929     19310  TIP3      H1             37.6334233595       11.7687877139        1.6257903535  W2        19310           0.0000000000
     57930     19310  TIP3      H2             37.9463533595       13.1246877139        2.2220003535  W2        19310           0.0000000000
     57931     19311  TIP3      OH2            27.0743733595        6.8434277139       18.1691003535  W2        19311           0.0000000000
     57932     19311  TIP3      H1             27.2244633595        6.1145577139       17.5670703535  W2        19311           0.0000000000
     57933     19311  TIP3      H2             27.0766133595        7.6205977139       17.6103203535  W2        19311           0.0000000000
     57934     19312  TIP3      OH2            27.4869433595        5.2130077139       15.6618403535  W2        19312           0.0000000000
     57935     19312  TIP3      H1             28.0226933595        5.6646777139       15.0097703535  W2        19312           0.0000000000
     57936     19312  TIP3      H2             26.6349033595        5.1049877139       15.2392503535  W2        19312           0.0000000000
     57937     19313  TIP3      OH2            29.0687833595       10.6526277139       15.9013603535  W2        19313           0.0000000000
     57938     19313  TIP3      H1             29.8192633595       10.4963777139       15.3281403535  W2        19313           0.0000000000
     57939     19313  TIP3      H2             28.7296133595       11.5042877139       15.6259103535  W2        19313           0.0000000000
     57940     19314  TIP3      OH2            33.4844033595        8.4678077139       20.9298903535  W2        19314           0.0000000000
     57941     19314  TIP3      H1             33.6765333595        7.5367477139       20.8183403535  W2        19314           0.0000000000
     57942     19314  TIP3      H2             34.3420333595        8.8927577139       20.9194303535  W2        19314           0.0000000000
     57943     19315  TIP3      OH2            34.8011233595       11.2563277139       19.0071603535  W2        19315           0.0000000000
     57944     19315  TIP3      H1             34.5196233595       11.9657877139       18.4295403535  W2        19315           0.0000000000
     57945     19315  TIP3      H2             35.7435533595       11.1836277139       18.8562803535  W2        19315           0.0000000000
     57946     19316  TIP3      OH2            25.5530033595        8.0417777139       20.0806603535  W2        19316           0.0000000000
     57947     19316  TIP3      H1             24.7859033595        7.5092577139       19.8704203535  W2        19316           0.0000000000
     57948     19316  TIP3      H2             26.2319033595        7.7318177139       19.4812903535  W2        19316           0.0000000000
     57949     19317  TIP3      OH2            28.2924933595        2.6695777139       16.0932003535  W2        19317           0.0000000000
     57950     19317  TIP3      H1             28.1944533595        3.6158977139       15.9878203535  W2        19317           0.0000000000
     57951     19317  TIP3      H2             27.5501133595        2.2969577139       15.6175503535  W2        19317           0.0000000000
     57952     19318  TIP3      OH2            29.5565433595        6.9911177139       19.6570403535  W2        19318           0.0000000000
     57953     19318  TIP3      H1             29.3210833595        6.7717877139       20.5585303535  W2        19318           0.0000000000
     57954     19318  TIP3      H2             28.7732333595        6.7842377139       19.1472903535  W2        19318           0.0000000000
     57955     19319  TIP3      OH2            32.2722033595        6.1184677139       18.7323903535  W2        19319           0.0000000000
     57956     19319  TIP3      H1             31.3247433595        6.1504377139       18.8647203535  W2        19319           0.0000000000
     57957     19319  TIP3      H2             32.5848733595        5.4931777139       19.3862103535  W2        19319           0.0000000000
     57958     19320  TIP3      OH2            33.9063533595        4.7525777139       20.7375803535  W2        19320           0.0000000000
     57959     19320  TIP3      H1             33.8095333595        3.8003077139       20.7317703535  W2        19320           0.0000000000
     57960     19320  TIP3      H2             33.5846633595        5.0212577139       21.5981303535  W2        19320           0.0000000000
     57961     19321  TIP3      OH2            23.7332833595        5.9621577139       19.7851303535  W2        19321           0.0000000000
     57962     19321  TIP3      H1             23.9450233595        5.2557677139       19.1748803535  W2        19321           0.0000000000
     57963     19321  TIP3      H2             23.6220333595        5.5247577139       20.6292503535  W2        19321           0.0000000000
     57964     19322  TIP3      OH2            28.5143033595        1.9633177139       18.7644803535  W2        19322           0.0000000000
     57965     19322  TIP3      H1             29.2261433595        1.3235377139       18.7503903535  W2        19322           0.0000000000
     57966     19322  TIP3      H2             28.4133433595        2.2301477139       17.8507903535  W2        19322           0.0000000000
     57967     19323  TIP3      OH2            28.8680533595        3.6461577139       20.8181103535  W2        19323           0.0000000000
     57968     19323  TIP3      H1             28.7362733595        3.1705377139       19.9979603535  W2        19323           0.0000000000
     57969     19323  TIP3      H2             28.2687933595        4.3905177139       20.7628203535  W2        19323           0.0000000000
     57970     19324  TIP3      OH2            28.4142833595       20.5291877139        3.9945103535  W2        19324           0.0000000000
     57971     19324  TIP3      H1             29.3473533595       20.6870577139        4.1383503535  W2        19324           0.0000000000
     57972     19324  TIP3      H2             28.1501633595       21.2044877139        3.3696603535  W2        19324           0.0000000000
     57973     19325  TIP3      OH2            21.9827733595       15.1655677139        3.4773203535  W2        19325           0.0000000000
     57974     19325  TIP3      H1             22.8966933595       15.2444577139        3.7507103535  W2        19325           0.0000000000
     57975     19325  TIP3      H2             21.9900833595       14.4785277139        2.8108803535  W2        19325           0.0000000000
     57976     19326  TIP3      OH2            20.6318333595       20.5584177139        8.5547103535  W2        19326           0.0000000000
     57977     19326  TIP3      H1             19.9845433595       20.0965877139        8.0218303535  W2        19326           0.0000000000
     57978     19326  TIP3      H2             20.9862933595       19.8867477139        9.1373303535  W2        19326           0.0000000000
     57979     19327  TIP3      OH2            21.5017533595       18.6391177139       10.3593303535  W2        19327           0.0000000000
     57980     19327  TIP3      H1             21.1674333595       17.7588477139       10.5313503535  W2        19327           0.0000000000
     57981     19327  TIP3      H2             21.7239933595       18.9846177139       11.2238903535  W2        19327           0.0000000000
     57982     19328  TIP3      OH2            39.0502333595       19.4487577139       13.3398103535  W2        19328           0.0000000000
     57983     19328  TIP3      H1             39.0289033595       19.6335977139       14.2787503535  W2        19328           0.0000000000
     57984     19328  TIP3      H2             39.7408533595       20.0171577139       12.9989503535  W2        19328           0.0000000000
     57985     19329  TIP3      OH2            38.6135233595       19.0158677139       16.2617203535  W2        19329           0.0000000000
     57986     19329  TIP3      H1             38.1263933595       18.2802777139       15.8904603535  W2        19329           0.0000000000
     57987     19329  TIP3      H2             39.1627933595       18.6222577139       16.9396603535  W2        19329           0.0000000000
     57988     19330  TIP3      OH2            37.0642533595       14.8056777139       20.8997503535  W2        19330           0.0000000000
     57989     19330  TIP3      H1             36.1983633595       14.7006477139       21.2939803535  W2        19330           0.0000000000
     57990     19330  TIP3      H2             37.4408433595       15.5640077139       21.3462203535  W2        19330           0.0000000000
     57991     19331  TIP3      OH2            38.3652233595       13.0620477139        6.4140003535  W2        19331           0.0000000000
     57992     19331  TIP3      H1             39.2153633595       13.4831377139        6.5411603535  W2        19331           0.0000000000
     57993     19331  TIP3      H2             38.3707333595       12.3220577139        7.0211403535  W2        19331           0.0000000000
     57994     19332  TIP3      OH2            38.7597833595       11.1157877139        8.2375703535  W2        19332           0.0000000000
     57995     19332  TIP3      H1             38.0332433595       10.6360477139        8.6353303535  W2        19332           0.0000000000
     57996     19332  TIP3      H2             39.3411133595       11.3212577139        8.9697303535  W2        19332           0.0000000000
     57997     19333  TIP3      OH2            38.5189033595       13.9005377139       13.1853303535  W2        19333           0.0000000000
     57998     19333  TIP3      H1             39.3523233595       13.5225377139       12.9046903535  W2        19333           0.0000000000
     57999     19333  TIP3      H2             38.6309333595       14.8436577139       13.0662403535  W2        19333           0.0000000000
     58000     19334  TIP3      OH2            37.0051333595       16.7782877139       15.4921703535  W2        19334           0.0000000000
     58001     19334  TIP3      H1             36.3576633595       17.1034377139       16.1176903535  W2        19334           0.0000000000
     58002     19334  TIP3      H2             36.4875333595       16.3380577139       14.8180003535  W2        19334           0.0000000000
     58003     19335  TIP3      OH2            39.0280933595       11.0166377139        4.6287003535  W2        19335           0.0000000000
     58004     19335  TIP3      H1             38.5062033595       11.3730477139        3.9097903535  W2        19335           0.0000000000
     58005     19335  TIP3      H2             38.9950133595       11.6914177139        5.3067903535  W2        19335           0.0000000000
     58006     19336  TIP3      OH2            37.3769933595        8.2561977139        3.1794103535  W2        19336           0.0000000000
     58007     19336  TIP3      H1             37.4734333595        8.9228977139        2.4993803535  W2        19336           0.0000000000
     58008     19336  TIP3      H2             37.2369533595        7.4408277139        2.6979603535  W2        19336           0.0000000000
     58009     19337  TIP3      OH2            36.5464633595        9.6364377139        8.8004403535  W2        19337           0.0000000000
     58010     19337  TIP3      H1             36.3963433595        8.6912977139        8.7802203535  W2        19337           0.0000000000
     58011     19337  TIP3      H2             36.1929133595        9.9175777139        9.6443503535  W2        19337           0.0000000000
     58012     19338  TIP3      OH2            21.5817033595       11.7146577139       12.8108203535  W2        19338           0.0000000000
     58013     19338  TIP3      H1             21.7659933595       11.6328277139       11.8751103535  W2        19338           0.0000000000
     58014     19338  TIP3      H2             22.4309933595       11.5903577139       13.2344603535  W2        19338           0.0000000000
     58015     19339  TIP3      OH2            37.4027533595       11.6067677139       18.4392703535  W2        19339           0.0000000000
     58016     19339  TIP3      H1             37.9854833595       10.8719977139       18.6309903535  W2        19339           0.0000000000
     58017     19339  TIP3      H2             37.9666833595       12.3787977139       18.4858503535  W2        19339           0.0000000000
     58018     19340  TIP3      OH2            38.8994633595        9.5093477139       19.1238103535  W2        19340           0.0000000000
     58019     19340  TIP3      H1             38.0361333595        9.1305577139       18.9582803535  W2        19340           0.0000000000
     58020     19340  TIP3      H2             39.5038333595        8.7708277139       19.0493903535  W2        19340           0.0000000000
     58021     19341  TIP3      OH2            36.6243733595        5.6641777139        2.2969603535  W2        19341           0.0000000000
     58022     19341  TIP3      H1             37.2349533595        5.2928577139        2.9337803535  W2        19341           0.0000000000
     58023     19341  TIP3      H2             35.7875233595        5.2428677139        2.4929603535  W2        19341           0.0000000000
     58024     19342  TIP3      OH2            36.2569433595        7.2190177139        7.2629503535  W2        19342           0.0000000000
     58025     19342  TIP3      H1             36.5366533595        6.3120577139        7.3871203535  W2        19342           0.0000000000
     58026     19342  TIP3      H2             37.0161133595        7.6531677139        6.8738703535  W2        19342           0.0000000000
     58027     19343  TIP3      OH2            36.8687733595        7.8007577139       12.6988403535  W2        19343           0.0000000000
     58028     19343  TIP3      H1             37.8015733595        8.0127477139       12.6644403535  W2        19343           0.0000000000
     58029     19343  TIP3      H2             36.6335233595        7.9019677139       13.6211403535  W2        19343           0.0000000000
     58030     19344  TIP3      OH2            36.8979633595        8.5372877139       15.4747803535  W2        19344           0.0000000000
     58031     19344  TIP3      H1             36.0550933595        8.8053277139       15.8407603535  W2        19344           0.0000000000
     58032     19344  TIP3      H2             37.3403933595        9.3594777139       15.2638903535  W2        19344           0.0000000000
     58033     19345  TIP3      OH2            21.1791833595        6.9851577139       18.9517003535  W2        19345           0.0000000000
     58034     19345  TIP3      H1             22.0986733595        6.8629877139       19.1880103535  W2        19345           0.0000000000
     58035     19345  TIP3      H2             20.7296333595        6.2351277139       19.3410503535  W2        19345           0.0000000000
     58036     19346  TIP3      OH2            39.1811233595        2.5173077139       20.8282803535  W2        19346           0.0000000000
     58037     19346  TIP3      H1             39.5308233595        1.8636577139       20.2227503535  W2        19346           0.0000000000
     58038     19346  TIP3      H2             39.3280733595        3.3547177139       20.3885403535  W2        19346           0.0000000000
     58039     19347  TIP3      OH2            36.8704233595        4.4819477139        7.3111503535  W2        19347           0.0000000000
     58040     19347  TIP3      H1             37.0529233595        4.0330977139        8.1366503535  W2        19347           0.0000000000
     58041     19347  TIP3      H2             36.2707133595        3.8973877139        6.8476103535  W2        19347           0.0000000000
     58042     19348  TIP3      OH2            22.4004333595        5.2973177139       11.8429903535  W2        19348           0.0000000000
     58043     19348  TIP3      H1             22.8455933595        4.5055677139       12.1449603535  W2        19348           0.0000000000
     58044     19348  TIP3      H2             22.8667333595        6.0138377139       12.2735503535  W2        19348           0.0000000000
     58045     19349  TIP3      OH2            20.7044633595        8.2966177139       12.9120103535  W2        19349           0.0000000000
     58046     19349  TIP3      H1             21.1964433595        8.0756677139       12.1212103535  W2        19349           0.0000000000
     58047     19349  TIP3      H2             21.0665533595        9.1369577139       13.1929603535  W2        19349           0.0000000000
     58048     19350  TIP3      OH2            38.7008433595        4.6267677139       19.1774103535  W2        19350           0.0000000000
     58049     19350  TIP3      H1             37.7834133595        4.8974777139       19.1417603535  W2        19350           0.0000000000
     58050     19350  TIP3      H2             38.8237833595        4.0916077139       18.3933803535  W2        19350           0.0000000000
     58051     19351  TIP3      OH2            38.7370433595        4.5497577139        3.8391803535  W2        19351           0.0000000000
     58052     19351  TIP3      H1             39.1493033595        3.8283277139        3.3639803535  W2        19351           0.0000000000
     58053     19351  TIP3      H2             39.4186933595        5.2192177139        3.8976103535  W2        19351           0.0000000000
     58054     19352  TIP3      OH2            21.0181133595        4.5545277139        6.9662503535  W2        19352           0.0000000000
     58055     19352  TIP3      H1             20.0929533595        4.7631877139        6.8368003535  W2        19352           0.0000000000
     58056     19352  TIP3      H2             21.4721033595        5.0386077139        6.2764803535  W2        19352           0.0000000000
     58057     19353  TIP3      OH2            35.7888333595       19.5386977139        8.9119903535  W2        19353           0.0000000000
     58058     19353  TIP3      H1             36.4411233595       19.1909077139        8.3039003535  W2        19353           0.0000000000
     58059     19353  TIP3      H2             36.2992133595       20.0270177139        9.5579603535  W2        19353           0.0000000000
     58060     19354  TIP3      OH2            20.9816533595        3.2924277139       15.3105003535  W2        19354           0.0000000000
     58061     19354  TIP3      H1             20.3167033595        3.0464577139       15.9535903535  W2        19354           0.0000000000
     58062     19354  TIP3      H2             20.5387833595        3.9144677139       14.7333003535  W2        19354           0.0000000000
     58063     19355  TIP3      OH2            23.1735833595       16.4678377139       19.4550803535  W2        19355           0.0000000000
     58064     19355  TIP3      H1             22.3528333595       16.6424877139       18.9945503535  W2        19355           0.0000000000
     58065     19355  TIP3      H2             22.9213633595       16.3943077139       20.3755203535  W2        19355           0.0000000000
     58066     19356  TIP3      OH2            26.1278733595       17.4419577139       15.7134803535  W2        19356           0.0000000000
     58067     19356  TIP3      H1             25.7029833595       18.2518077139       15.4309403535  W2        19356           0.0000000000
     58068     19356  TIP3      H2             27.0321533595       17.5273677139       15.4114603535  W2        19356           0.0000000000
     58069     19357  TIP3      OH2            30.4390133595       18.8409577139       18.6728503535  W2        19357           0.0000000000
     58070     19357  TIP3      H1             30.6237633595       18.5075677139       19.5508803535  W2        19357           0.0000000000
     58071     19357  TIP3      H2             31.2854633595       19.1508177139       18.3507703535  W2        19357           0.0000000000
     58072     19358  TIP3      OH2            32.7840533595       20.1268477139       17.9169903535  W2        19358           0.0000000000
     58073     19358  TIP3      H1             33.4609433595       19.4940777139       17.6769103535  W2        19358           0.0000000000
     58074     19358  TIP3      H2             33.1059333595       20.5278977139       18.7243203535  W2        19358           0.0000000000
     58075     19359  TIP3      OH2            37.7014333595        2.7163977139       16.9964903535  W2        19359           0.0000000000
     58076     19359  TIP3      H1             36.8887833595        3.0414277139       16.6089603535  W2        19359           0.0000000000
     58077     19359  TIP3      H2             37.9342833595        1.9562477139       16.4634003535  W2        19359           0.0000000000
     58078     19360  TIP3      OH2            23.5295433595       20.6983477139       15.7610103535  W2        19360           0.0000000000
     58079     19360  TIP3      H1             22.8091833595       21.1384477139       15.3097803535  W2        19360           0.0000000000
     58080     19360  TIP3      H2             23.1639433595       20.4478177139       16.6094103535  W2        19360           0.0000000000
     58081     19361  TIP3      OH2            25.9968033595       20.2987377139       14.7907303535  W2        19361           0.0000000000
     58082     19361  TIP3      H1             25.1320233595       20.3705877139       15.1947403535  W2        19361           0.0000000000
     58083     19361  TIP3      H2             25.9417033595       20.8454677139       14.0069803535  W2        19361           0.0000000000
     58084     19362  TIP3      OH2            30.7073633595       20.1866277139       13.9663303535  W2        19362           0.0000000000
     58085     19362  TIP3      H1             30.2507633595       20.7155977139       13.3121703535  W2        19362           0.0000000000
     58086     19362  TIP3      H2             30.8701633595       20.7897677139       14.6915603535  W2        19362           0.0000000000
     58087     19363  TIP3      OH2            33.0349933595       19.0645877139       14.9113603535  W2        19363           0.0000000000
     58088     19363  TIP3      H1             32.1303633595       19.2296077139       14.6455703535  W2        19363           0.0000000000
     58089     19363  TIP3      H2             33.4638533595       19.9178077139       14.8457003535  W2        19363           0.0000000000
     58090     19364  TIP3      OH2            35.6391833595       20.6344977139       15.2061403535  W2        19364           0.0000000000
     58091     19364  TIP3      H1             35.4573833595       21.5503877139       14.9956303535  W2        19364           0.0000000000
     58092     19364  TIP3      H2             35.8159633595       20.2242077139       14.3596003535  W2        19364           0.0000000000
     58093     19365  TIP3      OH2            22.9443533595       19.3215977139       12.6711903535  W2        19365           0.0000000000
     58094     19365  TIP3      H1             22.9259533595       18.8961077139       13.5284203535  W2        19365           0.0000000000
     58095     19365  TIP3      H2             23.7491433595       19.0030977139       12.2624103535  W2        19365           0.0000000000
     58096     19366  TIP3      OH2            25.0856633595       18.0314677139       11.3261803535  W2        19366           0.0000000000
     58097     19366  TIP3      H1             24.8667333595       17.1152077139       11.4957803535  W2        19366           0.0000000000
     58098     19366  TIP3      H2             25.9098833595       18.1715077139       11.7923203535  W2        19366           0.0000000000
     58099     19367  TIP3      OH2            27.6229133595       18.5013977139       12.1749803535  W2        19367           0.0000000000
     58100     19367  TIP3      H1             27.8354833595       17.6132977139       11.8880703535  W2        19367           0.0000000000
     58101     19367  TIP3      H2             27.6874233595       18.4671677139       13.1293803535  W2        19367           0.0000000000
     58102     19368  TIP3      OH2            31.1312833595        4.1654577139       11.3193103535  W2        19368           0.0000000000
     58103     19368  TIP3      H1             30.4569633595        3.5360177139       11.5748903535  W2        19368           0.0000000000
     58104     19368  TIP3      H2             31.6952033595        3.6813477139       10.7161003535  W2        19368           0.0000000000
     58105     19369  TIP3      OH2            36.2740033595        2.2728577139       11.4320203535  W2        19369           0.0000000000
     58106     19369  TIP3      H1             36.8777633595        2.8203977139       10.9301203535  W2        19369           0.0000000000
     58107     19369  TIP3      H2             35.4042033595        2.5918977139       11.1914303535  W2        19369           0.0000000000
     58108     19370  TIP3      OH2            38.0010433595        3.4117277139        9.7651103535  W2        19370           0.0000000000
     58109     19370  TIP3      H1             38.6127933595        2.8972977139        9.2384703535  W2        19370           0.0000000000
     58110     19370  TIP3      H2             38.3833833595        4.2889377139        9.7885503535  W2        19370           0.0000000000
     58111     19371  TIP3      OH2            23.4580333595        2.7994877139        9.1413003535  W2        19371           0.0000000000
     58112     19371  TIP3      H1             22.6810133595        2.5649777139        8.6338903535  W2        19371           0.0000000000
     58113     19371  TIP3      H2             23.9883933595        2.0026977139        9.1501003535  W2        19371           0.0000000000
     58114     19372  TIP3      OH2            22.2943733595        2.5972977139        4.9449103535  W2        19372           0.0000000000
     58115     19372  TIP3      H1             22.7334433595        3.2083477139        4.3532603535  W2        19372           0.0000000000
     58116     19372  TIP3      H2             21.6606133595        3.1357077139        5.4189103535  W2        19372           0.0000000000
     58117     19373  TIP3      OH2            28.0372933595        2.7261977139        8.9546103535  W2        19373           0.0000000000
     58118     19373  TIP3      H1             28.9116333595        3.1146277139        8.9250403535  W2        19373           0.0000000000
     58119     19373  TIP3      H2             27.9013733595        2.5109777139        9.8773303535  W2        19373           0.0000000000
     58120     19374  TIP3      OH2            33.5941333595        2.7561777139       10.6037803535  W2        19374           0.0000000000
     58121     19374  TIP3      H1             33.6702933595        2.8513377139        9.6543803535  W2        19374           0.0000000000
     58122     19374  TIP3      H2             33.3190533595        1.8484677139       10.7326903535  W2        19374           0.0000000000
     58123     19375  TIP3      OH2            34.9473933595        2.7819577139        6.2962803535  W2        19375           0.0000000000
     58124     19375  TIP3      H1             34.2445033595        3.3968777139        6.0864203535  W2        19375           0.0000000000
     58125     19375  TIP3      H2             34.5025333595        1.9446277139        6.4273703535  W2        19375           0.0000000000
     58126     19376  TIP3      OH2            22.1953233595       18.5455177139        5.8424203535  W2        19376           0.0000000000
     58127     19376  TIP3      H1             21.5103133595       18.5074077139        5.1749303535  W2        19376           0.0000000000
     58128     19376  TIP3      H2             22.1990433595       19.4582777139        6.1306303535  W2        19376           0.0000000000
     58129     19377  TIP3      OH2            24.1552833595        4.5134477139        3.3873203535  W2        19377           0.0000000000
     58130     19377  TIP3      H1             24.6466233595        3.8836877139        2.8598703535  W2        19377           0.0000000000
     58131     19377  TIP3      H2             24.7789133595        4.8093877139        4.0504403535  W2        19377           0.0000000000
     58132     19378  TIP3      OH2            29.1812933595        4.8065977139        5.8443703535  W2        19378           0.0000000000
     58133     19378  TIP3      H1             29.3594233595        4.1599177139        6.5272303535  W2        19378           0.0000000000
     58134     19378  TIP3      H2             29.1279133595        5.6403677139        6.3114803535  W2        19378           0.0000000000
     58135     19379  TIP3      OH2            31.0596733595       19.7550077139        4.2400403535  W2        19379           0.0000000000
     58136     19379  TIP3      H1             31.9256933595       20.1217477139        4.0618603535  W2        19379           0.0000000000
     58137     19379  TIP3      H2             30.8129533595       19.3158077139        3.4261203535  W2        19379           0.0000000000
     58138     19380  TIP3      OH2            37.7686333595       19.3180377139        6.9191503535  W2        19380           0.0000000000
     58139     19380  TIP3      H1             37.5743433595       18.5702477139        6.3541103535  W2        19380           0.0000000000
     58140     19380  TIP3      H2             37.7296433595       20.0760477139        6.3359403535  W2        19380           0.0000000000
     58141     19381  TIP3      OH2            23.4158333595        3.3136777139       18.6589203535  W2        19381           0.0000000000
     58142     19381  TIP3      H1             23.0496533595        2.5479377139       19.1013903535  W2        19381           0.0000000000
     58143     19381  TIP3      H2             24.3286833595        3.3426977139       18.9454303535  W2        19381           0.0000000000
     58144     19382  TIP3      OH2            25.3889133595        2.6641177139       20.1946303535  W2        19382           0.0000000000
     58145     19382  TIP3      H1             26.2872733595        2.3901377139       20.0099703535  W2        19382           0.0000000000
     58146     19382  TIP3      H2             25.0022233595        1.9217177139       20.6588903535  W2        19382           0.0000000000
     58147     19383  TIP3      OH2            24.0134433595       19.4655977139        2.8676303535  W2        19383           0.0000000000
     58148     19383  TIP3      H1             23.7459033595       19.7518877139        3.7409403535  W2        19383           0.0000000000
     58149     19383  TIP3      H2             24.7847033595       18.9195177139        3.0198803535  W2        19383           0.0000000000
     58150     19384  TIP3      OH2            33.8101433595        1.9966477139       20.3769103535  W2        19384           0.0000000000
     58151     19384  TIP3      H1             33.8868633595        1.5707177139       21.2306803535  W2        19384           0.0000000000
     58152     19384  TIP3      H2             34.7038033595        2.0101177139       20.0342603535  W2        19384           0.0000000000
     58153     19385  TIP3      OH2            36.9862533595       18.0692777139       19.0693303535  W2        19385           0.0000000000
     58154     19385  TIP3      H1             36.2044433595       17.8830777139       18.5493903535  W2        19385           0.0000000000
     58155     19385  TIP3      H2             36.9142433595       18.9987077139       19.2865803535  W2        19385           0.0000000000
     58156     19386  TIP3      OH2            51.3922933595       11.9557177139        9.1000503535  W2        19386           0.0000000000
     58157     19386  TIP3      H1             51.4814033595       12.8995377139        8.9677603535  W2        19386           0.0000000000
     58158     19386  TIP3      H2             50.7540533595       11.6803577139        8.4419903535  W2        19386           0.0000000000
     58159     19387  TIP3      OH2            50.3254233595       11.2107877139       12.5188703535  W2        19387           0.0000000000
     58160     19387  TIP3      H1             50.2871733595       10.5644177139       13.2238303535  W2        19387           0.0000000000
     58161     19387  TIP3      H2             50.0030733595       10.7442277139       11.7477403535  W2        19387           0.0000000000
     58162     19388  TIP3      OH2            42.6939233595       10.8249977139       14.1118603535  W2        19388           0.0000000000
     58163     19388  TIP3      H1             42.7351333595       10.1993277139       14.8351003535  W2        19388           0.0000000000
     58164     19388  TIP3      H2             43.3966933595       11.4488577139       14.2939003535  W2        19388           0.0000000000
     58165     19389  TIP3      OH2            54.0314433595       14.1498277139       10.8203803535  W2        19389           0.0000000000
     58166     19389  TIP3      H1             53.5907133595       13.4294277139       11.2709403535  W2        19389           0.0000000000
     58167     19389  TIP3      H2             54.0184133595       14.8705477139       11.4501503535  W2        19389           0.0000000000
     58168     19390  TIP3      OH2            43.6172333595       15.2748877139       12.6467703535  W2        19390           0.0000000000
     58169     19390  TIP3      H1             43.2477533595       14.4729377139       12.2772003535  W2        19390           0.0000000000
     58170     19390  TIP3      H2             44.5583433595       15.1063777139       12.6931103535  W2        19390           0.0000000000
     58171     19391  TIP3      OH2            40.2272833595        8.9351477139        8.0396503535  W2        19391           0.0000000000
     58172     19391  TIP3      H1             39.7796233595        9.7810177139        8.0213003535  W2        19391           0.0000000000
     58173     19391  TIP3      H2             39.6664033595        8.3555677139        7.5241603535  W2        19391           0.0000000000
     58174     19392  TIP3      OH2            40.9378933595       11.0971077139       10.1654503535  W2        19392           0.0000000000
     58175     19392  TIP3      H1             41.1512433595       10.3272677139       10.6927503535  W2        19392           0.0000000000
     58176     19392  TIP3      H2             41.6756533595       11.1867777139        9.5622103535  W2        19392           0.0000000000
     58177     19393  TIP3      OH2            51.1429933595       19.2539977139       11.0324203535  W2        19393           0.0000000000
     58178     19393  TIP3      H1             51.7626333595       18.5774677139       10.7593403535  W2        19393           0.0000000000
     58179     19393  TIP3      H2             50.9347333595       19.0360777139       11.9409103535  W2        19393           0.0000000000
     58180     19394  TIP3      OH2            48.7148633595       13.6429277139       12.9249703535  W2        19394           0.0000000000
     58181     19394  TIP3      H1             49.0186533595       12.9570677139       12.3303803535  W2        19394           0.0000000000
     58182     19394  TIP3      H2             49.4362633595       13.7617977139       13.5427703535  W2        19394           0.0000000000
     58183     19395  TIP3      OH2            51.8555633595        8.0371677139       13.2524503535  W2        19395           0.0000000000
     58184     19395  TIP3      H1             51.9981533595        7.0908677139       13.2726103535  W2        19395           0.0000000000
     58185     19395  TIP3      H2             51.7494633595        8.2441477139       12.3239403535  W2        19395           0.0000000000
     58186     19396  TIP3      OH2            45.0103933595        6.1388077139       10.5249303535  W2        19396           0.0000000000
     58187     19396  TIP3      H1             45.0535033595        6.9986577139       10.1065603535  W2        19396           0.0000000000
     58188     19396  TIP3      H2             44.5528033595        5.5862777139        9.8912503535  W2        19396           0.0000000000
     58189     19397  TIP3      OH2            52.7326633595        6.2693677139        8.9257603535  W2        19397           0.0000000000
     58190     19397  TIP3      H1             53.3790933595        5.9406877139        9.5505203535  W2        19397           0.0000000000
     58191     19397  TIP3      H2             53.2426033595        6.7872677139        8.3029003535  W2        19397           0.0000000000
     58192     19398  TIP3      OH2            41.6305433595        8.5353877139       11.2870703535  W2        19398           0.0000000000
     58193     19398  TIP3      H1             42.2842033595        7.9855577139       11.7190803535  W2        19398           0.0000000000
     58194     19398  TIP3      H2             41.6544733595        8.2612877139       10.3702703535  W2        19398           0.0000000000
     58195     19399  TIP3      OH2            46.7869933595       10.0855177139       10.5022203535  W2        19399           0.0000000000
     58196     19399  TIP3      H1             47.4030933595        9.5590577139       11.0116203535  W2        19399           0.0000000000
     58197     19399  TIP3      H2             46.2008733595        9.4453877139       10.0985803535  W2        19399           0.0000000000
     58198     19400  TIP3      OH2            43.8205833595        5.0566477139       14.5990103535  W2        19400           0.0000000000
     58199     19400  TIP3      H1             43.6017533595        5.5867077139       13.8326103535  W2        19400           0.0000000000
     58200     19400  TIP3      H2             43.1526733595        5.2831977139       15.2461503535  W2        19400           0.0000000000
     58201     19401  TIP3      OH2            51.1895633595       14.5567577139        8.1429203535  W2        19401           0.0000000000
     58202     19401  TIP3      H1             50.8940733595       14.2339877139        7.2916103535  W2        19401           0.0000000000
     58203     19401  TIP3      H2             50.8653433595       15.4564277139        8.1841803535  W2        19401           0.0000000000
     58204     19402  TIP3      OH2            46.3897233595       12.7322177139       14.8863803535  W2        19402           0.0000000000
     58205     19402  TIP3      H1             45.6496333595       13.3303677139       14.9899003535  W2        19402           0.0000000000
     58206     19402  TIP3      H2             47.1036733595       13.2861777139       14.5707403535  W2        19402           0.0000000000
     58207     19403  TIP3      OH2            54.4965033595        5.5602977139       10.9063503535  W2        19403           0.0000000000
     58208     19403  TIP3      H1             54.2813033595        4.7946377139       11.4389503535  W2        19403           0.0000000000
     58209     19403  TIP3      H2             55.1522433595        6.0327577139       11.4192003535  W2        19403           0.0000000000
     58210     19404  TIP3      OH2            43.4143133595        6.9488277139       12.5512303535  W2        19404           0.0000000000
     58211     19404  TIP3      H1             44.0279433595        7.5815877139       12.9244703535  W2        19404           0.0000000000
     58212     19404  TIP3      H2             43.9263833595        6.4763277139       11.8949203535  W2        19404           0.0000000000
     58213     19405  TIP3      OH2            44.7971533595       14.6965177139       15.6735303535  W2        19405           0.0000000000
     58214     19405  TIP3      H1             44.7919133595       15.5758677139       15.2954603535  W2        19405           0.0000000000
     58215     19405  TIP3      H2             43.9435633595       14.6129277139       16.0985203535  W2        19405           0.0000000000
     58216     19406  TIP3      OH2            40.9182433595       14.3673077139        6.4554603535  W2        19406           0.0000000000
     58217     19406  TIP3      H1             40.6463333595       14.5964077139        5.5667503535  W2        19406           0.0000000000
     58218     19406  TIP3      H2             40.9638133595       15.2051877139        6.9159903535  W2        19406           0.0000000000
     58219     19407  TIP3      OH2            54.5432133595       15.9888977139       13.1683103535  W2        19407           0.0000000000
     58220     19407  TIP3      H1             53.6015833595       16.0472877139       13.3300003535  W2        19407           0.0000000000
     58221     19407  TIP3      H2             54.8198233595       16.8949477139       13.0312803535  W2        19407           0.0000000000
     58222     19408  TIP3      OH2            47.8470533595        2.3621577139       12.0515003535  W2        19408           0.0000000000
     58223     19408  TIP3      H1             47.7294733595        1.4137577139       11.9973303535  W2        19408           0.0000000000
     58224     19408  TIP3      H2             46.9920633595        2.6947677139       12.3246103535  W2        19408           0.0000000000
     58225     19409  TIP3      OH2            52.7953333595       17.7702477139        9.7934703535  W2        19409           0.0000000000
     58226     19409  TIP3      H1             53.2205633595       17.0630377139        9.3084303535  W2        19409           0.0000000000
     58227     19409  TIP3      H2             53.1123333595       18.5715177139        9.3766903535  W2        19409           0.0000000000
     58228     19410  TIP3      OH2            53.9549833595       15.6710977139        8.3021303535  W2        19410           0.0000000000
     58229     19410  TIP3      H1             53.6974633595       14.9811077139        7.6907203535  W2        19410           0.0000000000
     58230     19410  TIP3      H2             54.0260633595       15.2282177139        9.1477203535  W2        19410           0.0000000000
     58231     19411  TIP3      OH2            50.1135433595       11.1997177139        6.5520803535  W2        19411           0.0000000000
     58232     19411  TIP3      H1             49.4020933595       11.7346877139        6.2001303535  W2        19411           0.0000000000
     58233     19411  TIP3      H2             50.8045033595       11.2549277139        5.8919703535  W2        19411           0.0000000000
     58234     19412  TIP3      OH2            50.1674633595        9.6571477139        3.5905803535  W2        19412           0.0000000000
     58235     19412  TIP3      H1             50.8684533595        9.6798377139        4.2419803535  W2        19412           0.0000000000
     58236     19412  TIP3      H2             50.4697533595        9.0291177139        2.9345103535  W2        19412           0.0000000000
     58237     19413  TIP3      OH2            53.5193133595       11.4090477139        7.5036703535  W2        19413           0.0000000000
     58238     19413  TIP3      H1             52.7874133595       11.6374177139        8.0767303535  W2        19413           0.0000000000
     58239     19413  TIP3      H2             53.9665333595       10.6953177139        7.9584203535  W2        19413           0.0000000000
     58240     19414  TIP3      OH2            53.4166633595        9.5833077139       16.5713703535  W2        19414           0.0000000000
     58241     19414  TIP3      H1             53.4965733595       10.3467477139       17.1432203535  W2        19414           0.0000000000
     58242     19414  TIP3      H2             52.8154333595        9.8625477139       15.8808803535  W2        19414           0.0000000000
     58243     19415  TIP3      OH2            45.1646833595       12.0396677139        9.3861703535  W2        19415           0.0000000000
     58244     19415  TIP3      H1             44.8342033595       11.6690077139        8.5678703535  W2        19415           0.0000000000
     58245     19415  TIP3      H2             45.7530933595       11.3690677139        9.7330003535  W2        19415           0.0000000000
     58246     19416  TIP3      OH2            46.5314333595       15.4677277139       12.0673903535  W2        19416           0.0000000000
     58247     19416  TIP3      H1             46.4365633595       14.8890377139       11.3108503535  W2        19416           0.0000000000
     58248     19416  TIP3      H2             47.2607933595       15.0962977139       12.5636703535  W2        19416           0.0000000000
     58249     19417  TIP3      OH2            45.5312333595       10.8082277139       13.0196703535  W2        19417           0.0000000000
     58250     19417  TIP3      H1             46.0964833595       10.9296477139       12.2567903535  W2        19417           0.0000000000
     58251     19417  TIP3      H2             45.8501233595       11.4457277139       13.6585203535  W2        19417           0.0000000000
     58252     19418  TIP3      OH2            51.8404533595       16.3114177139       13.7537203535  W2        19418           0.0000000000
     58253     19418  TIP3      H1             51.6001133595       16.9737277139       14.4016403535  W2        19418           0.0000000000
     58254     19418  TIP3      H2             51.6422733595       15.4769377139       14.1786803535  W2        19418           0.0000000000
     58255     19419  TIP3      OH2            46.4113033595       15.2074977139       17.7368603535  W2        19419           0.0000000000
     58256     19419  TIP3      H1             46.1000533595       15.9898177139       18.1921803535  W2        19419           0.0000000000
     58257     19419  TIP3      H2             45.7613233595       15.0544077139       17.0510603535  W2        19419           0.0000000000
     58258     19420  TIP3      OH2            52.3902633595       10.5713377139        5.1887903535  W2        19420           0.0000000000
     58259     19420  TIP3      H1             52.9698133595       10.7213677139        5.9356803535  W2        19420           0.0000000000
     58260     19420  TIP3      H2             52.8042633595       11.0420777139        4.4654303535  W2        19420           0.0000000000
     58261     19421  TIP3      OH2            43.3312933595       11.4056077139       16.9654303535  W2        19421           0.0000000000
     58262     19421  TIP3      H1             43.4016133595       12.0562877139       17.6639303535  W2        19421           0.0000000000
     58263     19421  TIP3      H2             42.4405133595       11.5083577139       16.6305203535  W2        19421           0.0000000000
     58264     19422  TIP3      OH2            50.1167533595       17.3081877139        8.6241003535  W2        19422           0.0000000000
     58265     19422  TIP3      H1             50.5905133595       17.6038177139        9.4015203535  W2        19422           0.0000000000
     58266     19422  TIP3      H2             49.5536833595       18.0463477139        8.3910603535  W2        19422           0.0000000000
     58267     19423  TIP3      OH2            44.6508933595       17.2789977139       18.5002403535  W2        19423           0.0000000000
     58268     19423  TIP3      H1             44.6584233595       17.1429677139       17.5527903535  W2        19423           0.0000000000
     58269     19423  TIP3      H2             43.7349333595       17.1618077139       18.7522403535  W2        19423           0.0000000000
     58270     19424  TIP3      OH2            44.1549533595       11.1090977139        6.9754503535  W2        19424           0.0000000000
     58271     19424  TIP3      H1             43.8630833595       11.8772677139        6.4845803535  W2        19424           0.0000000000
     58272     19424  TIP3      H2             43.4804733595       10.4497177139        6.8125903535  W2        19424           0.0000000000
     58273     19425  TIP3      OH2            40.2479633595       13.4720177139       15.7904303535  W2        19425           0.0000000000
     58274     19425  TIP3      H1             39.7468033595       13.4439577139       14.9754003535  W2        19425           0.0000000000
     58275     19425  TIP3      H2             40.2533333595       12.5663377139       16.1001603535  W2        19425           0.0000000000
     58276     19426  TIP3      OH2            39.9982333595       16.2523977139       12.6744503535  W2        19426           0.0000000000
     58277     19426  TIP3      H1             40.9442933595       16.1080977139       12.6554003535  W2        19426           0.0000000000
     58278     19426  TIP3      H2             39.8858633595       17.0366777139       13.2115703535  W2        19426           0.0000000000
     58279     19427  TIP3      OH2            49.1744833595       16.4922877139       17.2329603535  W2        19427           0.0000000000
     58280     19427  TIP3      H1             49.2619433595       17.3187477139       17.7078703535  W2        19427           0.0000000000
     58281     19427  TIP3      H2             48.3109933595       16.1626677139       17.4818903535  W2        19427           0.0000000000
     58282     19428  TIP3      OH2            49.5890633595       20.2646577139        7.0390203535  W2        19428           0.0000000000
     58283     19428  TIP3      H1             49.5136633595       20.1433777139        6.0925403535  W2        19428           0.0000000000
     58284     19428  TIP3      H2             49.6219333595       21.2139277139        7.1574803535  W2        19428           0.0000000000
     58285     19429  TIP3      OH2            43.2424433595       19.0533577139        8.8199203535  W2        19429           0.0000000000
     58286     19429  TIP3      H1             43.3944833595       18.7053977139        9.6985703535  W2        19429           0.0000000000
     58287     19429  TIP3      H2             42.3914833595       18.6970877139        8.5646403535  W2        19429           0.0000000000
     58288     19430  TIP3      OH2            52.6906633595       19.4186777139        4.0412603535  W2        19430           0.0000000000
     58289     19430  TIP3      H1             53.0655033595       18.6742877139        3.5705203535  W2        19430           0.0000000000
     58290     19430  TIP3      H2             52.6950333595       19.1487377139        4.9595903535  W2        19430           0.0000000000
     58291     19431  TIP3      OH2            52.3594733595       19.3443877139        6.7904803535  W2        19431           0.0000000000
     58292     19431  TIP3      H1             51.4244533595       19.4445777139        6.9691803535  W2        19431           0.0000000000
     58293     19431  TIP3      H2             52.6396633595       18.6349877139        7.3688003535  W2        19431           0.0000000000
     58294     19432  TIP3      OH2            42.4970133595       14.7955577139       16.8337103535  W2        19432           0.0000000000
     58295     19432  TIP3      H1             42.7131433595       14.4341177139       17.6932903535  W2        19432           0.0000000000
     58296     19432  TIP3      H2             41.6414833595       14.4209377139       16.6240603535  W2        19432           0.0000000000
     58297     19433  TIP3      OH2            45.1158133595        3.2656077139       12.8291303535  W2        19433           0.0000000000
     58298     19433  TIP3      H1             44.2541833595        3.1784277139       12.4214203535  W2        19433           0.0000000000
     58299     19433  TIP3      H2             45.0933833595        4.1216177139       13.2568903535  W2        19433           0.0000000000
     58300     19434  TIP3      OH2            49.7785933595        2.9876477139       16.2038303535  W2        19434           0.0000000000
     58301     19434  TIP3      H1             50.1989033595        2.5723577139       16.9568903535  W2        19434           0.0000000000
     58302     19434  TIP3      H2             48.8455533595        2.8089777139       16.3210303535  W2        19434           0.0000000000
     58303     19435  TIP3      OH2            53.1050833595        6.7431677139       17.0572803535  W2        19435           0.0000000000
     58304     19435  TIP3      H1             52.5910333595        6.6173877139       17.8548803535  W2        19435           0.0000000000
     58305     19435  TIP3      H2             52.9495533595        7.6554777139       16.8129003535  W2        19435           0.0000000000
     58306     19436  TIP3      OH2            53.8675733595       11.6041677139        2.8185803535  W2        19436           0.0000000000
     58307     19436  TIP3      H1             53.9096533595       11.3815577139        1.8885803535  W2        19436           0.0000000000
     58308     19436  TIP3      H2             54.7167833595       12.0028777139        3.0085703535  W2        19436           0.0000000000
     58309     19437  TIP3      OH2            49.4403233595        5.4799877139        3.4889103535  W2        19437           0.0000000000
     58310     19437  TIP3      H1             49.1868033595        5.4991477139        4.4117203535  W2        19437           0.0000000000
     58311     19437  TIP3      H2             49.1835333595        4.6085277139        3.1875303535  W2        19437           0.0000000000
     58312     19438  TIP3      OH2            45.2068233595        8.2310577139       13.9241503535  W2        19438           0.0000000000
     58313     19438  TIP3      H1             44.5650333595        8.1907877139       14.6331603535  W2        19438           0.0000000000
     58314     19438  TIP3      H2             45.2440233595        9.1575277139       13.6864503535  W2        19438           0.0000000000
     58315     19439  TIP3      OH2            45.2037333595        8.4520677139        8.8361503535  W2        19439           0.0000000000
     58316     19439  TIP3      H1             44.3110233595        8.1116777139        8.7775303535  W2        19439           0.0000000000
     58317     19439  TIP3      H2             45.6543933595        8.0751577139        8.0804703535  W2        19439           0.0000000000
     58318     19440  TIP3      OH2            50.7392833595        8.8680977139        7.6532303535  W2        19440           0.0000000000
     58319     19440  TIP3      H1             50.3303133595        9.6829577139        7.3617103535  W2        19440           0.0000000000
     58320     19440  TIP3      H2             51.4599033595        8.7281077139        7.0389403535  W2        19440           0.0000000000
     58321     19441  TIP3      OH2            49.8414433595        9.0437377139       19.1413003535  W2        19441           0.0000000000
     58322     19441  TIP3      H1             49.2788233595        8.3388977139       19.4620803535  W2        19441           0.0000000000
     58323     19441  TIP3      H2             50.6677833595        8.9229277139       19.6090603535  W2        19441           0.0000000000
     58324     19442  TIP3      OH2            51.7440533595        8.3141377139       10.4672003535  W2        19442           0.0000000000
     58325     19442  TIP3      H1             51.5485033595        8.9198177139        9.7522603535  W2        19442           0.0000000000
     58326     19442  TIP3      H2             51.9253133595        7.4806577139       10.0328303535  W2        19442           0.0000000000
     58327     19443  TIP3      OH2            42.9568733595        8.5514077139       15.7913503535  W2        19443           0.0000000000
     58328     19443  TIP3      H1             42.9188133595        8.9515677139       16.6600603535  W2        19443           0.0000000000
     58329     19443  TIP3      H2             42.4659833595        7.7346477139       15.8816403535  W2        19443           0.0000000000
     58330     19444  TIP3      OH2            46.3226133595        5.9256377139        2.5899503535  W2        19444           0.0000000000
     58331     19444  TIP3      H1             45.8916833595        5.4806477139        3.3196903535  W2        19444           0.0000000000
     58332     19444  TIP3      H2             45.6044833595        6.2972677139        2.0777003535  W2        19444           0.0000000000
     58333     19445  TIP3      OH2            39.5649533595        5.6675877139        9.6418203535  W2        19445           0.0000000000
     58334     19445  TIP3      H1             40.1957233595        5.6387977139       10.3612103535  W2        19445           0.0000000000
     58335     19445  TIP3      H2             40.0143833595        5.2424577139        8.9114103535  W2        19445           0.0000000000
     58336     19446  TIP3      OH2            40.8391633595        6.4137877139        5.0658603535  W2        19446           0.0000000000
     58337     19446  TIP3      H1             41.3133333595        7.0047777139        4.4809503535  W2        19446           0.0000000000
     58338     19446  TIP3      H2             40.1218033595        6.9440777139        5.4128703535  W2        19446           0.0000000000
     58339     19447  TIP3      OH2            51.0079733595        9.9522677139       15.1384403535  W2        19447           0.0000000000
     58340     19447  TIP3      H1             51.3314533595        9.3212377139       14.4954903535  W2        19447           0.0000000000
     58341     19447  TIP3      H2             50.5679033595        9.4174877139       15.7991803535  W2        19447           0.0000000000
     58342     19448  TIP3      OH2            47.7852633595        5.8798177139        9.9225603535  W2        19448           0.0000000000
     58343     19448  TIP3      H1             46.8743733595        5.9364977139       10.2111603535  W2        19448           0.0000000000
     58344     19448  TIP3      H2             48.2905533595        5.8193677139       10.7332803535  W2        19448           0.0000000000
     58345     19449  TIP3      OH2            42.6136033595        7.5084477139        8.7493203535  W2        19449           0.0000000000
     58346     19449  TIP3      H1             41.7244033595        7.6079977139        8.4092803535  W2        19449           0.0000000000
     58347     19449  TIP3      H2             42.9100933595        6.6667477139        8.4031103535  W2        19449           0.0000000000
     58348     19450  TIP3      OH2            46.2667833595        7.5087077139        6.4057803535  W2        19450           0.0000000000
     58349     19450  TIP3      H1             47.1983333595        7.6377077139        6.5840903535  W2        19450           0.0000000000
     58350     19450  TIP3      H2             46.0518133595        8.1781377139        5.7562503535  W2        19450           0.0000000000
     58351     19451  TIP3      OH2            52.1904533595        5.1144477139       13.1867403535  W2        19451           0.0000000000
     58352     19451  TIP3      H1             51.5136133595        5.2457577139       13.8507103535  W2        19451           0.0000000000
     58353     19451  TIP3      H2             51.7049433595        4.9593977139       12.3765103535  W2        19451           0.0000000000
     58354     19452  TIP3      OH2            44.9408033595        8.7029277139        3.9723903535  W2        19452           0.0000000000
     58355     19452  TIP3      H1             44.3983133595        8.3233077139        3.2811503535  W2        19452           0.0000000000
     58356     19452  TIP3      H2             45.7742933595        8.8973977139        3.5438003535  W2        19452           0.0000000000
     58357     19453  TIP3      OH2            43.0759433595       13.2601177139       19.0715503535  W2        19453           0.0000000000
     58358     19453  TIP3      H1             43.8081833595       13.5147077139       19.6330003535  W2        19453           0.0000000000
     58359     19453  TIP3      H2             42.2958133595       13.4646577139       19.5870903535  W2        19453           0.0000000000
     58360     19454  TIP3      OH2            49.1052333595        8.6671177139       11.8095203535  W2        19454           0.0000000000
     58361     19454  TIP3      H1             49.6695733595        8.1207777139       11.2624803535  W2        19454           0.0000000000
     58362     19454  TIP3      H2             48.9575733595        8.1453077139       12.5982803535  W2        19454           0.0000000000
     58363     19455  TIP3      OH2            44.1072033595        4.8037277139        8.2280003535  W2        19455           0.0000000000
     58364     19455  TIP3      H1             43.7901533595        3.9012577139        8.1925403535  W2        19455           0.0000000000
     58365     19455  TIP3      H2             44.8886133595        4.8054677139        7.6751603535  W2        19455           0.0000000000
     58366     19456  TIP3      OH2            47.7318233595        7.0557277139       14.2235603535  W2        19456           0.0000000000
     58367     19456  TIP3      H1             46.8963533595        7.5096777139       14.3338003535  W2        19456           0.0000000000
     58368     19456  TIP3      H2             48.2558833595        7.3315777139       14.9755503535  W2        19456           0.0000000000
     58369     19457  TIP3      OH2            48.2760833595       13.2684977139        5.9082003535  W2        19457           0.0000000000
     58370     19457  TIP3      H1             47.5311833595       12.7610277139        5.5859903535  W2        19457           0.0000000000
     58371     19457  TIP3      H2             48.1418033595       13.3172977139        6.8546803535  W2        19457           0.0000000000
     58372     19458  TIP3      OH2            52.1737633595        6.0824877139        4.1074603535  W2        19458           0.0000000000
     58373     19458  TIP3      H1             51.2351833595        6.1940477139        3.9563403535  W2        19458           0.0000000000
     58374     19458  TIP3      H2             52.4709733595        6.9391777139        4.4140303535  W2        19458           0.0000000000
     58375     19459  TIP3      OH2            49.7952933595       13.4528277139       17.1451103535  W2        19459           0.0000000000
     58376     19459  TIP3      H1             49.4499033595       13.0710677139       17.9520703535  W2        19459           0.0000000000
     58377     19459  TIP3      H2             49.5953033595       14.3861877139       17.2164003535  W2        19459           0.0000000000
     58378     19460  TIP3      OH2            52.8921133595        7.9497577139        5.7682003535  W2        19460           0.0000000000
     58379     19460  TIP3      H1             53.7840133595        7.8122577139        6.0873203535  W2        19460           0.0000000000
     58380     19460  TIP3      H2             52.9484733595        8.7403677139        5.2315503535  W2        19460           0.0000000000
     58381     19461  TIP3      OH2            43.4009133595       12.5634977139       11.6779903535  W2        19461           0.0000000000
     58382     19461  TIP3      H1             44.1456333595       12.5610677139       11.0766403535  W2        19461           0.0000000000
     58383     19461  TIP3      H2             43.4785733595       11.7398777139       12.1595003535  W2        19461           0.0000000000
     58384     19462  TIP3      OH2            50.4014933595       14.7269277139        4.9336603535  W2        19462           0.0000000000
     58385     19462  TIP3      H1             50.1063333595       15.5537177139        5.3151403535  W2        19462           0.0000000000
     58386     19462  TIP3      H2             49.6984933595       14.1076177139        5.1298003535  W2        19462           0.0000000000
     58387     19463  TIP3      OH2            40.4088833595       11.0241877139       16.9928403535  W2        19463           0.0000000000
     58388     19463  TIP3      H1             40.6317433595       10.6061477139       17.8245903535  W2        19463           0.0000000000
     58389     19463  TIP3      H2             39.8068933595       10.4116877139       16.5701203535  W2        19463           0.0000000000
     58390     19464  TIP3      OH2            47.4253733595       10.5411777139       19.2058103535  W2        19464           0.0000000000
     58391     19464  TIP3      H1             47.1294533595       10.3754777139       18.3107203535  W2        19464           0.0000000000
     58392     19464  TIP3      H2             48.3568933595       10.3212077139       19.1952003535  W2        19464           0.0000000000
     58393     19465  TIP3      OH2            52.0456533595       15.9143777139       17.0956103535  W2        19465           0.0000000000
     58394     19465  TIP3      H1             51.1450833595       16.0976377139       16.8280003535  W2        19465           0.0000000000
     58395     19465  TIP3      H2             52.0797633595       16.1733077139       18.0164903535  W2        19465           0.0000000000
     58396     19466  TIP3      OH2            53.2325433595       11.7531577139       12.9492703535  W2        19466           0.0000000000
     58397     19466  TIP3      H1             52.3042333595       11.5213477139       12.9222003535  W2        19466           0.0000000000
     58398     19466  TIP3      H2             53.6836533595       10.9761377139       12.6191503535  W2        19466           0.0000000000
     58399     19467  TIP3      OH2            45.7758533595       16.0813177139        9.0821403535  W2        19467           0.0000000000
     58400     19467  TIP3      H1             46.3030733595       16.8547577139        8.8820203535  W2        19467           0.0000000000
     58401     19467  TIP3      H2             44.8957033595       16.3062377139        8.7805403535  W2        19467           0.0000000000
     58402     19468  TIP3      OH2            41.5306233595       10.9437277139        3.6693803535  W2        19468           0.0000000000
     58403     19468  TIP3      H1             42.1466133595       11.5704477139        4.0488603535  W2        19468           0.0000000000
     58404     19468  TIP3      H2             40.6688833595       11.2597077139        3.9410303535  W2        19468           0.0000000000
     58405     19469  TIP3      OH2            47.2030833595       13.7443077139        8.6585703535  W2        19469           0.0000000000
     58406     19469  TIP3      H1             46.9620833595       14.6697477139        8.7001003535  W2        19469           0.0000000000
     58407     19469  TIP3      H2             46.4624433595       13.2854377139        9.0549603535  W2        19469           0.0000000000
     58408     19470  TIP3      OH2            47.7177433595       17.8936677139       14.9736803535  W2        19470           0.0000000000
     58409     19470  TIP3      H1             48.0802133595       18.7482277139       14.7401203535  W2        19470           0.0000000000
     58410     19470  TIP3      H2             48.2492633595       17.6018277139       15.7143103535  W2        19470           0.0000000000
     58411     19471  TIP3      OH2            45.8861633595       18.7660677139        8.2037903535  W2        19471           0.0000000000
     58412     19471  TIP3      H1             44.9362133595       18.8718077139        8.2551203535  W2        19471           0.0000000000
     58413     19471  TIP3      H2             46.2379733595       19.5868077139        8.5485403535  W2        19471           0.0000000000
     58414     19472  TIP3      OH2            51.2618233595       13.9927377139       14.6742403535  W2        19472           0.0000000000
     58415     19472  TIP3      H1             50.8359533595       13.7649077139       15.5006403535  W2        19472           0.0000000000
     58416     19472  TIP3      H2             51.8424033595       13.2539177139       14.4917703535  W2        19472           0.0000000000
     58417     19473  TIP3      OH2            53.4647133595       14.9217877139        3.7481403535  W2        19473           0.0000000000
     58418     19473  TIP3      H1             53.8180233595       14.5417677139        4.5524903535  W2        19473           0.0000000000
     58419     19473  TIP3      H2             52.5160633595       14.8282677139        3.8350703535  W2        19473           0.0000000000
     58420     19474  TIP3      OH2            53.9202433595       18.5446877139       17.1437203535  W2        19474           0.0000000000
     58421     19474  TIP3      H1             53.3185633595       17.9889777139       16.6483503535  W2        19474           0.0000000000
     58422     19474  TIP3      H2             54.2016133595       19.2116677139       16.5174603535  W2        19474           0.0000000000
     58423     19475  TIP3      OH2            42.0428333595        5.7774577139       16.5509803535  W2        19475           0.0000000000
     58424     19475  TIP3      H1             41.1500633595        6.1159977139       16.4833803535  W2        19475           0.0000000000
     58425     19475  TIP3      H2             41.9441133595        4.9220677139       16.9690603535  W2        19475           0.0000000000
     58426     19476  TIP3      OH2            54.3306433595       13.5939877139        5.9749303535  W2        19476           0.0000000000
     58427     19476  TIP3      H1             54.0534033595       12.8659177139        6.5310403535  W2        19476           0.0000000000
     58428     19476  TIP3      H2             55.2579433595       13.7131877139        6.1801903535  W2        19476           0.0000000000
     58429     19477  TIP3      OH2            41.6940333595       17.5818977139       14.9859203535  W2        19477           0.0000000000
     58430     19477  TIP3      H1             41.9110633595       16.6501377139       14.9548903535  W2        19477           0.0000000000
     58431     19477  TIP3      H2             41.9403833595       17.8563977139       15.8692003535  W2        19477           0.0000000000
     58432     19478  TIP3      OH2            47.5554933595       16.0333977139        2.1951403535  W2        19478           0.0000000000
     58433     19478  TIP3      H1             47.7944733595       15.2852077139        1.6480303535  W2        19478           0.0000000000
     58434     19478  TIP3      H2             47.2866233595       15.6455677139        3.0279203535  W2        19478           0.0000000000
     58435     19479  TIP3      OH2            46.4925533595       15.6037777139        4.6514003535  W2        19479           0.0000000000
     58436     19479  TIP3      H1             46.6393533595       15.0837577139        5.4414903535  W2        19479           0.0000000000
     58437     19479  TIP3      H2             46.4897233595       16.5105377139        4.9579903535  W2        19479           0.0000000000
     58438     19480  TIP3      OH2            42.9456633595       12.8561077139        5.1619403535  W2        19480           0.0000000000
     58439     19480  TIP3      H1             42.2595933595       13.2083577139        5.7289103535  W2        19480           0.0000000000
     58440     19480  TIP3      H2             43.4684533595       13.6190677139        4.9153703535  W2        19480           0.0000000000
     58441     19481  TIP3      OH2            50.7771733595        5.5184877139       15.4408403535  W2        19481           0.0000000000
     58442     19481  TIP3      H1             51.4759633595        5.5923577139       16.0908103535  W2        19481           0.0000000000
     58443     19481  TIP3      H2             50.3963133595        4.6539877139       15.5951303535  W2        19481           0.0000000000
     58444     19482  TIP3      OH2            51.5616633595        5.1706577139        6.5380703535  W2        19482           0.0000000000
     58445     19482  TIP3      H1             51.7814933595        5.6421977139        5.7346103535  W2        19482           0.0000000000
     58446     19482  TIP3      H2             52.1200633595        5.5649177139        7.2081303535  W2        19482           0.0000000000
     58447     19483  TIP3      OH2            49.2302733595       17.3011377139        5.4008203535  W2        19483           0.0000000000
     58448     19483  TIP3      H1             48.4138833595       17.7981077139        5.4532503535  W2        19483           0.0000000000
     58449     19483  TIP3      H2             49.7599033595       17.7764877139        4.7607003535  W2        19483           0.0000000000
     58450     19484  TIP3      OH2            48.7616533595        6.8985377139        7.3729103535  W2        19484           0.0000000000
     58451     19484  TIP3      H1             49.5739133595        7.4028577139        7.4190803535  W2        19484           0.0000000000
     58452     19484  TIP3      H2             48.5169533595        6.7535077139        8.2868703535  W2        19484           0.0000000000
     58453     19485  TIP3      OH2            49.2972933595        7.8848077139       16.5575703535  W2        19485           0.0000000000
     58454     19485  TIP3      H1             49.4163233595        8.4583477139       17.3146103535  W2        19485           0.0000000000
     58455     19485  TIP3      H2             49.9527533595        7.1967477139       16.6723503535  W2        19485           0.0000000000
     58456     19486  TIP3      OH2            49.6453233595        3.9798377139        8.3110203535  W2        19486           0.0000000000
     58457     19486  TIP3      H1             49.2986733595        4.5968977139        8.9554503535  W2        19486           0.0000000000
     58458     19486  TIP3      H2             50.3040133595        4.4804077139        7.8295703535  W2        19486           0.0000000000
     58459     19487  TIP3      OH2            46.5685833595       18.3448577139        5.3825103535  W2        19487           0.0000000000
     58460     19487  TIP3      H1             46.7294533595       19.1446077139        4.8817703535  W2        19487           0.0000000000
     58461     19487  TIP3      H2             46.3713633595       18.6514577139        6.2675703535  W2        19487           0.0000000000
     58462     19488  TIP3      OH2            45.3030233595        5.0427777139        4.9982703535  W2        19488           0.0000000000
     58463     19488  TIP3      H1             45.2195033595        5.9310877139        5.3449103535  W2        19488           0.0000000000
     58464     19488  TIP3      H2             46.1930533595        4.7774477139        5.2299503535  W2        19488           0.0000000000
     58465     19489  TIP3      OH2            54.1039733595        9.5419377139       11.4882703535  W2        19489           0.0000000000
     58466     19489  TIP3      H1             53.3064133595        9.1269577139       11.1597703535  W2        19489           0.0000000000
     58467     19489  TIP3      H2             54.5490833595        8.8513077139       11.9793203535  W2        19489           0.0000000000
     58468     19490  TIP3      OH2            43.5615533595       15.4699977139        4.0587203535  W2        19490           0.0000000000
     58469     19490  TIP3      H1             44.1537033595       16.1694777139        4.3349603535  W2        19490           0.0000000000
     58470     19490  TIP3      H2             44.0208533595       15.0369477139        3.3391803535  W2        19490           0.0000000000
     58471     19491  TIP3      OH2            41.8774733595        8.1342977139        3.1746603535  W2        19491           0.0000000000
     58472     19491  TIP3      H1             41.8327333595        9.0736077139        3.3533603535  W2        19491           0.0000000000
     58473     19491  TIP3      H2             40.9897933595        7.8987877139        2.9048703535  W2        19491           0.0000000000
     58474     19492  TIP3      OH2            42.6856733595        2.9159577139       11.8477603535  W2        19492           0.0000000000
     58475     19492  TIP3      H1             42.4566533595        2.9752077139       10.9202603535  W2        19492           0.0000000000
     58476     19492  TIP3      H2             42.2430133595        2.1245077139       12.1541703535  W2        19492           0.0000000000
     58477     19493  TIP3      OH2            41.6160033595       16.8566677139        8.0083403535  W2        19493           0.0000000000
     58478     19493  TIP3      H1             40.7838633595       17.3289377139        8.0354803535  W2        19493           0.0000000000
     58479     19493  TIP3      H2             42.1618333595       17.3664277139        7.4096503535  W2        19493           0.0000000000
     58480     19494  TIP3      OH2            40.9043733595       19.4690377139       19.3381403535  W2        19494           0.0000000000
     58481     19494  TIP3      H1             41.4445933595       19.2524377139       20.0980603535  W2        19494           0.0000000000
     58482     19494  TIP3      H2             40.4231733595       18.6636377139       19.1483903535  W2        19494           0.0000000000
     58483     19495  TIP3      OH2            45.5017133595       18.3884777139       20.9585603535  W2        19495           0.0000000000
     58484     19495  TIP3      H1             46.2694333595       17.9295577139       21.2994803535  W2        19495           0.0000000000
     58485     19495  TIP3      H2             45.4803333595       18.1624577139       20.0286803535  W2        19495           0.0000000000
     58486     19496  TIP3      OH2            49.5936733595       17.8965377139        2.3337403535  W2        19496           0.0000000000
     58487     19496  TIP3      H1             48.9497733595       17.2653977139        2.6551103535  W2        19496           0.0000000000
     58488     19496  TIP3      H2             50.3555033595       17.3653377139        2.1020903535  W2        19496           0.0000000000
     58489     19497  TIP3      OH2            52.0785833595       16.7685877139       19.6877103535  W2        19497           0.0000000000
     58490     19497  TIP3      H1             51.7275333595       15.9118877139       19.9307503535  W2        19497           0.0000000000
     58491     19497  TIP3      H2             52.8049033595       16.9112577139       20.2946103535  W2        19497           0.0000000000
     58492     19498  TIP3      OH2            54.1979633595       17.7135277139        2.5675403535  W2        19498           0.0000000000
     58493     19498  TIP3      H1             54.4810033595       16.9190477139        3.0202303535  W2        19498           0.0000000000
     58494     19498  TIP3      H2             54.9377533595       17.9466277139        2.0066503535  W2        19498           0.0000000000
     58495     19499  TIP3      OH2            40.8113233595       13.2794477139       20.2925703535  W2        19499           0.0000000000
     58496     19499  TIP3      H1             40.9553733595       12.3775177139       20.0062403535  W2        19499           0.0000000000
     58497     19499  TIP3      H2             40.0390633595       13.5656577139       19.8048003535  W2        19499           0.0000000000
     58498     19500  TIP3      OH2            45.1526933595       13.6230177139        2.4250303535  W2        19500           0.0000000000
     58499     19500  TIP3      H1             45.2171033595       12.8289777139        2.9556703535  W2        19500           0.0000000000
     58500     19500  TIP3      H2             45.8056133595       13.5042977139        1.7352303535  W2        19500           0.0000000000
     58501     19501  TIP3      OH2            47.4669333595       13.2492577139       19.7252103535  W2        19501           0.0000000000
     58502     19501  TIP3      H1             47.1383133595       13.5200677139       18.8679503535  W2        19501           0.0000000000
     58503     19501  TIP3      H2             47.6187533595       12.3082377139       19.6377103535  W2        19501           0.0000000000
     58504     19502  TIP3      OH2            50.5050333595       14.6701877139        2.1608303535  W2        19502           0.0000000000
     58505     19502  TIP3      H1             50.2364433595       14.8503977139        3.0617203535  W2        19502           0.0000000000
     58506     19502  TIP3      H2             50.2985933595       13.7448077139        2.0294103535  W2        19502           0.0000000000
     58507     19503  TIP3      OH2            53.2014533595       13.1649877139       17.1084403535  W2        19503           0.0000000000
     58508     19503  TIP3      H1             53.9469333595       13.7533577139       16.9888403535  W2        19503           0.0000000000
     58509     19503  TIP3      H2             52.4441333595       13.7469577139       17.1717503535  W2        19503           0.0000000000
     58510     19504  TIP3      OH2            41.6439733595       10.4797777139       19.7125003535  W2        19504           0.0000000000
     58511     19504  TIP3      H1             42.0520933595        9.6224377139       19.5915603535  W2        19504           0.0000000000
     58512     19504  TIP3      H2             41.3837333595       10.4939077139       20.6335303535  W2        19504           0.0000000000
     58513     19505  TIP3      OH2            46.3020733595       11.5956377139        4.7308303535  W2        19505           0.0000000000
     58514     19505  TIP3      H1             45.8422733595       11.1114677139        5.4166803535  W2        19505           0.0000000000
     58515     19505  TIP3      H2             46.5569433595       10.9271777139        4.0948803535  W2        19505           0.0000000000
     58516     19506  TIP3      OH2            45.5910033595        9.4883477139       17.0867903535  W2        19506           0.0000000000
     58517     19506  TIP3      H1             44.9726133595       10.1630077139       17.3672603535  W2        19506           0.0000000000
     58518     19506  TIP3      H2             45.9351233595        9.8097377139       16.2534103535  W2        19506           0.0000000000
     58519     19507  TIP3      OH2            47.3731133595        9.8388177139        2.9931503535  W2        19507           0.0000000000
     58520     19507  TIP3      H1             47.1926133595        9.6839377139        2.0659803535  W2        19507           0.0000000000
     58521     19507  TIP3      H2             48.3231633595        9.9466877139        3.0379403535  W2        19507           0.0000000000
     58522     19508  TIP3      OH2            50.6108233595       11.9598777139       20.3642703535  W2        19508           0.0000000000
     58523     19508  TIP3      H1             51.5639433595       12.0437877139       20.3368703535  W2        19508           0.0000000000
     58524     19508  TIP3      H2             50.4502833595       11.2480577139       20.9837603535  W2        19508           0.0000000000
     58525     19509  TIP3      OH2            45.9303733595        6.8434277139       18.1691003535  W2        19509           0.0000000000
     58526     19509  TIP3      H1             46.0804633595        6.1145577139       17.5670703535  W2        19509           0.0000000000
     58527     19509  TIP3      H2             45.9326133595        7.6205977139       17.6103203535  W2        19509           0.0000000000
     58528     19510  TIP3      OH2            46.3429433595        5.2130077139       15.6618403535  W2        19510           0.0000000000
     58529     19510  TIP3      H1             46.8786933595        5.6646777139       15.0097703535  W2        19510           0.0000000000
     58530     19510  TIP3      H2             45.4909033595        5.1049877139       15.2392503535  W2        19510           0.0000000000
     58531     19511  TIP3      OH2            47.9247833595       10.6526277139       15.9013603535  W2        19511           0.0000000000
     58532     19511  TIP3      H1             48.6752633595       10.4963777139       15.3281403535  W2        19511           0.0000000000
     58533     19511  TIP3      H2             47.5856133595       11.5042877139       15.6259103535  W2        19511           0.0000000000
     58534     19512  TIP3      OH2            52.3404033595        8.4678077139       20.9298903535  W2        19512           0.0000000000
     58535     19512  TIP3      H1             52.5325333595        7.5367477139       20.8183403535  W2        19512           0.0000000000
     58536     19512  TIP3      H2             53.1980333595        8.8927577139       20.9194303535  W2        19512           0.0000000000
     58537     19513  TIP3      OH2            53.6571233595       11.2563277139       19.0071603535  W2        19513           0.0000000000
     58538     19513  TIP3      H1             53.3756233595       11.9657877139       18.4295403535  W2        19513           0.0000000000
     58539     19513  TIP3      H2             54.5995533595       11.1836277139       18.8562803535  W2        19513           0.0000000000
     58540     19514  TIP3      OH2            44.4090033595        8.0417777139       20.0806603535  W2        19514           0.0000000000
     58541     19514  TIP3      H1             43.6419033595        7.5092577139       19.8704203535  W2        19514           0.0000000000
     58542     19514  TIP3      H2             45.0879033595        7.7318177139       19.4812903535  W2        19514           0.0000000000
     58543     19515  TIP3      OH2            47.1484933595        2.6695777139       16.0932003535  W2        19515           0.0000000000
     58544     19515  TIP3      H1             47.0504533595        3.6158977139       15.9878203535  W2        19515           0.0000000000
     58545     19515  TIP3      H2             46.4061133595        2.2969577139       15.6175503535  W2        19515           0.0000000000
     58546     19516  TIP3      OH2            48.4125433595        6.9911177139       19.6570403535  W2        19516           0.0000000000
     58547     19516  TIP3      H1             48.1770833595        6.7717877139       20.5585303535  W2        19516           0.0000000000
     58548     19516  TIP3      H2             47.6292333595        6.7842377139       19.1472903535  W2        19516           0.0000000000
     58549     19517  TIP3      OH2            51.1282033595        6.1184677139       18.7323903535  W2        19517           0.0000000000
     58550     19517  TIP3      H1             50.1807433595        6.1504377139       18.8647203535  W2        19517           0.0000000000
     58551     19517  TIP3      H2             51.4408733595        5.4931777139       19.3862103535  W2        19517           0.0000000000
     58552     19518  TIP3      OH2            52.7623533595        4.7525777139       20.7375803535  W2        19518           0.0000000000
     58553     19518  TIP3      H1             52.6655333595        3.8003077139       20.7317703535  W2        19518           0.0000000000
     58554     19518  TIP3      H2             52.4406633595        5.0212577139       21.5981303535  W2        19518           0.0000000000
     58555     19519  TIP3      OH2            42.5892833595        5.9621577139       19.7851303535  W2        19519           0.0000000000
     58556     19519  TIP3      H1             42.8010233595        5.2557677139       19.1748803535  W2        19519           0.0000000000
     58557     19519  TIP3      H2             42.4780333595        5.5247577139       20.6292503535  W2        19519           0.0000000000
     58558     19520  TIP3      OH2            47.3703033595        1.9633177139       18.7644803535  W2        19520           0.0000000000
     58559     19520  TIP3      H1             48.0821433595        1.3235377139       18.7503903535  W2        19520           0.0000000000
     58560     19520  TIP3      H2             47.2693433595        2.2301477139       17.8507903535  W2        19520           0.0000000000
     58561     19521  TIP3      OH2            47.7240533595        3.6461577139       20.8181103535  W2        19521           0.0000000000
     58562     19521  TIP3      H1             47.5922733595        3.1705377139       19.9979603535  W2        19521           0.0000000000
     58563     19521  TIP3      H2             47.1247933595        4.3905177139       20.7628203535  W2        19521           0.0000000000
     58564     19522  TIP3      OH2            47.2702833595       20.5291877139        3.9945103535  W2        19522           0.0000000000
     58565     19522  TIP3      H1             48.2033533595       20.6870577139        4.1383503535  W2        19522           0.0000000000
     58566     19522  TIP3      H2             47.0061633595       21.2044877139        3.3696603535  W2        19522           0.0000000000
     58567     19523  TIP3      OH2            40.8387733595       15.1655677139        3.4773203535  W2        19523           0.0000000000
     58568     19523  TIP3      H1             41.7526933595       15.2444577139        3.7507103535  W2        19523           0.0000000000
     58569     19523  TIP3      H2             40.8460833595       14.4785277139        2.8108803535  W2        19523           0.0000000000
     58570     19524  TIP3      OH2            39.4878333595       20.5584177139        8.5547103535  W2        19524           0.0000000000
     58571     19524  TIP3      H1             38.8405433595       20.0965877139        8.0218303535  W2        19524           0.0000000000
     58572     19524  TIP3      H2             39.8422933595       19.8867477139        9.1373303535  W2        19524           0.0000000000
     58573     19525  TIP3      OH2            40.3577533595       18.6391177139       10.3593303535  W2        19525           0.0000000000
     58574     19525  TIP3      H1             40.0234333595       17.7588477139       10.5313503535  W2        19525           0.0000000000
     58575     19525  TIP3      H2             40.5799933595       18.9846177139       11.2238903535  W2        19525           0.0000000000
     58576     19526  TIP3      OH2            40.4377033595       11.7146577139       12.8108203535  W2        19526           0.0000000000
     58577     19526  TIP3      H1             40.6219933595       11.6328277139       11.8751103535  W2        19526           0.0000000000
     58578     19526  TIP3      H2             41.2869933595       11.5903577139       13.2344603535  W2        19526           0.0000000000
     58579     19527  TIP3      OH2            40.0351833595        6.9851577139       18.9517003535  W2        19527           0.0000000000
     58580     19527  TIP3      H1             40.9546733595        6.8629877139       19.1880103535  W2        19527           0.0000000000
     58581     19527  TIP3      H2             39.5856333595        6.2351277139       19.3410503535  W2        19527           0.0000000000
     58582     19528  TIP3      OH2            41.2564333595        5.2973177139       11.8429903535  W2        19528           0.0000000000
     58583     19528  TIP3      H1             41.7015933595        4.5055677139       12.1449603535  W2        19528           0.0000000000
     58584     19528  TIP3      H2             41.7227333595        6.0138377139       12.2735503535  W2        19528           0.0000000000
     58585     19529  TIP3      OH2            39.5604633595        8.2966177139       12.9120103535  W2        19529           0.0000000000
     58586     19529  TIP3      H1             40.0524433595        8.0756677139       12.1212103535  W2        19529           0.0000000000
     58587     19529  TIP3      H2             39.9225533595        9.1369577139       13.1929603535  W2        19529           0.0000000000
     58588     19530  TIP3      OH2            39.8741133595        4.5545277139        6.9662503535  W2        19530           0.0000000000
     58589     19530  TIP3      H1             38.9489533595        4.7631877139        6.8368003535  W2        19530           0.0000000000
     58590     19530  TIP3      H2             40.3281033595        5.0386077139        6.2764803535  W2        19530           0.0000000000
     58591     19531  TIP3      OH2            54.6448333595       19.5386977139        8.9119903535  W2        19531           0.0000000000
     58592     19531  TIP3      H1             55.2971233595       19.1909077139        8.3039003535  W2        19531           0.0000000000
     58593     19531  TIP3      H2             55.1552133595       20.0270177139        9.5579603535  W2        19531           0.0000000000
     58594     19532  TIP3      OH2            39.8376533595        3.2924277139       15.3105003535  W2        19532           0.0000000000
     58595     19532  TIP3      H1             39.1727033595        3.0464577139       15.9535903535  W2        19532           0.0000000000
     58596     19532  TIP3      H2             39.3947833595        3.9144677139       14.7333003535  W2        19532           0.0000000000
     58597     19533  TIP3      OH2            42.0295833595       16.4678377139       19.4550803535  W2        19533           0.0000000000
     58598     19533  TIP3      H1             41.2088333595       16.6424877139       18.9945503535  W2        19533           0.0000000000
     58599     19533  TIP3      H2             41.7773633595       16.3943077139       20.3755203535  W2        19533           0.0000000000
     58600     19534  TIP3      OH2            44.9838733595       17.4419577139       15.7134803535  W2        19534           0.0000000000
     58601     19534  TIP3      H1             44.5589833595       18.2518077139       15.4309403535  W2        19534           0.0000000000
     58602     19534  TIP3      H2             45.8881533595       17.5273677139       15.4114603535  W2        19534           0.0000000000
     58603     19535  TIP3      OH2            49.2950133595       18.8409577139       18.6728503535  W2        19535           0.0000000000
     58604     19535  TIP3      H1             49.4797633595       18.5075677139       19.5508803535  W2        19535           0.0000000000
     58605     19535  TIP3      H2             50.1414633595       19.1508177139       18.3507703535  W2        19535           0.0000000000
     58606     19536  TIP3      OH2            51.6400533595       20.1268477139       17.9169903535  W2        19536           0.0000000000
     58607     19536  TIP3      H1             52.3169433595       19.4940777139       17.6769103535  W2        19536           0.0000000000
     58608     19536  TIP3      H2             51.9619333595       20.5278977139       18.7243203535  W2        19536           0.0000000000
     58609     19537  TIP3      OH2            42.3855433595       20.6983477139       15.7610103535  W2        19537           0.0000000000
     58610     19537  TIP3      H1             41.6651833595       21.1384477139       15.3097803535  W2        19537           0.0000000000
     58611     19537  TIP3      H2             42.0199433595       20.4478177139       16.6094103535  W2        19537           0.0000000000
     58612     19538  TIP3      OH2            44.8528033595       20.2987377139       14.7907303535  W2        19538           0.0000000000
     58613     19538  TIP3      H1             43.9880233595       20.3705877139       15.1947403535  W2        19538           0.0000000000
     58614     19538  TIP3      H2             44.7977033595       20.8454677139       14.0069803535  W2        19538           0.0000000000
     58615     19539  TIP3      OH2            49.5633633595       20.1866277139       13.9663303535  W2        19539           0.0000000000
     58616     19539  TIP3      H1             49.1067633595       20.7155977139       13.3121703535  W2        19539           0.0000000000
     58617     19539  TIP3      H2             49.7261633595       20.7897677139       14.6915603535  W2        19539           0.0000000000
     58618     19540  TIP3      OH2            51.8909933595       19.0645877139       14.9113603535  W2        19540           0.0000000000
     58619     19540  TIP3      H1             50.9863633595       19.2296077139       14.6455703535  W2        19540           0.0000000000
     58620     19540  TIP3      H2             52.3198533595       19.9178077139       14.8457003535  W2        19540           0.0000000000
     58621     19541  TIP3      OH2            54.4951833595       20.6344977139       15.2061403535  W2        19541           0.0000000000
     58622     19541  TIP3      H1             54.3133833595       21.5503877139       14.9956303535  W2        19541           0.0000000000
     58623     19541  TIP3      H2             54.6719633595       20.2242077139       14.3596003535  W2        19541           0.0000000000
     58624     19542  TIP3      OH2            41.8003533595       19.3215977139       12.6711903535  W2        19542           0.0000000000
     58625     19542  TIP3      H1             41.7819533595       18.8961077139       13.5284203535  W2        19542           0.0000000000
     58626     19542  TIP3      H2             42.6051433595       19.0030977139       12.2624103535  W2        19542           0.0000000000
     58627     19543  TIP3      OH2            43.9416633595       18.0314677139       11.3261803535  W2        19543           0.0000000000
     58628     19543  TIP3      H1             43.7227333595       17.1152077139       11.4957803535  W2        19543           0.0000000000
     58629     19543  TIP3      H2             44.7658833595       18.1715077139       11.7923203535  W2        19543           0.0000000000
     58630     19544  TIP3      OH2            46.4789133595       18.5013977139       12.1749803535  W2        19544           0.0000000000
     58631     19544  TIP3      H1             46.6914833595       17.6132977139       11.8880703535  W2        19544           0.0000000000
     58632     19544  TIP3      H2             46.5434233595       18.4671677139       13.1293803535  W2        19544           0.0000000000
     58633     19545  TIP3      OH2            49.9872833595        4.1654577139       11.3193103535  W2        19545           0.0000000000
     58634     19545  TIP3      H1             49.3129633595        3.5360177139       11.5748903535  W2        19545           0.0000000000
     58635     19545  TIP3      H2             50.5512033595        3.6813477139       10.7161003535  W2        19545           0.0000000000
     58636     19546  TIP3      OH2            42.3140333595        2.7994877139        9.1413003535  W2        19546           0.0000000000
     58637     19546  TIP3      H1             41.5370133595        2.5649777139        8.6338903535  W2        19546           0.0000000000
     58638     19546  TIP3      H2             42.8443933595        2.0026977139        9.1501003535  W2        19546           0.0000000000
     58639     19547  TIP3      OH2            41.1503733595        2.5972977139        4.9449103535  W2        19547           0.0000000000
     58640     19547  TIP3      H1             41.5894433595        3.2083477139        4.3532603535  W2        19547           0.0000000000
     58641     19547  TIP3      H2             40.5166133595        3.1357077139        5.4189103535  W2        19547           0.0000000000
     58642     19548  TIP3      OH2            46.8932933595        2.7261977139        8.9546103535  W2        19548           0.0000000000
     58643     19548  TIP3      H1             47.7676333595        3.1146277139        8.9250403535  W2        19548           0.0000000000
     58644     19548  TIP3      H2             46.7573733595        2.5109777139        9.8773303535  W2        19548           0.0000000000
     58645     19549  TIP3      OH2            52.4501333595        2.7561777139       10.6037803535  W2        19549           0.0000000000
     58646     19549  TIP3      H1             52.5262933595        2.8513377139        9.6543803535  W2        19549           0.0000000000
     58647     19549  TIP3      H2             52.1750533595        1.8484677139       10.7326903535  W2        19549           0.0000000000
     58648     19550  TIP3      OH2            53.8033933595        2.7819577139        6.2962803535  W2        19550           0.0000000000
     58649     19550  TIP3      H1             53.1005033595        3.3968777139        6.0864203535  W2        19550           0.0000000000
     58650     19550  TIP3      H2             53.3585333595        1.9446277139        6.4273703535  W2        19550           0.0000000000
     58651     19551  TIP3      OH2            41.0513233595       18.5455177139        5.8424203535  W2        19551           0.0000000000
     58652     19551  TIP3      H1             40.3663133595       18.5074077139        5.1749303535  W2        19551           0.0000000000
     58653     19551  TIP3      H2             41.0550433595       19.4582777139        6.1306303535  W2        19551           0.0000000000
     58654     19552  TIP3      OH2            43.0112833595        4.5134477139        3.3873203535  W2        19552           0.0000000000
     58655     19552  TIP3      H1             43.5026233595        3.8836877139        2.8598703535  W2        19552           0.0000000000
     58656     19552  TIP3      H2             43.6349133595        4.8093877139        4.0504403535  W2        19552           0.0000000000
     58657     19553  TIP3      OH2            48.0372933595        4.8065977139        5.8443703535  W2        19553           0.0000000000
     58658     19553  TIP3      H1             48.2154233595        4.1599177139        6.5272303535  W2        19553           0.0000000000
     58659     19553  TIP3      H2             47.9839133595        5.6403677139        6.3114803535  W2        19553           0.0000000000
     58660     19554  TIP3      OH2            49.9156733595       19.7550077139        4.2400403535  W2        19554           0.0000000000
     58661     19554  TIP3      H1             50.7816933595       20.1217477139        4.0618603535  W2        19554           0.0000000000
     58662     19554  TIP3      H2             49.6689533595       19.3158077139        3.4261203535  W2        19554           0.0000000000
     58663     19555  TIP3      OH2            42.2718333595        3.3136777139       18.6589203535  W2        19555           0.0000000000
     58664     19555  TIP3      H1             41.9056533595        2.5479377139       19.1013903535  W2        19555           0.0000000000
     58665     19555  TIP3      H2             43.1846833595        3.3426977139       18.9454303535  W2        19555           0.0000000000
     58666     19556  TIP3      OH2            44.2449133595        2.6641177139       20.1946303535  W2        19556           0.0000000000
     58667     19556  TIP3      H1             45.1432733595        2.3901377139       20.0099703535  W2        19556           0.0000000000
     58668     19556  TIP3      H2             43.8582233595        1.9217177139       20.6588903535  W2        19556           0.0000000000
     58669     19557  TIP3      OH2            42.8694433595       19.4655977139        2.8676303535  W2        19557           0.0000000000
     58670     19557  TIP3      H1             42.6019033595       19.7518877139        3.7409403535  W2        19557           0.0000000000
     58671     19557  TIP3      H2             43.6407033595       18.9195177139        3.0198803535  W2        19557           0.0000000000
     58672     19558  TIP3      OH2            52.6661433595        1.9966477139       20.3769103535  W2        19558           0.0000000000
     58673     19558  TIP3      H1             52.7428633595        1.5707177139       21.2306803535  W2        19558           0.0000000000
     58674     19558  TIP3      H2             53.5598033595        2.0101177139       20.0342603535  W2        19558           0.0000000000
     58675     19559  TIP3      OH2           -42.8877066405       30.8117177139        9.1000503535  W2        19559           0.0000000000
     58676     19559  TIP3      H1            -42.7985966405       31.7555377139        8.9677603535  W2        19559           0.0000000000
     58677     19559  TIP3      H2            -43.5259466405       30.5363577139        8.4419903535  W2        19559           0.0000000000
     58678     19560  TIP3      OH2           -43.9545766405       30.0667877139       12.5188703535  W2        19560           0.0000000000
     58679     19560  TIP3      H1            -43.9928266405       29.4204177139       13.2238303535  W2        19560           0.0000000000
     58680     19560  TIP3      H2            -44.2769266405       29.6002277139       11.7477403535  W2        19560           0.0000000000
     58681     19561  TIP3      OH2           -51.5860766405       29.6809977139       14.1118603535  W2        19561           0.0000000000
     58682     19561  TIP3      H1            -51.5448666405       29.0553277139       14.8351003535  W2        19561           0.0000000000
     58683     19561  TIP3      H2            -50.8833066405       30.3048577139       14.2939003535  W2        19561           0.0000000000
     58684     19562  TIP3      OH2           -40.2485566405       33.0058277139       10.8203803535  W2        19562           0.0000000000
     58685     19562  TIP3      H1            -40.6892866405       32.2854277139       11.2709403535  W2        19562           0.0000000000
     58686     19562  TIP3      H2            -40.2615866405       33.7265477139       11.4501503535  W2        19562           0.0000000000
     58687     19563  TIP3      OH2           -50.6627666405       34.1308877139       12.6467703535  W2        19563           0.0000000000
     58688     19563  TIP3      H1            -51.0322466405       33.3289377139       12.2772003535  W2        19563           0.0000000000
     58689     19563  TIP3      H2            -49.7216566405       33.9623777139       12.6931103535  W2        19563           0.0000000000
     58690     19564  TIP3      OH2           -54.0527166405       27.7911477139        8.0396503535  W2        19564           0.0000000000
     58691     19564  TIP3      H1            -54.5003766405       28.6370177139        8.0213003535  W2        19564           0.0000000000
     58692     19564  TIP3      H2            -54.6135966405       27.2115677139        7.5241603535  W2        19564           0.0000000000
     58693     19565  TIP3      OH2           -53.3421066405       29.9531077139       10.1654503535  W2        19565           0.0000000000
     58694     19565  TIP3      H1            -53.1287566405       29.1832677139       10.6927503535  W2        19565           0.0000000000
     58695     19565  TIP3      H2            -52.6043466405       30.0427777139        9.5622103535  W2        19565           0.0000000000
     58696     19566  TIP3      OH2           -43.1370066405       38.1099977139       11.0324203535  W2        19566           0.0000000000
     58697     19566  TIP3      H1            -42.5173666405       37.4334677139       10.7593403535  W2        19566           0.0000000000
     58698     19566  TIP3      H2            -43.3452666405       37.8920777139       11.9409103535  W2        19566           0.0000000000
     58699     19567  TIP3      OH2           -45.5651366405       32.4989277139       12.9249703535  W2        19567           0.0000000000
     58700     19567  TIP3      H1            -45.2613466405       31.8130677139       12.3303803535  W2        19567           0.0000000000
     58701     19567  TIP3      H2            -44.8437366405       32.6177977139       13.5427703535  W2        19567           0.0000000000
     58702     19568  TIP3      OH2           -36.9021566405       24.1004577139       13.7855903535  W2        19568           0.0000000000
     58703     19568  TIP3      H1            -36.8529366405       24.7105777139       14.5215003535  W2        19568           0.0000000000
     58704     19568  TIP3      H2            -36.4766466405       24.5615477139       13.0627003535  W2        19568           0.0000000000
     58705     19569  TIP3      OH2           -42.4244366405       26.8931677139       13.2524503535  W2        19569           0.0000000000
     58706     19569  TIP3      H1            -42.2818466405       25.9468677139       13.2726103535  W2        19569           0.0000000000
     58707     19569  TIP3      H2            -42.5305366405       27.1001477139       12.3239403535  W2        19569           0.0000000000
     58708     19570  TIP3      OH2           -49.2696066405       24.9948077139       10.5249303535  W2        19570           0.0000000000
     58709     19570  TIP3      H1            -49.2264966405       25.8546577139       10.1065603535  W2        19570           0.0000000000
     58710     19570  TIP3      H2            -49.7271966405       24.4422777139        9.8912503535  W2        19570           0.0000000000
     58711     19571  TIP3      OH2           -41.5473366405       25.1253677139        8.9257603535  W2        19571           0.0000000000
     58712     19571  TIP3      H1            -40.9009066405       24.7966877139        9.5505203535  W2        19571           0.0000000000
     58713     19571  TIP3      H2            -41.0373966405       25.6432677139        8.3029003535  W2        19571           0.0000000000
     58714     19572  TIP3      OH2           -52.6494566405       27.3913877139       11.2870703535  W2        19572           0.0000000000
     58715     19572  TIP3      H1            -51.9957966405       26.8415577139       11.7190803535  W2        19572           0.0000000000
     58716     19572  TIP3      H2            -52.6255266405       27.1172877139       10.3702703535  W2        19572           0.0000000000
     58717     19573  TIP3      OH2           -47.4930066405       28.9415177139       10.5022203535  W2        19573           0.0000000000
     58718     19573  TIP3      H1            -46.8769066405       28.4150577139       11.0116203535  W2        19573           0.0000000000
     58719     19573  TIP3      H2            -48.0791266405       28.3013877139       10.0985803535  W2        19573           0.0000000000
     58720     19574  TIP3      OH2           -36.5106966405       25.5783777139       16.0215703535  W2        19574           0.0000000000
     58721     19574  TIP3      H1            -37.1992366405       26.2364477139       15.9262303535  W2        19574           0.0000000000
     58722     19574  TIP3      H2            -36.4952366405       25.3811677139       16.9581103535  W2        19574           0.0000000000
     58723     19575  TIP3      OH2           -50.4594166405       23.9126477139       14.5990103535  W2        19575           0.0000000000
     58724     19575  TIP3      H1            -50.6782466405       24.4427077139       13.8326103535  W2        19575           0.0000000000
     58725     19575  TIP3      H2            -51.1273266405       24.1391977139       15.2461503535  W2        19575           0.0000000000
     58726     19576  TIP3      OH2           -43.0904366405       33.4127577139        8.1429203535  W2        19576           0.0000000000
     58727     19576  TIP3      H1            -43.3859266405       33.0899877139        7.2916103535  W2        19576           0.0000000000
     58728     19576  TIP3      H2            -43.4146566405       34.3124277139        8.1841803535  W2        19576           0.0000000000
     58729     19577  TIP3      OH2           -47.8902766405       31.5882177139       14.8863803535  W2        19577           0.0000000000
     58730     19577  TIP3      H1            -48.6303666405       32.1863677139       14.9899003535  W2        19577           0.0000000000
     58731     19577  TIP3      H2            -47.1763266405       32.1421777139       14.5707403535  W2        19577           0.0000000000
     58732     19578  TIP3      OH2           -39.7834966405       24.4162977139       10.9063503535  W2        19578           0.0000000000
     58733     19578  TIP3      H1            -39.9986966405       23.6506377139       11.4389503535  W2        19578           0.0000000000
     58734     19578  TIP3      H2            -39.1277566405       24.8887577139       11.4192003535  W2        19578           0.0000000000
     58735     19579  TIP3      OH2           -50.8656866405       25.8048277139       12.5512303535  W2        19579           0.0000000000
     58736     19579  TIP3      H1            -50.2520566405       26.4375877139       12.9244703535  W2        19579           0.0000000000
     58737     19579  TIP3      H2            -50.3536166405       25.3323277139       11.8949203535  W2        19579           0.0000000000
     58738     19580  TIP3      OH2           -49.4828466405       33.5525177139       15.6735303535  W2        19580           0.0000000000
     58739     19580  TIP3      H1            -49.4880866405       34.4318677139       15.2954603535  W2        19580           0.0000000000
     58740     19580  TIP3      H2            -50.3364366405       33.4689277139       16.0985203535  W2        19580           0.0000000000
     58741     19581  TIP3      OH2           -53.3617566405       33.2233077139        6.4554603535  W2        19581           0.0000000000
     58742     19581  TIP3      H1            -53.6336666405       33.4524077139        5.5667503535  W2        19581           0.0000000000
     58743     19581  TIP3      H2            -53.3161866405       34.0611877139        6.9159903535  W2        19581           0.0000000000
     58744     19582  TIP3      OH2           -39.7367866405       34.8448977139       13.1683103535  W2        19582           0.0000000000
     58745     19582  TIP3      H1            -40.6784166405       34.9032877139       13.3300003535  W2        19582           0.0000000000
     58746     19582  TIP3      H2            -39.4601766405       35.7509477139       13.0312803535  W2        19582           0.0000000000
     58747     19583  TIP3      OH2           -39.4360866405       23.1314277139       14.5857003535  W2        19583           0.0000000000
     58748     19583  TIP3      H1            -40.1721666405       23.7421377139       14.5478303535  W2        19583           0.0000000000
     58749     19583  TIP3      H2            -38.7526866405       23.5463277139       14.0593403535  W2        19583           0.0000000000
     58750     19584  TIP3      OH2           -46.4329466405       21.2181577139       12.0515003535  W2        19584           0.0000000000
     58751     19584  TIP3      H1            -46.5505266405       20.2697577139       11.9973303535  W2        19584           0.0000000000
     58752     19584  TIP3      H2            -47.2879366405       21.5507677139       12.3246103535  W2        19584           0.0000000000
     58753     19585  TIP3      OH2           -41.4846666405       36.6262477139        9.7934703535  W2        19585           0.0000000000
     58754     19585  TIP3      H1            -41.0594366405       35.9190377139        9.3084303535  W2        19585           0.0000000000
     58755     19585  TIP3      H2            -41.1676666405       37.4275177139        9.3766903535  W2        19585           0.0000000000
     58756     19586  TIP3      OH2           -40.3250166405       34.5270977139        8.3021303535  W2        19586           0.0000000000
     58757     19586  TIP3      H1            -40.5825366405       33.8371077139        7.6907203535  W2        19586           0.0000000000
     58758     19586  TIP3      H2            -40.2539366405       34.0842177139        9.1477203535  W2        19586           0.0000000000
     58759     19587  TIP3      OH2           -38.6389966405       33.0937677139       16.7794803535  W2        19587           0.0000000000
     58760     19587  TIP3      H1            -38.4993666405       32.5020177139       16.0401803535  W2        19587           0.0000000000
     58761     19587  TIP3      H2            -38.4717166405       33.9663577139       16.4233603535  W2        19587           0.0000000000
     58762     19588  TIP3      OH2           -44.1664566405       30.0557177139        6.5520803535  W2        19588           0.0000000000
     58763     19588  TIP3      H1            -44.8779066405       30.5906877139        6.2001303535  W2        19588           0.0000000000
     58764     19588  TIP3      H2            -43.4754966405       30.1109277139        5.8919703535  W2        19588           0.0000000000
     58765     19589  TIP3      OH2           -44.1125366405       28.5131477139        3.5905803535  W2        19589           0.0000000000
     58766     19589  TIP3      H1            -43.4115466405       28.5358377139        4.2419803535  W2        19589           0.0000000000
     58767     19589  TIP3      H2            -43.8102466405       27.8851177139        2.9345103535  W2        19589           0.0000000000
     58768     19590  TIP3      OH2           -36.7970666405       29.4335677139       14.8455203535  W2        19590           0.0000000000
     58769     19590  TIP3      H1            -37.4496566405       30.1281277139       14.9346103535  W2        19590           0.0000000000
     58770     19590  TIP3      H2            -36.3320366405       29.6436577139       14.0356803535  W2        19590           0.0000000000
     58771     19591  TIP3      OH2           -40.7606866405       30.2650477139        7.5036703535  W2        19591           0.0000000000
     58772     19591  TIP3      H1            -41.4925866405       30.4934177139        8.0767303535  W2        19591           0.0000000000
     58773     19591  TIP3      H2            -40.3134666405       29.5513177139        7.9584203535  W2        19591           0.0000000000
     58774     19592  TIP3      OH2           -40.8633366405       28.4393077139       16.5713703535  W2        19592           0.0000000000
     58775     19592  TIP3      H1            -40.7834266405       29.2027477139       17.1432203535  W2        19592           0.0000000000
     58776     19592  TIP3      H2            -41.4645666405       28.7185477139       15.8808803535  W2        19592           0.0000000000
     58777     19593  TIP3      OH2           -49.1153166405       30.8956677139        9.3861703535  W2        19593           0.0000000000
     58778     19593  TIP3      H1            -49.4457966405       30.5250077139        8.5678703535  W2        19593           0.0000000000
     58779     19593  TIP3      H2            -48.5269066405       30.2250677139        9.7330003535  W2        19593           0.0000000000
     58780     19594  TIP3      OH2           -47.7485666405       34.3237277139       12.0673903535  W2        19594           0.0000000000
     58781     19594  TIP3      H1            -47.8434366405       33.7450377139       11.3108503535  W2        19594           0.0000000000
     58782     19594  TIP3      H2            -47.0192066405       33.9522977139       12.5636703535  W2        19594           0.0000000000
     58783     19595  TIP3      OH2           -48.7487666405       29.6642277139       13.0196703535  W2        19595           0.0000000000
     58784     19595  TIP3      H1            -48.1835166405       29.7856477139       12.2567903535  W2        19595           0.0000000000
     58785     19595  TIP3      H2            -48.4298766405       30.3017277139       13.6585203535  W2        19595           0.0000000000
     58786     19596  TIP3      OH2           -42.4395466405       35.1674177139       13.7537203535  W2        19596           0.0000000000
     58787     19596  TIP3      H1            -42.6798866405       35.8297277139       14.4016403535  W2        19596           0.0000000000
     58788     19596  TIP3      H2            -42.6377266405       34.3329377139       14.1786803535  W2        19596           0.0000000000
     58789     19597  TIP3      OH2           -47.8686966405       34.0634977139       17.7368603535  W2        19597           0.0000000000
     58790     19597  TIP3      H1            -48.1799466405       34.8458177139       18.1921803535  W2        19597           0.0000000000
     58791     19597  TIP3      H2            -48.5186766405       33.9104077139       17.0510603535  W2        19597           0.0000000000
     58792     19598  TIP3      OH2           -41.8897366405       29.4273377139        5.1887903535  W2        19598           0.0000000000
     58793     19598  TIP3      H1            -41.3101866405       29.5773677139        5.9356803535  W2        19598           0.0000000000
     58794     19598  TIP3      H2            -41.4757366405       29.8980777139        4.4654303535  W2        19598           0.0000000000
     58795     19599  TIP3      OH2           -50.9487066405       30.2616077139       16.9654303535  W2        19599           0.0000000000
     58796     19599  TIP3      H1            -50.8783866405       30.9122877139       17.6639303535  W2        19599           0.0000000000
     58797     19599  TIP3      H2            -51.8394866405       30.3643577139       16.6305203535  W2        19599           0.0000000000
     58798     19600  TIP3      OH2           -44.1632466405       36.1641877139        8.6241003535  W2        19600           0.0000000000
     58799     19600  TIP3      H1            -43.6894866405       36.4598177139        9.4015203535  W2        19600           0.0000000000
     58800     19600  TIP3      H2            -44.7263166405       36.9023477139        8.3910603535  W2        19600           0.0000000000
     58801     19601  TIP3      OH2           -49.6291066405       36.1349977139       18.5002403535  W2        19601           0.0000000000
     58802     19601  TIP3      H1            -49.6215766405       35.9989677139       17.5527903535  W2        19601           0.0000000000
     58803     19601  TIP3      H2            -50.5450666405       36.0178077139       18.7522403535  W2        19601           0.0000000000
     58804     19602  TIP3      OH2           -38.1908966405       21.1773777139        5.0017603535  W2        19602           0.0000000000
     58805     19602  TIP3      H1            -39.0908266405       21.3162777139        5.2968203535  W2        19602           0.0000000000
     58806     19602  TIP3      H2            -37.9390566405       22.0088377139        4.5999303535  W2        19602           0.0000000000
     58807     19603  TIP3      OH2           -50.1250466405       29.9650977139        6.9754503535  W2        19603           0.0000000000
     58808     19603  TIP3      H1            -50.4169166405       30.7332677139        6.4845803535  W2        19603           0.0000000000
     58809     19603  TIP3      H2            -50.7995266405       29.3057177139        6.8125903535  W2        19603           0.0000000000
     58810     19604  TIP3      OH2           -37.0017566405       35.5436177139        3.3781503535  W2        19604           0.0000000000
     58811     19604  TIP3      H1            -36.9284066405       36.4826377139        3.5486803535  W2        19604           0.0000000000
     58812     19604  TIP3      H2            -36.0962466405       35.2384777139        3.3218803535  W2        19604           0.0000000000
     58813     19605  TIP3      OH2           -54.0320366405       32.3280177139       15.7904303535  W2        19605           0.0000000000
     58814     19605  TIP3      H1            -54.5331966405       32.2999577139       14.9754003535  W2        19605           0.0000000000
     58815     19605  TIP3      H2            -54.0266666405       31.4223377139       16.1001603535  W2        19605           0.0000000000
     58816     19606  TIP3      OH2           -54.2817666405       35.1083977139       12.6744503535  W2        19606           0.0000000000
     58817     19606  TIP3      H1            -53.3357066405       34.9640977139       12.6554003535  W2        19606           0.0000000000
     58818     19606  TIP3      H2            -54.3941366405       35.8926777139       13.2115703535  W2        19606           0.0000000000
     58819     19607  TIP3      OH2           -36.0839166405       35.7743677139       18.3568203535  W2        19607           0.0000000000
     58820     19607  TIP3      H1            -36.1332366405       34.8191777139       18.3195803535  W2        19607           0.0000000000
     58821     19607  TIP3      H2            -36.9106866405       36.0418977139       18.7582003535  W2        19607           0.0000000000
     58822     19608  TIP3      OH2           -45.1055166405       35.3482877139       17.2329603535  W2        19608           0.0000000000
     58823     19608  TIP3      H1            -45.0180566405       36.1747477139       17.7078703535  W2        19608           0.0000000000
     58824     19608  TIP3      H2            -45.9690066405       35.0186677139       17.4818903535  W2        19608           0.0000000000
     58825     19609  TIP3      OH2           -44.6909366405       39.1206577139        7.0390203535  W2        19609           0.0000000000
     58826     19609  TIP3      H1            -44.7663366405       38.9993777139        6.0925403535  W2        19609           0.0000000000
     58827     19609  TIP3      H2            -44.6580666405       40.0699277139        7.1574803535  W2        19609           0.0000000000
     58828     19610  TIP3      OH2           -51.0375566405       37.9093577139        8.8199203535  W2        19610           0.0000000000
     58829     19610  TIP3      H1            -50.8855166405       37.5613977139        9.6985703535  W2        19610           0.0000000000
     58830     19610  TIP3      H2            -51.8885166405       37.5530877139        8.5646403535  W2        19610           0.0000000000
     58831     19611  TIP3      OH2           -41.5893366405       38.2746777139        4.0412603535  W2        19611           0.0000000000
     58832     19611  TIP3      H1            -41.2144966405       37.5302877139        3.5705203535  W2        19611           0.0000000000
     58833     19611  TIP3      H2            -41.5849666405       38.0047377139        4.9595903535  W2        19611           0.0000000000
     58834     19612  TIP3      OH2           -41.9205266405       38.2003877139        6.7904803535  W2        19612           0.0000000000
     58835     19612  TIP3      H1            -42.8555466405       38.3005777139        6.9691803535  W2        19612           0.0000000000
     58836     19612  TIP3      H2            -41.6403366405       37.4909877139        7.3688003535  W2        19612           0.0000000000
     58837     19613  TIP3      OH2           -38.9319366405       27.2676177139       18.8370403535  W2        19613           0.0000000000
     58838     19613  TIP3      H1            -39.3392566405       27.7481777139       18.1163703535  W2        19613           0.0000000000
     58839     19613  TIP3      H2            -38.8913666405       26.3622177139       18.5291203535  W2        19613           0.0000000000
     58840     19614  TIP3      OH2           -51.7829866405       33.6515577139       16.8337103535  W2        19614           0.0000000000
     58841     19614  TIP3      H1            -51.5668566405       33.2901177139       17.6932903535  W2        19614           0.0000000000
     58842     19614  TIP3      H2            -52.6385166405       33.2769377139       16.6240603535  W2        19614           0.0000000000
     58843     19615  TIP3      OH2           -49.1641866405       22.1216077139       12.8291303535  W2        19615           0.0000000000
     58844     19615  TIP3      H1            -50.0258166405       22.0344277139       12.4214203535  W2        19615           0.0000000000
     58845     19615  TIP3      H2            -49.1866166405       22.9776177139       13.2568903535  W2        19615           0.0000000000
     58846     19616  TIP3      OH2           -44.5014066405       21.8436477139       16.2038303535  W2        19616           0.0000000000
     58847     19616  TIP3      H1            -44.0810966405       21.4283577139       16.9568903535  W2        19616           0.0000000000
     58848     19616  TIP3      H2            -45.4344466405       21.6649777139       16.3210303535  W2        19616           0.0000000000
     58849     19617  TIP3      OH2           -41.1749166405       25.5991677139       17.0572803535  W2        19617           0.0000000000
     58850     19617  TIP3      H1            -41.6889666405       25.4733877139       17.8548803535  W2        19617           0.0000000000
     58851     19617  TIP3      H2            -41.3304466405       26.5114777139       16.8129003535  W2        19617           0.0000000000
     58852     19618  TIP3      OH2           -40.4124266405       30.4601677139        2.8185803535  W2        19618           0.0000000000
     58853     19618  TIP3      H1            -40.3703466405       30.2375577139        1.8885803535  W2        19618           0.0000000000
     58854     19618  TIP3      H2            -39.5632166405       30.8588777139        3.0085703535  W2        19618           0.0000000000
     58855     19619  TIP3      OH2           -44.8396766405       24.3359877139        3.4889103535  W2        19619           0.0000000000
     58856     19619  TIP3      H1            -45.0931966405       24.3551477139        4.4117203535  W2        19619           0.0000000000
     58857     19619  TIP3      H2            -45.0964666405       23.4645277139        3.1875303535  W2        19619           0.0000000000
     58858     19620  TIP3      OH2           -49.0731766405       27.0870577139       13.9241503535  W2        19620           0.0000000000
     58859     19620  TIP3      H1            -49.7149666405       27.0467877139       14.6331603535  W2        19620           0.0000000000
     58860     19620  TIP3      H2            -49.0359766405       28.0135277139       13.6864503535  W2        19620           0.0000000000
     58861     19621  TIP3      OH2           -49.0762666405       27.3080677139        8.8361503535  W2        19621           0.0000000000
     58862     19621  TIP3      H1            -49.9689766405       26.9676777139        8.7775303535  W2        19621           0.0000000000
     58863     19621  TIP3      H2            -48.6256066405       26.9311577139        8.0804703535  W2        19621           0.0000000000
     58864     19622  TIP3      OH2           -43.5407166405       27.7240977139        7.6532303535  W2        19622           0.0000000000
     58865     19622  TIP3      H1            -43.9496866405       28.5389577139        7.3617103535  W2        19622           0.0000000000
     58866     19622  TIP3      H2            -42.8200966405       27.5841077139        7.0389403535  W2        19622           0.0000000000
     58867     19623  TIP3      OH2           -44.4385566405       27.8997377139       19.1413003535  W2        19623           0.0000000000
     58868     19623  TIP3      H1            -45.0011766405       27.1948977139       19.4620803535  W2        19623           0.0000000000
     58869     19623  TIP3      H2            -43.6122166405       27.7789277139       19.6090603535  W2        19623           0.0000000000
     58870     19624  TIP3      OH2           -42.5359466405       27.1701377139       10.4672003535  W2        19624           0.0000000000
     58871     19624  TIP3      H1            -42.7314966405       27.7758177139        9.7522603535  W2        19624           0.0000000000
     58872     19624  TIP3      H2            -42.3546866405       26.3366577139       10.0328303535  W2        19624           0.0000000000
     58873     19625  TIP3      OH2           -51.3231266405       27.4074077139       15.7913503535  W2        19625           0.0000000000
     58874     19625  TIP3      H1            -51.3611866405       27.8075677139       16.6600603535  W2        19625           0.0000000000
     58875     19625  TIP3      H2            -51.8140166405       26.5906477139       15.8816403535  W2        19625           0.0000000000
     58876     19626  TIP3      OH2           -47.9573866405       24.7816377139        2.5899503535  W2        19626           0.0000000000
     58877     19626  TIP3      H1            -48.3883166405       24.3366477139        3.3196903535  W2        19626           0.0000000000
     58878     19626  TIP3      H2            -48.6755166405       25.1532677139        2.0777003535  W2        19626           0.0000000000
     58879     19627  TIP3      OH2           -54.7150466405       24.5235877139        9.6418203535  W2        19627           0.0000000000
     58880     19627  TIP3      H1            -54.0842766405       24.4947977139       10.3612103535  W2        19627           0.0000000000
     58881     19627  TIP3      H2            -54.2656166405       24.0984577139        8.9114103535  W2        19627           0.0000000000
     58882     19628  TIP3      OH2           -53.4408366405       25.2697877139        5.0658603535  W2        19628           0.0000000000
     58883     19628  TIP3      H1            -52.9666666405       25.8607777139        4.4809503535  W2        19628           0.0000000000
     58884     19628  TIP3      H2            -54.1581966405       25.8000777139        5.4128703535  W2        19628           0.0000000000
     58885     19629  TIP3      OH2           -43.2720266405       28.8082677139       15.1384403535  W2        19629           0.0000000000
     58886     19629  TIP3      H1            -42.9485466405       28.1772377139       14.4954903535  W2        19629           0.0000000000
     58887     19629  TIP3      H2            -43.7120966405       28.2734877139       15.7991803535  W2        19629           0.0000000000
     58888     19630  TIP3      OH2           -46.4947366405       24.7358177139        9.9225603535  W2        19630           0.0000000000
     58889     19630  TIP3      H1            -47.4056266405       24.7924977139       10.2111603535  W2        19630           0.0000000000
     58890     19630  TIP3      H2            -45.9894466405       24.6753677139       10.7332803535  W2        19630           0.0000000000
     58891     19631  TIP3      OH2           -51.6663966405       26.3644477139        8.7493203535  W2        19631           0.0000000000
     58892     19631  TIP3      H1            -52.5555966405       26.4639977139        8.4092803535  W2        19631           0.0000000000
     58893     19631  TIP3      H2            -51.3699066405       25.5227477139        8.4031103535  W2        19631           0.0000000000
     58894     19632  TIP3      OH2           -48.0132166405       26.3647077139        6.4057803535  W2        19632           0.0000000000
     58895     19632  TIP3      H1            -47.0816666405       26.4937077139        6.5840903535  W2        19632           0.0000000000
     58896     19632  TIP3      H2            -48.2281866405       27.0341377139        5.7562503535  W2        19632           0.0000000000
     58897     19633  TIP3      OH2           -42.0895466405       23.9704477139       13.1867403535  W2        19633           0.0000000000
     58898     19633  TIP3      H1            -42.7663866405       24.1017577139       13.8507103535  W2        19633           0.0000000000
     58899     19633  TIP3      H2            -42.5750566405       23.8153977139       12.3765103535  W2        19633           0.0000000000
     58900     19634  TIP3      OH2           -49.3391966405       27.5589277139        3.9723903535  W2        19634           0.0000000000
     58901     19634  TIP3      H1            -49.8816866405       27.1793077139        3.2811503535  W2        19634           0.0000000000
     58902     19634  TIP3      H2            -48.5057066405       27.7533977139        3.5438003535  W2        19634           0.0000000000
     58903     19635  TIP3      OH2           -38.8020366405       39.6419877139       19.4635003535  W2        19635           0.0000000000
     58904     19635  TIP3      H1            -38.6021666405       40.0661777139       18.6290303535  W2        19635           0.0000000000
     58905     19635  TIP3      H2            -38.1466666405       39.9858077139       20.0705403535  W2        19635           0.0000000000
     58906     19636  TIP3      OH2           -51.2040566405       32.1161177139       19.0715503535  W2        19636           0.0000000000
     58907     19636  TIP3      H1            -50.4718166405       32.3707077139       19.6330003535  W2        19636           0.0000000000
     58908     19636  TIP3      H2            -51.9841866405       32.3206577139       19.5870903535  W2        19636           0.0000000000
     58909     19637  TIP3      OH2           -45.1747666405       27.5231177139       11.8095203535  W2        19637           0.0000000000
     58910     19637  TIP3      H1            -44.6104266405       26.9767777139       11.2624803535  W2        19637           0.0000000000
     58911     19637  TIP3      H2            -45.3224266405       27.0013077139       12.5982803535  W2        19637           0.0000000000
     58912     19638  TIP3      OH2           -50.1727966405       23.6597277139        8.2280003535  W2        19638           0.0000000000
     58913     19638  TIP3      H1            -50.4898466405       22.7572577139        8.1925403535  W2        19638           0.0000000000
     58914     19638  TIP3      H2            -49.3913866405       23.6614677139        7.6751603535  W2        19638           0.0000000000
     58915     19639  TIP3      OH2           -46.5481766405       25.9117277139       14.2235603535  W2        19639           0.0000000000
     58916     19639  TIP3      H1            -47.3836466405       26.3656777139       14.3338003535  W2        19639           0.0000000000
     58917     19639  TIP3      H2            -46.0241166405       26.1875777139       14.9755503535  W2        19639           0.0000000000
     58918     19640  TIP3      OH2           -46.0039166405       32.1244977139        5.9082003535  W2        19640           0.0000000000
     58919     19640  TIP3      H1            -46.7488166405       31.6170277139        5.5859903535  W2        19640           0.0000000000
     58920     19640  TIP3      H2            -46.1381966405       32.1732977139        6.8546803535  W2        19640           0.0000000000
     58921     19641  TIP3      OH2           -38.8540266405       31.2573177139       14.6949603535  W2        19641           0.0000000000
     58922     19641  TIP3      H1            -38.2121466405       31.7139477139       14.1511803535  W2        19641           0.0000000000
     58923     19641  TIP3      H2            -39.6843366405       31.3705577139       14.2323703535  W2        19641           0.0000000000
     58924     19642  TIP3      OH2           -42.1062366405       24.9384877139        4.1074603535  W2        19642           0.0000000000
     58925     19642  TIP3      H1            -43.0448166405       25.0500477139        3.9563403535  W2        19642           0.0000000000
     58926     19642  TIP3      H2            -41.8090266405       25.7951777139        4.4140303535  W2        19642           0.0000000000
     58927     19643  TIP3      OH2           -44.4847066405       32.3088277139       17.1451103535  W2        19643           0.0000000000
     58928     19643  TIP3      H1            -44.8300966405       31.9270677139       17.9520703535  W2        19643           0.0000000000
     58929     19643  TIP3      H2            -44.6846966405       33.2421877139       17.2164003535  W2        19643           0.0000000000
     58930     19644  TIP3      OH2           -41.3878866405       26.8057577139        5.7682003535  W2        19644           0.0000000000
     58931     19644  TIP3      H1            -40.4959866405       26.6682577139        6.0873203535  W2        19644           0.0000000000
     58932     19644  TIP3      H2            -41.3315266405       27.5963677139        5.2315503535  W2        19644           0.0000000000
     58933     19645  TIP3      OH2           -50.8790866405       31.4194977139       11.6779903535  W2        19645           0.0000000000
     58934     19645  TIP3      H1            -50.1343666405       31.4170677139       11.0766403535  W2        19645           0.0000000000
     58935     19645  TIP3      H2            -50.8014266405       30.5958777139       12.1595003535  W2        19645           0.0000000000
     58936     19646  TIP3      OH2           -43.8785066405       33.5829277139        4.9336603535  W2        19646           0.0000000000
     58937     19646  TIP3      H1            -44.1736666405       34.4097177139        5.3151403535  W2        19646           0.0000000000
     58938     19646  TIP3      H2            -44.5815066405       32.9636177139        5.1298003535  W2        19646           0.0000000000
     58939     19647  TIP3      OH2           -53.8711166405       29.8801877139       16.9928403535  W2        19647           0.0000000000
     58940     19647  TIP3      H1            -53.6482566405       29.4621477139       17.8245903535  W2        19647           0.0000000000
     58941     19647  TIP3      H2            -54.4731066405       29.2676877139       16.5701203535  W2        19647           0.0000000000
     58942     19648  TIP3      OH2           -46.8546266405       29.3971777139       19.2058103535  W2        19648           0.0000000000
     58943     19648  TIP3      H1            -47.1505466405       29.2314777139       18.3107203535  W2        19648           0.0000000000
     58944     19648  TIP3      H2            -45.9231066405       29.1772077139       19.1952003535  W2        19648           0.0000000000
     58945     19649  TIP3      OH2           -42.2343466405       34.7703777139       17.0956103535  W2        19649           0.0000000000
     58946     19649  TIP3      H1            -43.1349166405       34.9536377139       16.8280003535  W2        19649           0.0000000000
     58947     19649  TIP3      H2            -42.2002366405       35.0293077139       18.0164903535  W2        19649           0.0000000000
     58948     19650  TIP3      OH2           -36.5030166405       27.0151677139        5.4628703535  W2        19650           0.0000000000
     58949     19650  TIP3      H1            -37.0573866405       26.6189677139        4.7906203535  W2        19650           0.0000000000
     58950     19650  TIP3      H2            -36.4026566405       27.9256877139        5.1852003535  W2        19650           0.0000000000
     58951     19651  TIP3      OH2           -36.5398166405       32.8153377139       18.3000203535  W2        19651           0.0000000000
     58952     19651  TIP3      H1            -37.3909666405       33.0537177139       17.9326603535  W2        19651           0.0000000000
     58953     19651  TIP3      H2            -35.9494766405       32.7986577139       17.5467303535  W2        19651           0.0000000000
     58954     19652  TIP3      OH2           -38.2078466405       35.8012077139        5.9280803535  W2        19652           0.0000000000
     58955     19652  TIP3      H1            -38.5807366405       34.9755877139        6.2371403535  W2        19652           0.0000000000
     58956     19652  TIP3      H2            -37.9304966405       35.6181477139        5.0304203535  W2        19652           0.0000000000
     58957     19653  TIP3      OH2           -41.0474566405       30.6091577139       12.9492703535  W2        19653           0.0000000000
     58958     19653  TIP3      H1            -41.9757666405       30.3773477139       12.9222003535  W2        19653           0.0000000000
     58959     19653  TIP3      H2            -40.5963466405       29.8321377139       12.6191503535  W2        19653           0.0000000000
     58960     19654  TIP3      OH2           -48.5041466405       34.9373177139        9.0821403535  W2        19654           0.0000000000
     58961     19654  TIP3      H1            -47.9769266405       35.7107577139        8.8820203535  W2        19654           0.0000000000
     58962     19654  TIP3      H2            -49.3842966405       35.1622377139        8.7805403535  W2        19654           0.0000000000
     58963     19655  TIP3      OH2           -52.7493766405       29.7997277139        3.6693803535  W2        19655           0.0000000000
     58964     19655  TIP3      H1            -52.1333866405       30.4264477139        4.0488603535  W2        19655           0.0000000000
     58965     19655  TIP3      H2            -53.6111166405       30.1157077139        3.9410303535  W2        19655           0.0000000000
     58966     19656  TIP3      OH2           -47.0769166405       32.6003077139        8.6585703535  W2        19656           0.0000000000
     58967     19656  TIP3      H1            -47.3179166405       33.5257477139        8.7001003535  W2        19656           0.0000000000
     58968     19656  TIP3      H2            -47.8175566405       32.1414377139        9.0549603535  W2        19656           0.0000000000
     58969     19657  TIP3      OH2           -46.5622566405       36.7496677139       14.9736803535  W2        19657           0.0000000000
     58970     19657  TIP3      H1            -46.1997866405       37.6042277139       14.7401203535  W2        19657           0.0000000000
     58971     19657  TIP3      H2            -46.0307366405       36.4578277139       15.7143103535  W2        19657           0.0000000000
     58972     19658  TIP3      OH2           -48.3938366405       37.6220677139        8.2037903535  W2        19658           0.0000000000
     58973     19658  TIP3      H1            -49.3437866405       37.7278077139        8.2551203535  W2        19658           0.0000000000
     58974     19658  TIP3      H2            -48.0420266405       38.4428077139        8.5485403535  W2        19658           0.0000000000
     58975     19659  TIP3      OH2           -43.0181766405       32.8487377139       14.6742403535  W2        19659           0.0000000000
     58976     19659  TIP3      H1            -43.4440466405       32.6209077139       15.5006403535  W2        19659           0.0000000000
     58977     19659  TIP3      H2            -42.4375966405       32.1099177139       14.4917703535  W2        19659           0.0000000000
     58978     19660  TIP3      OH2           -40.8152866405       33.7777877139        3.7481403535  W2        19660           0.0000000000
     58979     19660  TIP3      H1            -40.4619766405       33.3977677139        4.5524903535  W2        19660           0.0000000000
     58980     19660  TIP3      H2            -41.7639366405       33.6842677139        3.8350703535  W2        19660           0.0000000000
     58981     19661  TIP3      OH2           -40.3597566405       37.4006877139       17.1437203535  W2        19661           0.0000000000
     58982     19661  TIP3      H1            -40.9614366405       36.8449777139       16.6483503535  W2        19661           0.0000000000
     58983     19661  TIP3      H2            -40.0783866405       38.0676677139       16.5174603535  W2        19661           0.0000000000
     58984     19662  TIP3      OH2           -36.3118466405       38.2570377139        3.9491603535  W2        19662           0.0000000000
     58985     19662  TIP3      H1            -35.5680566405       38.8430877139        3.8093203535  W2        19662           0.0000000000
     58986     19662  TIP3      H2            -37.0060366405       38.8256177139        4.2824003535  W2        19662           0.0000000000
     58987     19663  TIP3      OH2           -52.2371666405       24.6334577139       16.5509803535  W2        19663           0.0000000000
     58988     19663  TIP3      H1            -53.1299366405       24.9719977139       16.4833803535  W2        19663           0.0000000000
     58989     19663  TIP3      H2            -52.3358866405       23.7780677139       16.9690603535  W2        19663           0.0000000000
     58990     19664  TIP3      OH2           -39.9493566405       32.4499877139        5.9749303535  W2        19664           0.0000000000
     58991     19664  TIP3      H1            -40.2265966405       31.7219177139        6.5310403535  W2        19664           0.0000000000
     58992     19664  TIP3      H2            -39.0220566405       32.5691877139        6.1801903535  W2        19664           0.0000000000
     58993     19665  TIP3      OH2           -52.5859666405       36.4378977139       14.9859203535  W2        19665           0.0000000000
     58994     19665  TIP3      H1            -52.3689366405       35.5061377139       14.9548903535  W2        19665           0.0000000000
     58995     19665  TIP3      H2            -52.3396166405       36.7123977139       15.8692003535  W2        19665           0.0000000000
     58996     19666  TIP3      OH2           -46.7245066405       34.8893977139        2.1951403535  W2        19666           0.0000000000
     58997     19666  TIP3      H1            -46.4855266405       34.1412077139        1.6480303535  W2        19666           0.0000000000
     58998     19666  TIP3      H2            -46.9933766405       34.5015677139        3.0279203535  W2        19666           0.0000000000
     58999     19667  TIP3      OH2           -47.7874466405       34.4597777139        4.6514003535  W2        19667           0.0000000000
     59000     19667  TIP3      H1            -47.6406466405       33.9397577139        5.4414903535  W2        19667           0.0000000000
     59001     19667  TIP3      H2            -47.7902766405       35.3665377139        4.9579903535  W2        19667           0.0000000000
     59002     19668  TIP3      OH2           -51.3343366405       31.7121077139        5.1619403535  W2        19668           0.0000000000
     59003     19668  TIP3      H1            -52.0204066405       32.0643577139        5.7289103535  W2        19668           0.0000000000
     59004     19668  TIP3      H2            -50.8115466405       32.4750677139        4.9153703535  W2        19668           0.0000000000
     59005     19669  TIP3      OH2           -43.5028266405       24.3744877139       15.4408403535  W2        19669           0.0000000000
     59006     19669  TIP3      H1            -42.8040366405       24.4483577139       16.0908103535  W2        19669           0.0000000000
     59007     19669  TIP3      H2            -43.8836866405       23.5099877139       15.5951303535  W2        19669           0.0000000000
     59008     19670  TIP3      OH2           -42.7183366405       24.0266577139        6.5380703535  W2        19670           0.0000000000
     59009     19670  TIP3      H1            -42.4985066405       24.4981977139        5.7346103535  W2        19670           0.0000000000
     59010     19670  TIP3      H2            -42.1599366405       24.4209177139        7.2081303535  W2        19670           0.0000000000
     59011     19671  TIP3      OH2           -45.0497266405       36.1571377139        5.4008203535  W2        19671           0.0000000000
     59012     19671  TIP3      H1            -45.8661166405       36.6541077139        5.4532503535  W2        19671           0.0000000000
     59013     19671  TIP3      H2            -44.5200966405       36.6324877139        4.7607003535  W2        19671           0.0000000000
     59014     19672  TIP3      OH2           -45.5183466405       25.7545377139        7.3729103535  W2        19672           0.0000000000
     59015     19672  TIP3      H1            -44.7060866405       26.2588577139        7.4190803535  W2        19672           0.0000000000
     59016     19672  TIP3      H2            -45.7630466405       25.6095077139        8.2868703535  W2        19672           0.0000000000
     59017     19673  TIP3      OH2           -44.9827066405       26.7408077139       16.5575703535  W2        19673           0.0000000000
     59018     19673  TIP3      H1            -44.8636766405       27.3143477139       17.3146103535  W2        19673           0.0000000000
     59019     19673  TIP3      H2            -44.3272466405       26.0527477139       16.6723503535  W2        19673           0.0000000000
     59020     19674  TIP3      OH2           -44.6346766405       22.8358377139        8.3110203535  W2        19674           0.0000000000
     59021     19674  TIP3      H1            -44.9813266405       23.4528977139        8.9554503535  W2        19674           0.0000000000
     59022     19674  TIP3      H2            -43.9759866405       23.3364077139        7.8295703535  W2        19674           0.0000000000
     59023     19675  TIP3      OH2           -47.7114166405       37.2008577139        5.3825103535  W2        19675           0.0000000000
     59024     19675  TIP3      H1            -47.5505466405       38.0006077139        4.8817703535  W2        19675           0.0000000000
     59025     19675  TIP3      H2            -47.9086366405       37.5074577139        6.2675703535  W2        19675           0.0000000000
     59026     19676  TIP3      OH2           -48.9769766405       23.8987777139        4.9982703535  W2        19676           0.0000000000
     59027     19676  TIP3      H1            -49.0604966405       24.7870877139        5.3449103535  W2        19676           0.0000000000
     59028     19676  TIP3      H2            -48.0869466405       23.6334477139        5.2299503535  W2        19676           0.0000000000
     59029     19677  TIP3      OH2           -38.7781266405       24.6478377139       17.3925403535  W2        19677           0.0000000000
     59030     19677  TIP3      H1            -39.6945466405       24.9100077139       17.3049103535  W2        19677           0.0000000000
     59031     19677  TIP3      H2            -38.4426266405       24.6447377139       16.4960703535  W2        19677           0.0000000000
     59032     19678  TIP3      OH2           -40.1760266405       28.3979377139       11.4882703535  W2        19678           0.0000000000
     59033     19678  TIP3      H1            -40.9735866405       27.9829577139       11.1597703535  W2        19678           0.0000000000
     59034     19678  TIP3      H2            -39.7309166405       27.7073077139       11.9793203535  W2        19678           0.0000000000
     59035     19679  TIP3      OH2           -50.7184466405       34.3259977139        4.0587203535  W2        19679           0.0000000000
     59036     19679  TIP3      H1            -50.1262966405       35.0254777139        4.3349603535  W2        19679           0.0000000000
     59037     19679  TIP3      H2            -50.2591466405       33.8929477139        3.3391803535  W2        19679           0.0000000000
     59038     19680  TIP3      OH2           -52.4025266405       26.9902977139        3.1746603535  W2        19680           0.0000000000
     59039     19680  TIP3      H1            -52.4472666405       27.9296077139        3.3533603535  W2        19680           0.0000000000
     59040     19680  TIP3      H2            -53.2902066405       26.7547877139        2.9048703535  W2        19680           0.0000000000
     59041     19681  TIP3      OH2           -39.0895666405       37.6541877139       13.1106203535  W2        19681           0.0000000000
     59042     19681  TIP3      H1            -39.2451366405       38.3326277139       12.4535503535  W2        19681           0.0000000000
     59043     19681  TIP3      H2            -38.1569266405       37.7261177139       13.3136803535  W2        19681           0.0000000000
     59044     19682  TIP3      OH2           -51.5943266405       21.7719577139       11.8477603535  W2        19682           0.0000000000
     59045     19682  TIP3      H1            -51.8233466405       21.8312077139       10.9202603535  W2        19682           0.0000000000
     59046     19682  TIP3      H2            -52.0369866405       20.9805077139       12.1541703535  W2        19682           0.0000000000
     59047     19683  TIP3      OH2           -52.6639966405       35.7126677139        8.0083403535  W2        19683           0.0000000000
     59048     19683  TIP3      H1            -53.4961366405       36.1849377139        8.0354803535  W2        19683           0.0000000000
     59049     19683  TIP3      H2            -52.1181666405       36.2224277139        7.4096503535  W2        19683           0.0000000000
     59050     19684  TIP3      OH2           -53.3756266405       38.3250377139       19.3381403535  W2        19684           0.0000000000
     59051     19684  TIP3      H1            -52.8354066405       38.1084377139       20.0980603535  W2        19684           0.0000000000
     59052     19684  TIP3      H2            -53.8568266405       37.5196377139       19.1483903535  W2        19684           0.0000000000
     59053     19685  TIP3      OH2           -48.7782866405       37.2444777139       20.9585603535  W2        19685           0.0000000000
     59054     19685  TIP3      H1            -48.0105666405       36.7855577139       21.2994803535  W2        19685           0.0000000000
     59055     19685  TIP3      H2            -48.7996666405       37.0184577139       20.0286803535  W2        19685           0.0000000000
     59056     19686  TIP3      OH2           -44.6863266405       36.7525377139        2.3337403535  W2        19686           0.0000000000
     59057     19686  TIP3      H1            -45.3302266405       36.1213977139        2.6551103535  W2        19686           0.0000000000
     59058     19686  TIP3      H2            -43.9244966405       36.2213377139        2.1020903535  W2        19686           0.0000000000
     59059     19687  TIP3      OH2           -42.2014166405       35.6245877139       19.6877103535  W2        19687           0.0000000000
     59060     19687  TIP3      H1            -42.5524666405       34.7678877139       19.9307503535  W2        19687           0.0000000000
     59061     19687  TIP3      H2            -41.4750966405       35.7672577139       20.2946103535  W2        19687           0.0000000000
     59062     19688  TIP3      OH2           -40.0820366405       36.5695277139        2.5675403535  W2        19688           0.0000000000
     59063     19688  TIP3      H1            -39.7989966405       35.7750477139        3.0202303535  W2        19688           0.0000000000
     59064     19688  TIP3      H2            -39.3422466405       36.8026277139        2.0066503535  W2        19688           0.0000000000
     59065     19689  TIP3      OH2           -53.4686766405       32.1354477139       20.2925703535  W2        19689           0.0000000000
     59066     19689  TIP3      H1            -53.3246266405       31.2335177139       20.0062403535  W2        19689           0.0000000000
     59067     19689  TIP3      H2            -54.2409366405       32.4216577139       19.8048003535  W2        19689           0.0000000000
     59068     19690  TIP3      OH2           -49.1273066405       32.4790177139        2.4250303535  W2        19690           0.0000000000
     59069     19690  TIP3      H1            -49.0628966405       31.6849777139        2.9556703535  W2        19690           0.0000000000
     59070     19690  TIP3      H2            -48.4743866405       32.3602977139        1.7352303535  W2        19690           0.0000000000
     59071     19691  TIP3      OH2           -46.8130666405       32.1052577139       19.7252103535  W2        19691           0.0000000000
     59072     19691  TIP3      H1            -47.1416866405       32.3760677139       18.8679503535  W2        19691           0.0000000000
     59073     19691  TIP3      H2            -46.6612466405       31.1642377139       19.6377103535  W2        19691           0.0000000000
     59074     19692  TIP3      OH2           -43.7749666405       33.5261877139        2.1608303535  W2        19692           0.0000000000
     59075     19692  TIP3      H1            -44.0435566405       33.7063977139        3.0617203535  W2        19692           0.0000000000
     59076     19692  TIP3      H2            -43.9814066405       32.6008077139        2.0294103535  W2        19692           0.0000000000
     59077     19693  TIP3      OH2           -41.0785466405       32.0209877139       17.1084403535  W2        19693           0.0000000000
     59078     19693  TIP3      H1            -40.3330666405       32.6093577139       16.9888403535  W2        19693           0.0000000000
     59079     19693  TIP3      H2            -41.8358666405       32.6029577139       17.1717503535  W2        19693           0.0000000000
     59080     19694  TIP3      OH2           -52.6360266405       29.3357777139       19.7125003535  W2        19694           0.0000000000
     59081     19694  TIP3      H1            -52.2279066405       28.4784377139       19.5915603535  W2        19694           0.0000000000
     59082     19694  TIP3      H2            -52.8962666405       29.3499077139       20.6335303535  W2        19694           0.0000000000
     59083     19695  TIP3      OH2           -47.9779266405       30.4516377139        4.7308303535  W2        19695           0.0000000000
     59084     19695  TIP3      H1            -48.4377266405       29.9674677139        5.4166803535  W2        19695           0.0000000000
     59085     19695  TIP3      H2            -47.7230566405       29.7831777139        4.0948803535  W2        19695           0.0000000000
     59086     19696  TIP3      OH2           -48.6889966405       28.3443477139       17.0867903535  W2        19696           0.0000000000
     59087     19696  TIP3      H1            -49.3073866405       29.0190077139       17.3672603535  W2        19696           0.0000000000
     59088     19696  TIP3      H2            -48.3448766405       28.6657377139       16.2534103535  W2        19696           0.0000000000
     59089     19697  TIP3      OH2           -46.9068866405       28.6948177139        2.9931503535  W2        19697           0.0000000000
     59090     19697  TIP3      H1            -47.0873866405       28.5399377139        2.0659803535  W2        19697           0.0000000000
     59091     19697  TIP3      H2            -45.9568366405       28.8026877139        3.0379403535  W2        19697           0.0000000000
     59092     19698  TIP3      OH2           -43.6691766405       30.8158777139       20.3642703535  W2        19698           0.0000000000
     59093     19698  TIP3      H1            -42.7160566405       30.8997877139       20.3368703535  W2        19698           0.0000000000
     59094     19698  TIP3      H2            -43.8297166405       30.1040577139       20.9837603535  W2        19698           0.0000000000
     59095     19699  TIP3      OH2           -37.5170566405       31.0492377139        2.4389603535  W2        19699           0.0000000000
     59096     19699  TIP3      H1            -37.7905766405       30.6247877139        1.6257903535  W2        19699           0.0000000000
     59097     19699  TIP3      H2            -37.4776466405       31.9806877139        2.2220003535  W2        19699           0.0000000000
     59098     19700  TIP3      OH2           -48.3496266405       25.6994277139       18.1691003535  W2        19700           0.0000000000
     59099     19700  TIP3      H1            -48.1995366405       24.9705577139       17.5670703535  W2        19700           0.0000000000
     59100     19700  TIP3      H2            -48.3473866405       26.4765977139       17.6103203535  W2        19700           0.0000000000
     59101     19701  TIP3      OH2           -47.9370566405       24.0690077139       15.6618403535  W2        19701           0.0000000000
     59102     19701  TIP3      H1            -47.4013066405       24.5206777139       15.0097703535  W2        19701           0.0000000000
     59103     19701  TIP3      H2            -48.7890966405       23.9609877139       15.2392503535  W2        19701           0.0000000000
     59104     19702  TIP3      OH2           -46.3552166405       29.5086277139       15.9013603535  W2        19702           0.0000000000
     59105     19702  TIP3      H1            -45.6047366405       29.3523777139       15.3281403535  W2        19702           0.0000000000
     59106     19702  TIP3      H2            -46.6943866405       30.3602877139       15.6259103535  W2        19702           0.0000000000
     59107     19703  TIP3      OH2           -41.9395966405       27.3238077139       20.9298903535  W2        19703           0.0000000000
     59108     19703  TIP3      H1            -41.7474666405       26.3927477139       20.8183403535  W2        19703           0.0000000000
     59109     19703  TIP3      H2            -41.0819666405       27.7487577139       20.9194303535  W2        19703           0.0000000000
     59110     19704  TIP3      OH2           -40.6228766405       30.1123277139       19.0071603535  W2        19704           0.0000000000
     59111     19704  TIP3      H1            -40.9043766405       30.8217877139       18.4295403535  W2        19704           0.0000000000
     59112     19704  TIP3      H2            -39.6804466405       30.0396277139       18.8562803535  W2        19704           0.0000000000
     59113     19705  TIP3      OH2           -49.8709966405       26.8977777139       20.0806603535  W2        19705           0.0000000000
     59114     19705  TIP3      H1            -50.6380966405       26.3652577139       19.8704203535  W2        19705           0.0000000000
     59115     19705  TIP3      H2            -49.1920966405       26.5878177139       19.4812903535  W2        19705           0.0000000000
     59116     19706  TIP3      OH2           -47.1315066405       21.5255777139       16.0932003535  W2        19706           0.0000000000
     59117     19706  TIP3      H1            -47.2295466405       22.4718977139       15.9878203535  W2        19706           0.0000000000
     59118     19706  TIP3      H2            -47.8738866405       21.1529577139       15.6175503535  W2        19706           0.0000000000
     59119     19707  TIP3      OH2           -45.8674566405       25.8471177139       19.6570403535  W2        19707           0.0000000000
     59120     19707  TIP3      H1            -46.1029166405       25.6277877139       20.5585303535  W2        19707           0.0000000000
     59121     19707  TIP3      H2            -46.6507666405       25.6402377139       19.1472903535  W2        19707           0.0000000000
     59122     19708  TIP3      OH2           -43.1517966405       24.9744677139       18.7323903535  W2        19708           0.0000000000
     59123     19708  TIP3      H1            -44.0992566405       25.0064377139       18.8647203535  W2        19708           0.0000000000
     59124     19708  TIP3      H2            -42.8391266405       24.3491777139       19.3862103535  W2        19708           0.0000000000
     59125     19709  TIP3      OH2           -41.5176466405       23.6085777139       20.7375803535  W2        19709           0.0000000000
     59126     19709  TIP3      H1            -41.6144666405       22.6563077139       20.7317703535  W2        19709           0.0000000000
     59127     19709  TIP3      H2            -41.8393366405       23.8772577139       21.5981303535  W2        19709           0.0000000000
     59128     19710  TIP3      OH2           -51.6907166405       24.8181577139       19.7851303535  W2        19710           0.0000000000
     59129     19710  TIP3      H1            -51.4789766405       24.1117677139       19.1748803535  W2        19710           0.0000000000
     59130     19710  TIP3      H2            -51.8019666405       24.3807577139       20.6292503535  W2        19710           0.0000000000
     59131     19711  TIP3      OH2           -46.9096966405       20.8193177139       18.7644803535  W2        19711           0.0000000000
     59132     19711  TIP3      H1            -46.1978566405       20.1795377139       18.7503903535  W2        19711           0.0000000000
     59133     19711  TIP3      H2            -47.0106566405       21.0861477139       17.8507903535  W2        19711           0.0000000000
     59134     19712  TIP3      OH2           -46.5559466405       22.5021577139       20.8181103535  W2        19712           0.0000000000
     59135     19712  TIP3      H1            -46.6877266405       22.0265377139       19.9979603535  W2        19712           0.0000000000
     59136     19712  TIP3      H2            -47.1552066405       23.2465177139       20.7628203535  W2        19712           0.0000000000
     59137     19713  TIP3      OH2           -47.0097166405       39.3851877139        3.9945103535  W2        19713           0.0000000000
     59138     19713  TIP3      H1            -46.0766466405       39.5430577139        4.1383503535  W2        19713           0.0000000000
     59139     19713  TIP3      H2            -47.2738366405       40.0604877139        3.3696603535  W2        19713           0.0000000000
     59140     19714  TIP3      OH2           -53.4412266405       34.0215677139        3.4773203535  W2        19714           0.0000000000
     59141     19714  TIP3      H1            -52.5273066405       34.1004577139        3.7507103535  W2        19714           0.0000000000
     59142     19714  TIP3      H2            -53.4339166405       33.3345277139        2.8108803535  W2        19714           0.0000000000
     59143     19715  TIP3      OH2           -54.7921666405       39.4144177139        8.5547103535  W2        19715           0.0000000000
     59144     19715  TIP3      H1            -55.4394566405       38.9525877139        8.0218303535  W2        19715           0.0000000000
     59145     19715  TIP3      H2            -54.4377066405       38.7427477139        9.1373303535  W2        19715           0.0000000000
     59146     19716  TIP3      OH2           -53.9222466405       37.4951177139       10.3593303535  W2        19716           0.0000000000
     59147     19716  TIP3      H1            -54.2565666405       36.6148477139       10.5313503535  W2        19716           0.0000000000
     59148     19716  TIP3      H2            -53.7000066405       37.8406177139       11.2238903535  W2        19716           0.0000000000
     59149     19717  TIP3      OH2           -36.3737666405       38.3047577139       13.3398103535  W2        19717           0.0000000000
     59150     19717  TIP3      H1            -36.3950966405       38.4895977139       14.2787503535  W2        19717           0.0000000000
     59151     19717  TIP3      H2            -35.6831466405       38.8731577139       12.9989503535  W2        19717           0.0000000000
     59152     19718  TIP3      OH2           -36.8104766405       37.8718677139       16.2617203535  W2        19718           0.0000000000
     59153     19718  TIP3      H1            -37.2976066405       37.1362777139       15.8904603535  W2        19718           0.0000000000
     59154     19718  TIP3      H2            -36.2612066405       37.4782577139       16.9396603535  W2        19718           0.0000000000
     59155     19719  TIP3      OH2           -38.3597466405       33.6616777139       20.8997503535  W2        19719           0.0000000000
     59156     19719  TIP3      H1            -39.2256366405       33.5566477139       21.2939803535  W2        19719           0.0000000000
     59157     19719  TIP3      H2            -37.9831566405       34.4200077139       21.3462203535  W2        19719           0.0000000000
     59158     19720  TIP3      OH2           -37.0587766405       31.9180477139        6.4140003535  W2        19720           0.0000000000
     59159     19720  TIP3      H1            -36.2086366405       32.3391377139        6.5411603535  W2        19720           0.0000000000
     59160     19720  TIP3      H2            -37.0532666405       31.1780577139        7.0211403535  W2        19720           0.0000000000
     59161     19721  TIP3      OH2           -36.6642166405       29.9717877139        8.2375703535  W2        19721           0.0000000000
     59162     19721  TIP3      H1            -37.3907566405       29.4920477139        8.6353303535  W2        19721           0.0000000000
     59163     19721  TIP3      H2            -36.0828866405       30.1772577139        8.9697303535  W2        19721           0.0000000000
     59164     19722  TIP3      OH2           -36.9050966405       32.7565377139       13.1853303535  W2        19722           0.0000000000
     59165     19722  TIP3      H1            -36.0716766405       32.3785377139       12.9046903535  W2        19722           0.0000000000
     59166     19722  TIP3      H2            -36.7930666405       33.6996577139       13.0662403535  W2        19722           0.0000000000
     59167     19723  TIP3      OH2           -38.4188666405       35.6342877139       15.4921703535  W2        19723           0.0000000000
     59168     19723  TIP3      H1            -39.0663366405       35.9594377139       16.1176903535  W2        19723           0.0000000000
     59169     19723  TIP3      H2            -38.9364666405       35.1940577139       14.8180003535  W2        19723           0.0000000000
     59170     19724  TIP3      OH2           -36.3959066405       29.8726377139        4.6287003535  W2        19724           0.0000000000
     59171     19724  TIP3      H1            -36.9177966405       30.2290477139        3.9097903535  W2        19724           0.0000000000
     59172     19724  TIP3      H2            -36.4289866405       30.5474177139        5.3067903535  W2        19724           0.0000000000
     59173     19725  TIP3      OH2           -38.0470066405       27.1121977139        3.1794103535  W2        19725           0.0000000000
     59174     19725  TIP3      H1            -37.9505666405       27.7788977139        2.4993803535  W2        19725           0.0000000000
     59175     19725  TIP3      H2            -38.1870466405       26.2968277139        2.6979603535  W2        19725           0.0000000000
     59176     19726  TIP3      OH2           -38.8775366405       28.4924377139        8.8004403535  W2        19726           0.0000000000
     59177     19726  TIP3      H1            -39.0276566405       27.5472977139        8.7802203535  W2        19726           0.0000000000
     59178     19726  TIP3      H2            -39.2310866405       28.7735777139        9.6443503535  W2        19726           0.0000000000
     59179     19727  TIP3      OH2           -53.8422966405       30.5706577139       12.8108203535  W2        19727           0.0000000000
     59180     19727  TIP3      H1            -53.6580066405       30.4888277139       11.8751103535  W2        19727           0.0000000000
     59181     19727  TIP3      H2            -52.9930066405       30.4463577139       13.2344603535  W2        19727           0.0000000000
     59182     19728  TIP3      OH2           -38.0212466405       30.4627677139       18.4392703535  W2        19728           0.0000000000
     59183     19728  TIP3      H1            -37.4385166405       29.7279977139       18.6309903535  W2        19728           0.0000000000
     59184     19728  TIP3      H2            -37.4573166405       31.2347977139       18.4858503535  W2        19728           0.0000000000
     59185     19729  TIP3      OH2           -36.5245366405       28.3653477139       19.1238103535  W2        19729           0.0000000000
     59186     19729  TIP3      H1            -37.3878666405       27.9865577139       18.9582803535  W2        19729           0.0000000000
     59187     19729  TIP3      H2            -35.9201666405       27.6268277139       19.0493903535  W2        19729           0.0000000000
     59188     19730  TIP3      OH2           -38.7996266405       24.5201777139        2.2969603535  W2        19730           0.0000000000
     59189     19730  TIP3      H1            -38.1890466405       24.1488577139        2.9337803535  W2        19730           0.0000000000
     59190     19730  TIP3      H2            -39.6364766405       24.0988677139        2.4929603535  W2        19730           0.0000000000
     59191     19731  TIP3      OH2           -39.1670566405       26.0750177139        7.2629503535  W2        19731           0.0000000000
     59192     19731  TIP3      H1            -38.8873466405       25.1680577139        7.3871203535  W2        19731           0.0000000000
     59193     19731  TIP3      H2            -38.4078866405       26.5091677139        6.8738703535  W2        19731           0.0000000000
     59194     19732  TIP3      OH2           -38.5552266405       26.6567577139       12.6988403535  W2        19732           0.0000000000
     59195     19732  TIP3      H1            -37.6224266405       26.8687477139       12.6644403535  W2        19732           0.0000000000
     59196     19732  TIP3      H2            -38.7904766405       26.7579677139       13.6211403535  W2        19732           0.0000000000
     59197     19733  TIP3      OH2           -38.5260366405       27.3932877139       15.4747803535  W2        19733           0.0000000000
     59198     19733  TIP3      H1            -39.3689066405       27.6613277139       15.8407603535  W2        19733           0.0000000000
     59199     19733  TIP3      H2            -38.0836066405       28.2154777139       15.2638903535  W2        19733           0.0000000000
     59200     19734  TIP3      OH2           -54.2448166405       25.8411577139       18.9517003535  W2        19734           0.0000000000
     59201     19734  TIP3      H1            -53.3253266405       25.7189877139       19.1880103535  W2        19734           0.0000000000
     59202     19734  TIP3      H2            -54.6943666405       25.0911277139       19.3410503535  W2        19734           0.0000000000
     59203     19735  TIP3      OH2           -36.2428766405       21.3733077139       20.8282803535  W2        19735           0.0000000000
     59204     19735  TIP3      H1            -35.8931766405       20.7196577139       20.2227503535  W2        19735           0.0000000000
     59205     19735  TIP3      H2            -36.0959266405       22.2107177139       20.3885403535  W2        19735           0.0000000000
     59206     19736  TIP3      OH2           -38.5535766405       23.3379477139        7.3111503535  W2        19736           0.0000000000
     59207     19736  TIP3      H1            -38.3710766405       22.8890977139        8.1366503535  W2        19736           0.0000000000
     59208     19736  TIP3      H2            -39.1532866405       22.7533877139        6.8476103535  W2        19736           0.0000000000
     59209     19737  TIP3      OH2           -53.0235666405       24.1533177139       11.8429903535  W2        19737           0.0000000000
     59210     19737  TIP3      H1            -52.5784066405       23.3615677139       12.1449603535  W2        19737           0.0000000000
     59211     19737  TIP3      H2            -52.5572666405       24.8698377139       12.2735503535  W2        19737           0.0000000000
     59212     19738  TIP3      OH2           -54.7195366405       27.1526177139       12.9120103535  W2        19738           0.0000000000
     59213     19738  TIP3      H1            -54.2275566405       26.9316677139       12.1212103535  W2        19738           0.0000000000
     59214     19738  TIP3      H2            -54.3574466405       27.9929577139       13.1929603535  W2        19738           0.0000000000
     59215     19739  TIP3      OH2           -36.7231566405       23.4827677139       19.1774103535  W2        19739           0.0000000000
     59216     19739  TIP3      H1            -37.6405866405       23.7534777139       19.1417603535  W2        19739           0.0000000000
     59217     19739  TIP3      H2            -36.6002166405       22.9476077139       18.3933803535  W2        19739           0.0000000000
     59218     19740  TIP3      OH2           -36.6869566405       23.4057577139        3.8391803535  W2        19740           0.0000000000
     59219     19740  TIP3      H1            -36.2746966405       22.6843277139        3.3639803535  W2        19740           0.0000000000
     59220     19740  TIP3      H2            -36.0053066405       24.0752177139        3.8976103535  W2        19740           0.0000000000
     59221     19741  TIP3      OH2           -54.4058866405       23.4105277139        6.9662503535  W2        19741           0.0000000000
     59222     19741  TIP3      H1            -55.3310466405       23.6191877139        6.8368003535  W2        19741           0.0000000000
     59223     19741  TIP3      H2            -53.9518966405       23.8946077139        6.2764803535  W2        19741           0.0000000000
     59224     19742  TIP3      OH2           -39.6351666405       38.3946977139        8.9119903535  W2        19742           0.0000000000
     59225     19742  TIP3      H1            -38.9828766405       38.0469077139        8.3039003535  W2        19742           0.0000000000
     59226     19742  TIP3      H2            -39.1247866405       38.8830177139        9.5579603535  W2        19742           0.0000000000
     59227     19743  TIP3      OH2           -54.4423466405       22.1484277139       15.3105003535  W2        19743           0.0000000000
     59228     19743  TIP3      H1            -55.1072966405       21.9024577139       15.9535903535  W2        19743           0.0000000000
     59229     19743  TIP3      H2            -54.8852166405       22.7704677139       14.7333003535  W2        19743           0.0000000000
     59230     19744  TIP3      OH2           -52.2504166405       35.3238377139       19.4550803535  W2        19744           0.0000000000
     59231     19744  TIP3      H1            -53.0711666405       35.4984877139       18.9945503535  W2        19744           0.0000000000
     59232     19744  TIP3      H2            -52.5026366405       35.2503077139       20.3755203535  W2        19744           0.0000000000
     59233     19745  TIP3      OH2           -49.2961266405       36.2979577139       15.7134803535  W2        19745           0.0000000000
     59234     19745  TIP3      H1            -49.7210166405       37.1078077139       15.4309403535  W2        19745           0.0000000000
     59235     19745  TIP3      H2            -48.3918466405       36.3833677139       15.4114603535  W2        19745           0.0000000000
     59236     19746  TIP3      OH2           -44.9849866405       37.6969577139       18.6728503535  W2        19746           0.0000000000
     59237     19746  TIP3      H1            -44.8002366405       37.3635677139       19.5508803535  W2        19746           0.0000000000
     59238     19746  TIP3      H2            -44.1385366405       38.0068177139       18.3507703535  W2        19746           0.0000000000
     59239     19747  TIP3      OH2           -42.6399466405       38.9828477139       17.9169903535  W2        19747           0.0000000000
     59240     19747  TIP3      H1            -41.9630566405       38.3500777139       17.6769103535  W2        19747           0.0000000000
     59241     19747  TIP3      H2            -42.3180666405       39.3838977139       18.7243203535  W2        19747           0.0000000000
     59242     19748  TIP3      OH2           -37.7225666405       21.5723977139       16.9964903535  W2        19748           0.0000000000
     59243     19748  TIP3      H1            -38.5352166405       21.8974277139       16.6089603535  W2        19748           0.0000000000
     59244     19748  TIP3      H2            -37.4897166405       20.8122477139       16.4634003535  W2        19748           0.0000000000
     59245     19749  TIP3      OH2           -51.8944566405       39.5543477139       15.7610103535  W2        19749           0.0000000000
     59246     19749  TIP3      H1            -52.6148166405       39.9944477139       15.3097803535  W2        19749           0.0000000000
     59247     19749  TIP3      H2            -52.2600566405       39.3038177139       16.6094103535  W2        19749           0.0000000000
     59248     19750  TIP3      OH2           -49.4271966405       39.1547377139       14.7907303535  W2        19750           0.0000000000
     59249     19750  TIP3      H1            -50.2919766405       39.2265877139       15.1947403535  W2        19750           0.0000000000
     59250     19750  TIP3      H2            -49.4822966405       39.7014677139       14.0069803535  W2        19750           0.0000000000
     59251     19751  TIP3      OH2           -44.7166366405       39.0426277139       13.9663303535  W2        19751           0.0000000000
     59252     19751  TIP3      H1            -45.1732366405       39.5715977139       13.3121703535  W2        19751           0.0000000000
     59253     19751  TIP3      H2            -44.5538366405       39.6457677139       14.6915603535  W2        19751           0.0000000000
     59254     19752  TIP3      OH2           -42.3890066405       37.9205877139       14.9113603535  W2        19752           0.0000000000
     59255     19752  TIP3      H1            -43.2936366405       38.0856077139       14.6455703535  W2        19752           0.0000000000
     59256     19752  TIP3      H2            -41.9601466405       38.7738077139       14.8457003535  W2        19752           0.0000000000
     59257     19753  TIP3      OH2           -39.7848166405       39.4904977139       15.2061403535  W2        19753           0.0000000000
     59258     19753  TIP3      H1            -39.9666166405       40.4063877139       14.9956303535  W2        19753           0.0000000000
     59259     19753  TIP3      H2            -39.6080366405       39.0802077139       14.3596003535  W2        19753           0.0000000000
     59260     19754  TIP3      OH2           -52.4796466405       38.1775977139       12.6711903535  W2        19754           0.0000000000
     59261     19754  TIP3      H1            -52.4980466405       37.7521077139       13.5284203535  W2        19754           0.0000000000
     59262     19754  TIP3      H2            -51.6748566405       37.8590977139       12.2624103535  W2        19754           0.0000000000
     59263     19755  TIP3      OH2           -50.3383366405       36.8874677139       11.3261803535  W2        19755           0.0000000000
     59264     19755  TIP3      H1            -50.5572666405       35.9712077139       11.4957803535  W2        19755           0.0000000000
     59265     19755  TIP3      H2            -49.5141166405       37.0275077139       11.7923203535  W2        19755           0.0000000000
     59266     19756  TIP3      OH2           -47.8010866405       37.3573977139       12.1749803535  W2        19756           0.0000000000
     59267     19756  TIP3      H1            -47.5885166405       36.4692977139       11.8880703535  W2        19756           0.0000000000
     59268     19756  TIP3      H2            -47.7365766405       37.3231677139       13.1293803535  W2        19756           0.0000000000
     59269     19757  TIP3      OH2           -44.2927166405       23.0214577139       11.3193103535  W2        19757           0.0000000000
     59270     19757  TIP3      H1            -44.9670366405       22.3920177139       11.5748903535  W2        19757           0.0000000000
     59271     19757  TIP3      H2            -43.7287966405       22.5373477139       10.7161003535  W2        19757           0.0000000000
     59272     19758  TIP3      OH2           -39.1499966405       21.1288577139       11.4320203535  W2        19758           0.0000000000
     59273     19758  TIP3      H1            -38.5462366405       21.6763977139       10.9301203535  W2        19758           0.0000000000
     59274     19758  TIP3      H2            -40.0197966405       21.4478977139       11.1914303535  W2        19758           0.0000000000
     59275     19759  TIP3      OH2           -37.4229566405       22.2677277139        9.7651103535  W2        19759           0.0000000000
     59276     19759  TIP3      H1            -36.8112066405       21.7532977139        9.2384703535  W2        19759           0.0000000000
     59277     19759  TIP3      H2            -37.0406166405       23.1449377139        9.7885503535  W2        19759           0.0000000000
     59278     19760  TIP3      OH2           -51.9659666405       21.6554877139        9.1413003535  W2        19760           0.0000000000
     59279     19760  TIP3      H1            -52.7429866405       21.4209777139        8.6338903535  W2        19760           0.0000000000
     59280     19760  TIP3      H2            -51.4356066405       20.8586977139        9.1501003535  W2        19760           0.0000000000
     59281     19761  TIP3      OH2           -53.1296266405       21.4532977139        4.9449103535  W2        19761           0.0000000000
     59282     19761  TIP3      H1            -52.6905566405       22.0643477139        4.3532603535  W2        19761           0.0000000000
     59283     19761  TIP3      H2            -53.7633866405       21.9917077139        5.4189103535  W2        19761           0.0000000000
     59284     19762  TIP3      OH2           -47.3867066405       21.5821977139        8.9546103535  W2        19762           0.0000000000
     59285     19762  TIP3      H1            -46.5123666405       21.9706277139        8.9250403535  W2        19762           0.0000000000
     59286     19762  TIP3      H2            -47.5226266405       21.3669777139        9.8773303535  W2        19762           0.0000000000
     59287     19763  TIP3      OH2           -41.8298666405       21.6121777139       10.6037803535  W2        19763           0.0000000000
     59288     19763  TIP3      H1            -41.7537066405       21.7073377139        9.6543803535  W2        19763           0.0000000000
     59289     19763  TIP3      H2            -42.1049466405       20.7044677139       10.7326903535  W2        19763           0.0000000000
     59290     19764  TIP3      OH2           -40.4766066405       21.6379577139        6.2962803535  W2        19764           0.0000000000
     59291     19764  TIP3      H1            -41.1794966405       22.2528777139        6.0864203535  W2        19764           0.0000000000
     59292     19764  TIP3      H2            -40.9214666405       20.8006277139        6.4273703535  W2        19764           0.0000000000
     59293     19765  TIP3      OH2           -53.2286766405       37.4015177139        5.8424203535  W2        19765           0.0000000000
     59294     19765  TIP3      H1            -53.9136866405       37.3634077139        5.1749303535  W2        19765           0.0000000000
     59295     19765  TIP3      H2            -53.2249566405       38.3142777139        6.1306303535  W2        19765           0.0000000000
     59296     19766  TIP3      OH2           -51.2687166405       23.3694477139        3.3873203535  W2        19766           0.0000000000
     59297     19766  TIP3      H1            -50.7773766405       22.7396877139        2.8598703535  W2        19766           0.0000000000
     59298     19766  TIP3      H2            -50.6450866405       23.6653877139        4.0504403535  W2        19766           0.0000000000
     59299     19767  TIP3      OH2           -46.2427066405       23.6625977139        5.8443703535  W2        19767           0.0000000000
     59300     19767  TIP3      H1            -46.0645766405       23.0159177139        6.5272303535  W2        19767           0.0000000000
     59301     19767  TIP3      H2            -46.2960866405       24.4963677139        6.3114803535  W2        19767           0.0000000000
     59302     19768  TIP3      OH2           -44.3643266405       38.6110077139        4.2400403535  W2        19768           0.0000000000
     59303     19768  TIP3      H1            -43.4983066405       38.9777477139        4.0618603535  W2        19768           0.0000000000
     59304     19768  TIP3      H2            -44.6110466405       38.1718077139        3.4261203535  W2        19768           0.0000000000
     59305     19769  TIP3      OH2           -37.6553666405       38.1740377139        6.9191503535  W2        19769           0.0000000000
     59306     19769  TIP3      H1            -37.8496566405       37.4262477139        6.3541103535  W2        19769           0.0000000000
     59307     19769  TIP3      H2            -37.6943566405       38.9320477139        6.3359403535  W2        19769           0.0000000000
     59308     19770  TIP3      OH2           -52.0081666405       22.1696777139       18.6589203535  W2        19770           0.0000000000
     59309     19770  TIP3      H1            -52.3743466405       21.4039377139       19.1013903535  W2        19770           0.0000000000
     59310     19770  TIP3      H2            -51.0953166405       22.1986977139       18.9454303535  W2        19770           0.0000000000
     59311     19771  TIP3      OH2           -50.0350866405       21.5201177139       20.1946303535  W2        19771           0.0000000000
     59312     19771  TIP3      H1            -49.1367266405       21.2461377139       20.0099703535  W2        19771           0.0000000000
     59313     19771  TIP3      H2            -50.4217766405       20.7777177139       20.6588903535  W2        19771           0.0000000000
     59314     19772  TIP3      OH2           -51.4105566405       38.3215977139        2.8676303535  W2        19772           0.0000000000
     59315     19772  TIP3      H1            -51.6780966405       38.6078877139        3.7409403535  W2        19772           0.0000000000
     59316     19772  TIP3      H2            -50.6392966405       37.7755177139        3.0198803535  W2        19772           0.0000000000
     59317     19773  TIP3      OH2           -41.6138566405       20.8526477139       20.3769103535  W2        19773           0.0000000000
     59318     19773  TIP3      H1            -41.5371366405       20.4267177139       21.2306803535  W2        19773           0.0000000000
     59319     19773  TIP3      H2            -40.7201966405       20.8661177139       20.0342603535  W2        19773           0.0000000000
     59320     19774  TIP3      OH2           -38.4377466405       36.9252777139       19.0693303535  W2        19774           0.0000000000
     59321     19774  TIP3      H1            -39.2195566405       36.7390777139       18.5493903535  W2        19774           0.0000000000
     59322     19774  TIP3      H2            -38.5097566405       37.8547077139       19.2865803535  W2        19774           0.0000000000
     59323     19775  TIP3      OH2           -24.0317066405       30.8117177139        9.1000503535  W2        19775           0.0000000000
     59324     19775  TIP3      H1            -23.9425966405       31.7555377139        8.9677603535  W2        19775           0.0000000000
     59325     19775  TIP3      H2            -24.6699466405       30.5363577139        8.4419903535  W2        19775           0.0000000000
     59326     19776  TIP3      OH2           -25.0985766405       30.0667877139       12.5188703535  W2        19776           0.0000000000
     59327     19776  TIP3      H1            -25.1368266405       29.4204177139       13.2238303535  W2        19776           0.0000000000
     59328     19776  TIP3      H2            -25.4209266405       29.6002277139       11.7477403535  W2        19776           0.0000000000
     59329     19777  TIP3      OH2           -32.7300766405       29.6809977139       14.1118603535  W2        19777           0.0000000000
     59330     19777  TIP3      H1            -32.6888666405       29.0553277139       14.8351003535  W2        19777           0.0000000000
     59331     19777  TIP3      H2            -32.0273066405       30.3048577139       14.2939003535  W2        19777           0.0000000000
     59332     19778  TIP3      OH2           -21.3925566405       33.0058277139       10.8203803535  W2        19778           0.0000000000
     59333     19778  TIP3      H1            -21.8332866405       32.2854277139       11.2709403535  W2        19778           0.0000000000
     59334     19778  TIP3      H2            -21.4055866405       33.7265477139       11.4501503535  W2        19778           0.0000000000
     59335     19779  TIP3      OH2           -31.8067666405       34.1308877139       12.6467703535  W2        19779           0.0000000000
     59336     19779  TIP3      H1            -32.1762466405       33.3289377139       12.2772003535  W2        19779           0.0000000000
     59337     19779  TIP3      H2            -30.8656566405       33.9623777139       12.6931103535  W2        19779           0.0000000000
     59338     19780  TIP3      OH2           -35.1967166405       27.7911477139        8.0396503535  W2        19780           0.0000000000
     59339     19780  TIP3      H1            -35.6443766405       28.6370177139        8.0213003535  W2        19780           0.0000000000
     59340     19780  TIP3      H2            -35.7575966405       27.2115677139        7.5241603535  W2        19780           0.0000000000
     59341     19781  TIP3      OH2           -34.4861066405       29.9531077139       10.1654503535  W2        19781           0.0000000000
     59342     19781  TIP3      H1            -34.2727566405       29.1832677139       10.6927503535  W2        19781           0.0000000000
     59343     19781  TIP3      H2            -33.7483466405       30.0427777139        9.5622103535  W2        19781           0.0000000000
     59344     19782  TIP3      OH2           -24.2810066405       38.1099977139       11.0324203535  W2        19782           0.0000000000
     59345     19782  TIP3      H1            -23.6613666405       37.4334677139       10.7593403535  W2        19782           0.0000000000
     59346     19782  TIP3      H2            -24.4892666405       37.8920777139       11.9409103535  W2        19782           0.0000000000
     59347     19783  TIP3      OH2           -26.7091366405       32.4989277139       12.9249703535  W2        19783           0.0000000000
     59348     19783  TIP3      H1            -26.4053466405       31.8130677139       12.3303803535  W2        19783           0.0000000000
     59349     19783  TIP3      H2            -25.9877366405       32.6177977139       13.5427703535  W2        19783           0.0000000000
     59350     19784  TIP3      OH2           -18.0461566405       24.1004577139       13.7855903535  W2        19784           0.0000000000
     59351     19784  TIP3      H1            -17.9969366405       24.7105777139       14.5215003535  W2        19784           0.0000000000
     59352     19784  TIP3      H2            -17.6206466405       24.5615477139       13.0627003535  W2        19784           0.0000000000
     59353     19785  TIP3      OH2           -23.5684366405       26.8931677139       13.2524503535  W2        19785           0.0000000000
     59354     19785  TIP3      H1            -23.4258466405       25.9468677139       13.2726103535  W2        19785           0.0000000000
     59355     19785  TIP3      H2            -23.6745366405       27.1001477139       12.3239403535  W2        19785           0.0000000000
     59356     19786  TIP3      OH2           -30.4136066405       24.9948077139       10.5249303535  W2        19786           0.0000000000
     59357     19786  TIP3      H1            -30.3704966405       25.8546577139       10.1065603535  W2        19786           0.0000000000
     59358     19786  TIP3      H2            -30.8711966405       24.4422777139        9.8912503535  W2        19786           0.0000000000
     59359     19787  TIP3      OH2           -22.6913366405       25.1253677139        8.9257603535  W2        19787           0.0000000000
     59360     19787  TIP3      H1            -22.0449066405       24.7966877139        9.5505203535  W2        19787           0.0000000000
     59361     19787  TIP3      H2            -22.1813966405       25.6432677139        8.3029003535  W2        19787           0.0000000000
     59362     19788  TIP3      OH2           -33.7934566405       27.3913877139       11.2870703535  W2        19788           0.0000000000
     59363     19788  TIP3      H1            -33.1397966405       26.8415577139       11.7190803535  W2        19788           0.0000000000
     59364     19788  TIP3      H2            -33.7695266405       27.1172877139       10.3702703535  W2        19788           0.0000000000
     59365     19789  TIP3      OH2           -28.6370066405       28.9415177139       10.5022203535  W2        19789           0.0000000000
     59366     19789  TIP3      H1            -28.0209066405       28.4150577139       11.0116203535  W2        19789           0.0000000000
     59367     19789  TIP3      H2            -29.2231266405       28.3013877139       10.0985803535  W2        19789           0.0000000000
     59368     19790  TIP3      OH2           -17.6546966405       25.5783777139       16.0215703535  W2        19790           0.0000000000
     59369     19790  TIP3      H1            -18.3432366405       26.2364477139       15.9262303535  W2        19790           0.0000000000
     59370     19790  TIP3      H2            -17.6392366405       25.3811677139       16.9581103535  W2        19790           0.0000000000
     59371     19791  TIP3      OH2           -31.6034166405       23.9126477139       14.5990103535  W2        19791           0.0000000000
     59372     19791  TIP3      H1            -31.8222466405       24.4427077139       13.8326103535  W2        19791           0.0000000000
     59373     19791  TIP3      H2            -32.2713266405       24.1391977139       15.2461503535  W2        19791           0.0000000000
     59374     19792  TIP3      OH2           -24.2344366405       33.4127577139        8.1429203535  W2        19792           0.0000000000
     59375     19792  TIP3      H1            -24.5299266405       33.0899877139        7.2916103535  W2        19792           0.0000000000
     59376     19792  TIP3      H2            -24.5586566405       34.3124277139        8.1841803535  W2        19792           0.0000000000
     59377     19793  TIP3      OH2           -29.0342766405       31.5882177139       14.8863803535  W2        19793           0.0000000000
     59378     19793  TIP3      H1            -29.7743666405       32.1863677139       14.9899003535  W2        19793           0.0000000000
     59379     19793  TIP3      H2            -28.3203266405       32.1421777139       14.5707403535  W2        19793           0.0000000000
     59380     19794  TIP3      OH2           -20.9274966405       24.4162977139       10.9063503535  W2        19794           0.0000000000
     59381     19794  TIP3      H1            -21.1426966405       23.6506377139       11.4389503535  W2        19794           0.0000000000
     59382     19794  TIP3      H2            -20.2717566405       24.8887577139       11.4192003535  W2        19794           0.0000000000
     59383     19795  TIP3      OH2           -32.0096866405       25.8048277139       12.5512303535  W2        19795           0.0000000000
     59384     19795  TIP3      H1            -31.3960566405       26.4375877139       12.9244703535  W2        19795           0.0000000000
     59385     19795  TIP3      H2            -31.4976166405       25.3323277139       11.8949203535  W2        19795           0.0000000000
     59386     19796  TIP3      OH2           -30.6268466405       33.5525177139       15.6735303535  W2        19796           0.0000000000
     59387     19796  TIP3      H1            -30.6320866405       34.4318677139       15.2954603535  W2        19796           0.0000000000
     59388     19796  TIP3      H2            -31.4804366405       33.4689277139       16.0985203535  W2        19796           0.0000000000
     59389     19797  TIP3      OH2           -34.5057566405       33.2233077139        6.4554603535  W2        19797           0.0000000000
     59390     19797  TIP3      H1            -34.7776666405       33.4524077139        5.5667503535  W2        19797           0.0000000000
     59391     19797  TIP3      H2            -34.4601866405       34.0611877139        6.9159903535  W2        19797           0.0000000000
     59392     19798  TIP3      OH2           -20.8807866405       34.8448977139       13.1683103535  W2        19798           0.0000000000
     59393     19798  TIP3      H1            -21.8224166405       34.9032877139       13.3300003535  W2        19798           0.0000000000
     59394     19798  TIP3      H2            -20.6041766405       35.7509477139       13.0312803535  W2        19798           0.0000000000
     59395     19799  TIP3      OH2           -20.5800866405       23.1314277139       14.5857003535  W2        19799           0.0000000000
     59396     19799  TIP3      H1            -21.3161666405       23.7421377139       14.5478303535  W2        19799           0.0000000000
     59397     19799  TIP3      H2            -19.8966866405       23.5463277139       14.0593403535  W2        19799           0.0000000000
     59398     19800  TIP3      OH2           -27.5769466405       21.2181577139       12.0515003535  W2        19800           0.0000000000
     59399     19800  TIP3      H1            -27.6945266405       20.2697577139       11.9973303535  W2        19800           0.0000000000
     59400     19800  TIP3      H2            -28.4319366405       21.5507677139       12.3246103535  W2        19800           0.0000000000
     59401     19801  TIP3      OH2           -22.6286666405       36.6262477139        9.7934703535  W2        19801           0.0000000000
     59402     19801  TIP3      H1            -22.2034366405       35.9190377139        9.3084303535  W2        19801           0.0000000000
     59403     19801  TIP3      H2            -22.3116666405       37.4275177139        9.3766903535  W2        19801           0.0000000000
     59404     19802  TIP3      OH2           -21.4690166405       34.5270977139        8.3021303535  W2        19802           0.0000000000
     59405     19802  TIP3      H1            -21.7265366405       33.8371077139        7.6907203535  W2        19802           0.0000000000
     59406     19802  TIP3      H2            -21.3979366405       34.0842177139        9.1477203535  W2        19802           0.0000000000
     59407     19803  TIP3      OH2           -19.7829966405       33.0937677139       16.7794803535  W2        19803           0.0000000000
     59408     19803  TIP3      H1            -19.6433666405       32.5020177139       16.0401803535  W2        19803           0.0000000000
     59409     19803  TIP3      H2            -19.6157166405       33.9663577139       16.4233603535  W2        19803           0.0000000000
     59410     19804  TIP3      OH2           -25.3104566405       30.0557177139        6.5520803535  W2        19804           0.0000000000
     59411     19804  TIP3      H1            -26.0219066405       30.5906877139        6.2001303535  W2        19804           0.0000000000
     59412     19804  TIP3      H2            -24.6194966405       30.1109277139        5.8919703535  W2        19804           0.0000000000
     59413     19805  TIP3      OH2           -25.2565366405       28.5131477139        3.5905803535  W2        19805           0.0000000000
     59414     19805  TIP3      H1            -24.5555466405       28.5358377139        4.2419803535  W2        19805           0.0000000000
     59415     19805  TIP3      H2            -24.9542466405       27.8851177139        2.9345103535  W2        19805           0.0000000000
     59416     19806  TIP3      OH2           -17.9410666405       29.4335677139       14.8455203535  W2        19806           0.0000000000
     59417     19806  TIP3      H1            -18.5936566405       30.1281277139       14.9346103535  W2        19806           0.0000000000
     59418     19806  TIP3      H2            -17.4760366405       29.6436577139       14.0356803535  W2        19806           0.0000000000
     59419     19807  TIP3      OH2           -21.9046866405       30.2650477139        7.5036703535  W2        19807           0.0000000000
     59420     19807  TIP3      H1            -22.6365866405       30.4934177139        8.0767303535  W2        19807           0.0000000000
     59421     19807  TIP3      H2            -21.4574666405       29.5513177139        7.9584203535  W2        19807           0.0000000000
     59422     19808  TIP3      OH2           -22.0073366405       28.4393077139       16.5713703535  W2        19808           0.0000000000
     59423     19808  TIP3      H1            -21.9274266405       29.2027477139       17.1432203535  W2        19808           0.0000000000
     59424     19808  TIP3      H2            -22.6085666405       28.7185477139       15.8808803535  W2        19808           0.0000000000
     59425     19809  TIP3      OH2           -30.2593166405       30.8956677139        9.3861703535  W2        19809           0.0000000000
     59426     19809  TIP3      H1            -30.5897966405       30.5250077139        8.5678703535  W2        19809           0.0000000000
     59427     19809  TIP3      H2            -29.6709066405       30.2250677139        9.7330003535  W2        19809           0.0000000000
     59428     19810  TIP3      OH2           -28.8925666405       34.3237277139       12.0673903535  W2        19810           0.0000000000
     59429     19810  TIP3      H1            -28.9874366405       33.7450377139       11.3108503535  W2        19810           0.0000000000
     59430     19810  TIP3      H2            -28.1632066405       33.9522977139       12.5636703535  W2        19810           0.0000000000
     59431     19811  TIP3      OH2           -29.8927666405       29.6642277139       13.0196703535  W2        19811           0.0000000000
     59432     19811  TIP3      H1            -29.3275166405       29.7856477139       12.2567903535  W2        19811           0.0000000000
     59433     19811  TIP3      H2            -29.5738766405       30.3017277139       13.6585203535  W2        19811           0.0000000000
     59434     19812  TIP3      OH2           -23.5835466405       35.1674177139       13.7537203535  W2        19812           0.0000000000
     59435     19812  TIP3      H1            -23.8238866405       35.8297277139       14.4016403535  W2        19812           0.0000000000
     59436     19812  TIP3      H2            -23.7817266405       34.3329377139       14.1786803535  W2        19812           0.0000000000
     59437     19813  TIP3      OH2           -29.0126966405       34.0634977139       17.7368603535  W2        19813           0.0000000000
     59438     19813  TIP3      H1            -29.3239466405       34.8458177139       18.1921803535  W2        19813           0.0000000000
     59439     19813  TIP3      H2            -29.6626766405       33.9104077139       17.0510603535  W2        19813           0.0000000000
     59440     19814  TIP3      OH2           -23.0337366405       29.4273377139        5.1887903535  W2        19814           0.0000000000
     59441     19814  TIP3      H1            -22.4541866405       29.5773677139        5.9356803535  W2        19814           0.0000000000
     59442     19814  TIP3      H2            -22.6197366405       29.8980777139        4.4654303535  W2        19814           0.0000000000
     59443     19815  TIP3      OH2           -32.0927066405       30.2616077139       16.9654303535  W2        19815           0.0000000000
     59444     19815  TIP3      H1            -32.0223866405       30.9122877139       17.6639303535  W2        19815           0.0000000000
     59445     19815  TIP3      H2            -32.9834866405       30.3643577139       16.6305203535  W2        19815           0.0000000000
     59446     19816  TIP3      OH2           -25.3072466405       36.1641877139        8.6241003535  W2        19816           0.0000000000
     59447     19816  TIP3      H1            -24.8334866405       36.4598177139        9.4015203535  W2        19816           0.0000000000
     59448     19816  TIP3      H2            -25.8703166405       36.9023477139        8.3910603535  W2        19816           0.0000000000
     59449     19817  TIP3      OH2           -30.7731066405       36.1349977139       18.5002403535  W2        19817           0.0000000000
     59450     19817  TIP3      H1            -30.7655766405       35.9989677139       17.5527903535  W2        19817           0.0000000000
     59451     19817  TIP3      H2            -31.6890666405       36.0178077139       18.7522403535  W2        19817           0.0000000000
     59452     19818  TIP3      OH2           -19.3348966405       21.1773777139        5.0017603535  W2        19818           0.0000000000
     59453     19818  TIP3      H1            -20.2348266405       21.3162777139        5.2968203535  W2        19818           0.0000000000
     59454     19818  TIP3      H2            -19.0830566405       22.0088377139        4.5999303535  W2        19818           0.0000000000
     59455     19819  TIP3      OH2           -31.2690466405       29.9650977139        6.9754503535  W2        19819           0.0000000000
     59456     19819  TIP3      H1            -31.5609166405       30.7332677139        6.4845803535  W2        19819           0.0000000000
     59457     19819  TIP3      H2            -31.9435266405       29.3057177139        6.8125903535  W2        19819           0.0000000000
     59458     19820  TIP3      OH2           -18.1457566405       35.5436177139        3.3781503535  W2        19820           0.0000000000
     59459     19820  TIP3      H1            -18.0724066405       36.4826377139        3.5486803535  W2        19820           0.0000000000
     59460     19820  TIP3      H2            -17.2402466405       35.2384777139        3.3218803535  W2        19820           0.0000000000
     59461     19821  TIP3      OH2           -35.1760366405       32.3280177139       15.7904303535  W2        19821           0.0000000000
     59462     19821  TIP3      H1            -35.6771966405       32.2999577139       14.9754003535  W2        19821           0.0000000000
     59463     19821  TIP3      H2            -35.1706666405       31.4223377139       16.1001603535  W2        19821           0.0000000000
     59464     19822  TIP3      OH2           -35.4257666405       35.1083977139       12.6744503535  W2        19822           0.0000000000
     59465     19822  TIP3      H1            -34.4797066405       34.9640977139       12.6554003535  W2        19822           0.0000000000
     59466     19822  TIP3      H2            -35.5381366405       35.8926777139       13.2115703535  W2        19822           0.0000000000
     59467     19823  TIP3      OH2           -17.2279166405       35.7743677139       18.3568203535  W2        19823           0.0000000000
     59468     19823  TIP3      H1            -17.2772366405       34.8191777139       18.3195803535  W2        19823           0.0000000000
     59469     19823  TIP3      H2            -18.0546866405       36.0418977139       18.7582003535  W2        19823           0.0000000000
     59470     19824  TIP3      OH2           -26.2495166405       35.3482877139       17.2329603535  W2        19824           0.0000000000
     59471     19824  TIP3      H1            -26.1620566405       36.1747477139       17.7078703535  W2        19824           0.0000000000
     59472     19824  TIP3      H2            -27.1130066405       35.0186677139       17.4818903535  W2        19824           0.0000000000
     59473     19825  TIP3      OH2           -25.8349366405       39.1206577139        7.0390203535  W2        19825           0.0000000000
     59474     19825  TIP3      H1            -25.9103366405       38.9993777139        6.0925403535  W2        19825           0.0000000000
     59475     19825  TIP3      H2            -25.8020666405       40.0699277139        7.1574803535  W2        19825           0.0000000000
     59476     19826  TIP3      OH2           -32.1815566405       37.9093577139        8.8199203535  W2        19826           0.0000000000
     59477     19826  TIP3      H1            -32.0295166405       37.5613977139        9.6985703535  W2        19826           0.0000000000
     59478     19826  TIP3      H2            -33.0325166405       37.5530877139        8.5646403535  W2        19826           0.0000000000
     59479     19827  TIP3      OH2           -22.7333366405       38.2746777139        4.0412603535  W2        19827           0.0000000000
     59480     19827  TIP3      H1            -22.3584966405       37.5302877139        3.5705203535  W2        19827           0.0000000000
     59481     19827  TIP3      H2            -22.7289666405       38.0047377139        4.9595903535  W2        19827           0.0000000000
     59482     19828  TIP3      OH2           -23.0645266405       38.2003877139        6.7904803535  W2        19828           0.0000000000
     59483     19828  TIP3      H1            -23.9995466405       38.3005777139        6.9691803535  W2        19828           0.0000000000
     59484     19828  TIP3      H2            -22.7843366405       37.4909877139        7.3688003535  W2        19828           0.0000000000
     59485     19829  TIP3      OH2           -20.0759366405       27.2676177139       18.8370403535  W2        19829           0.0000000000
     59486     19829  TIP3      H1            -20.4832566405       27.7481777139       18.1163703535  W2        19829           0.0000000000
     59487     19829  TIP3      H2            -20.0353666405       26.3622177139       18.5291203535  W2        19829           0.0000000000
     59488     19830  TIP3      OH2           -32.9269866405       33.6515577139       16.8337103535  W2        19830           0.0000000000
     59489     19830  TIP3      H1            -32.7108566405       33.2901177139       17.6932903535  W2        19830           0.0000000000
     59490     19830  TIP3      H2            -33.7825166405       33.2769377139       16.6240603535  W2        19830           0.0000000000
     59491     19831  TIP3      OH2           -30.3081866405       22.1216077139       12.8291303535  W2        19831           0.0000000000
     59492     19831  TIP3      H1            -31.1698166405       22.0344277139       12.4214203535  W2        19831           0.0000000000
     59493     19831  TIP3      H2            -30.3306166405       22.9776177139       13.2568903535  W2        19831           0.0000000000
     59494     19832  TIP3      OH2           -25.6454066405       21.8436477139       16.2038303535  W2        19832           0.0000000000
     59495     19832  TIP3      H1            -25.2250966405       21.4283577139       16.9568903535  W2        19832           0.0000000000
     59496     19832  TIP3      H2            -26.5784466405       21.6649777139       16.3210303535  W2        19832           0.0000000000
     59497     19833  TIP3      OH2           -22.3189166405       25.5991677139       17.0572803535  W2        19833           0.0000000000
     59498     19833  TIP3      H1            -22.8329666405       25.4733877139       17.8548803535  W2        19833           0.0000000000
     59499     19833  TIP3      H2            -22.4744466405       26.5114777139       16.8129003535  W2        19833           0.0000000000
     59500     19834  TIP3      OH2           -21.5564266405       30.4601677139        2.8185803535  W2        19834           0.0000000000
     59501     19834  TIP3      H1            -21.5143466405       30.2375577139        1.8885803535  W2        19834           0.0000000000
     59502     19834  TIP3      H2            -20.7072166405       30.8588777139        3.0085703535  W2        19834           0.0000000000
     59503     19835  TIP3      OH2           -25.9836766405       24.3359877139        3.4889103535  W2        19835           0.0000000000
     59504     19835  TIP3      H1            -26.2371966405       24.3551477139        4.4117203535  W2        19835           0.0000000000
     59505     19835  TIP3      H2            -26.2404666405       23.4645277139        3.1875303535  W2        19835           0.0000000000
     59506     19836  TIP3      OH2           -30.2171766405       27.0870577139       13.9241503535  W2        19836           0.0000000000
     59507     19836  TIP3      H1            -30.8589666405       27.0467877139       14.6331603535  W2        19836           0.0000000000
     59508     19836  TIP3      H2            -30.1799766405       28.0135277139       13.6864503535  W2        19836           0.0000000000
     59509     19837  TIP3      OH2           -30.2202666405       27.3080677139        8.8361503535  W2        19837           0.0000000000
     59510     19837  TIP3      H1            -31.1129766405       26.9676777139        8.7775303535  W2        19837           0.0000000000
     59511     19837  TIP3      H2            -29.7696066405       26.9311577139        8.0804703535  W2        19837           0.0000000000
     59512     19838  TIP3      OH2           -24.6847166405       27.7240977139        7.6532303535  W2        19838           0.0000000000
     59513     19838  TIP3      H1            -25.0936866405       28.5389577139        7.3617103535  W2        19838           0.0000000000
     59514     19838  TIP3      H2            -23.9640966405       27.5841077139        7.0389403535  W2        19838           0.0000000000
     59515     19839  TIP3      OH2           -25.5825566405       27.8997377139       19.1413003535  W2        19839           0.0000000000
     59516     19839  TIP3      H1            -26.1451766405       27.1948977139       19.4620803535  W2        19839           0.0000000000
     59517     19839  TIP3      H2            -24.7562166405       27.7789277139       19.6090603535  W2        19839           0.0000000000
     59518     19840  TIP3      OH2           -23.6799466405       27.1701377139       10.4672003535  W2        19840           0.0000000000
     59519     19840  TIP3      H1            -23.8754966405       27.7758177139        9.7522603535  W2        19840           0.0000000000
     59520     19840  TIP3      H2            -23.4986866405       26.3366577139       10.0328303535  W2        19840           0.0000000000
     59521     19841  TIP3      OH2           -32.4671266405       27.4074077139       15.7913503535  W2        19841           0.0000000000
     59522     19841  TIP3      H1            -32.5051866405       27.8075677139       16.6600603535  W2        19841           0.0000000000
     59523     19841  TIP3      H2            -32.9580166405       26.5906477139       15.8816403535  W2        19841           0.0000000000
     59524     19842  TIP3      OH2           -29.1013866405       24.7816377139        2.5899503535  W2        19842           0.0000000000
     59525     19842  TIP3      H1            -29.5323166405       24.3366477139        3.3196903535  W2        19842           0.0000000000
     59526     19842  TIP3      H2            -29.8195166405       25.1532677139        2.0777003535  W2        19842           0.0000000000
     59527     19843  TIP3      OH2           -35.8590466405       24.5235877139        9.6418203535  W2        19843           0.0000000000
     59528     19843  TIP3      H1            -35.2282766405       24.4947977139       10.3612103535  W2        19843           0.0000000000
     59529     19843  TIP3      H2            -35.4096166405       24.0984577139        8.9114103535  W2        19843           0.0000000000
     59530     19844  TIP3      OH2           -34.5848366405       25.2697877139        5.0658603535  W2        19844           0.0000000000
     59531     19844  TIP3      H1            -34.1106666405       25.8607777139        4.4809503535  W2        19844           0.0000000000
     59532     19844  TIP3      H2            -35.3021966405       25.8000777139        5.4128703535  W2        19844           0.0000000000
     59533     19845  TIP3      OH2           -24.4160266405       28.8082677139       15.1384403535  W2        19845           0.0000000000
     59534     19845  TIP3      H1            -24.0925466405       28.1772377139       14.4954903535  W2        19845           0.0000000000
     59535     19845  TIP3      H2            -24.8560966405       28.2734877139       15.7991803535  W2        19845           0.0000000000
     59536     19846  TIP3      OH2           -27.6387366405       24.7358177139        9.9225603535  W2        19846           0.0000000000
     59537     19846  TIP3      H1            -28.5496266405       24.7924977139       10.2111603535  W2        19846           0.0000000000
     59538     19846  TIP3      H2            -27.1334466405       24.6753677139       10.7332803535  W2        19846           0.0000000000
     59539     19847  TIP3      OH2           -32.8103966405       26.3644477139        8.7493203535  W2        19847           0.0000000000
     59540     19847  TIP3      H1            -33.6995966405       26.4639977139        8.4092803535  W2        19847           0.0000000000
     59541     19847  TIP3      H2            -32.5139066405       25.5227477139        8.4031103535  W2        19847           0.0000000000
     59542     19848  TIP3      OH2           -29.1572166405       26.3647077139        6.4057803535  W2        19848           0.0000000000
     59543     19848  TIP3      H1            -28.2256666405       26.4937077139        6.5840903535  W2        19848           0.0000000000
     59544     19848  TIP3      H2            -29.3721866405       27.0341377139        5.7562503535  W2        19848           0.0000000000
     59545     19849  TIP3      OH2           -23.2335466405       23.9704477139       13.1867403535  W2        19849           0.0000000000
     59546     19849  TIP3      H1            -23.9103866405       24.1017577139       13.8507103535  W2        19849           0.0000000000
     59547     19849  TIP3      H2            -23.7190566405       23.8153977139       12.3765103535  W2        19849           0.0000000000
     59548     19850  TIP3      OH2           -30.4831966405       27.5589277139        3.9723903535  W2        19850           0.0000000000
     59549     19850  TIP3      H1            -31.0256866405       27.1793077139        3.2811503535  W2        19850           0.0000000000
     59550     19850  TIP3      H2            -29.6497066405       27.7533977139        3.5438003535  W2        19850           0.0000000000
     59551     19851  TIP3      OH2           -19.9460366405       39.6419877139       19.4635003535  W2        19851           0.0000000000
     59552     19851  TIP3      H1            -19.7461666405       40.0661777139       18.6290303535  W2        19851           0.0000000000
     59553     19851  TIP3      H2            -19.2906666405       39.9858077139       20.0705403535  W2        19851           0.0000000000
     59554     19852  TIP3      OH2           -32.3480566405       32.1161177139       19.0715503535  W2        19852           0.0000000000
     59555     19852  TIP3      H1            -31.6158166405       32.3707077139       19.6330003535  W2        19852           0.0000000000
     59556     19852  TIP3      H2            -33.1281866405       32.3206577139       19.5870903535  W2        19852           0.0000000000
     59557     19853  TIP3      OH2           -26.3187666405       27.5231177139       11.8095203535  W2        19853           0.0000000000
     59558     19853  TIP3      H1            -25.7544266405       26.9767777139       11.2624803535  W2        19853           0.0000000000
     59559     19853  TIP3      H2            -26.4664266405       27.0013077139       12.5982803535  W2        19853           0.0000000000
     59560     19854  TIP3      OH2           -31.3167966405       23.6597277139        8.2280003535  W2        19854           0.0000000000
     59561     19854  TIP3      H1            -31.6338466405       22.7572577139        8.1925403535  W2        19854           0.0000000000
     59562     19854  TIP3      H2            -30.5353866405       23.6614677139        7.6751603535  W2        19854           0.0000000000
     59563     19855  TIP3      OH2           -27.6921766405       25.9117277139       14.2235603535  W2        19855           0.0000000000
     59564     19855  TIP3      H1            -28.5276466405       26.3656777139       14.3338003535  W2        19855           0.0000000000
     59565     19855  TIP3      H2            -27.1681166405       26.1875777139       14.9755503535  W2        19855           0.0000000000
     59566     19856  TIP3      OH2           -27.1479166405       32.1244977139        5.9082003535  W2        19856           0.0000000000
     59567     19856  TIP3      H1            -27.8928166405       31.6170277139        5.5859903535  W2        19856           0.0000000000
     59568     19856  TIP3      H2            -27.2821966405       32.1732977139        6.8546803535  W2        19856           0.0000000000
     59569     19857  TIP3      OH2           -19.9980266405       31.2573177139       14.6949603535  W2        19857           0.0000000000
     59570     19857  TIP3      H1            -19.3561466405       31.7139477139       14.1511803535  W2        19857           0.0000000000
     59571     19857  TIP3      H2            -20.8283366405       31.3705577139       14.2323703535  W2        19857           0.0000000000
     59572     19858  TIP3      OH2           -23.2502366405       24.9384877139        4.1074603535  W2        19858           0.0000000000
     59573     19858  TIP3      H1            -24.1888166405       25.0500477139        3.9563403535  W2        19858           0.0000000000
     59574     19858  TIP3      H2            -22.9530266405       25.7951777139        4.4140303535  W2        19858           0.0000000000
     59575     19859  TIP3      OH2           -25.6287066405       32.3088277139       17.1451103535  W2        19859           0.0000000000
     59576     19859  TIP3      H1            -25.9740966405       31.9270677139       17.9520703535  W2        19859           0.0000000000
     59577     19859  TIP3      H2            -25.8286966405       33.2421877139       17.2164003535  W2        19859           0.0000000000
     59578     19860  TIP3      OH2           -22.5318866405       26.8057577139        5.7682003535  W2        19860           0.0000000000
     59579     19860  TIP3      H1            -21.6399866405       26.6682577139        6.0873203535  W2        19860           0.0000000000
     59580     19860  TIP3      H2            -22.4755266405       27.5963677139        5.2315503535  W2        19860           0.0000000000
     59581     19861  TIP3      OH2           -32.0230866405       31.4194977139       11.6779903535  W2        19861           0.0000000000
     59582     19861  TIP3      H1            -31.2783666405       31.4170677139       11.0766403535  W2        19861           0.0000000000
     59583     19861  TIP3      H2            -31.9454266405       30.5958777139       12.1595003535  W2        19861           0.0000000000
     59584     19862  TIP3      OH2           -25.0225066405       33.5829277139        4.9336603535  W2        19862           0.0000000000
     59585     19862  TIP3      H1            -25.3176666405       34.4097177139        5.3151403535  W2        19862           0.0000000000
     59586     19862  TIP3      H2            -25.7255066405       32.9636177139        5.1298003535  W2        19862           0.0000000000
     59587     19863  TIP3      OH2           -35.0151166405       29.8801877139       16.9928403535  W2        19863           0.0000000000
     59588     19863  TIP3      H1            -34.7922566405       29.4621477139       17.8245903535  W2        19863           0.0000000000
     59589     19863  TIP3      H2            -35.6171066405       29.2676877139       16.5701203535  W2        19863           0.0000000000
     59590     19864  TIP3      OH2           -27.9986266405       29.3971777139       19.2058103535  W2        19864           0.0000000000
     59591     19864  TIP3      H1            -28.2945466405       29.2314777139       18.3107203535  W2        19864           0.0000000000
     59592     19864  TIP3      H2            -27.0671066405       29.1772077139       19.1952003535  W2        19864           0.0000000000
     59593     19865  TIP3      OH2           -23.3783466405       34.7703777139       17.0956103535  W2        19865           0.0000000000
     59594     19865  TIP3      H1            -24.2789166405       34.9536377139       16.8280003535  W2        19865           0.0000000000
     59595     19865  TIP3      H2            -23.3442366405       35.0293077139       18.0164903535  W2        19865           0.0000000000
     59596     19866  TIP3      OH2           -17.6470166405       27.0151677139        5.4628703535  W2        19866           0.0000000000
     59597     19866  TIP3      H1            -18.2013866405       26.6189677139        4.7906203535  W2        19866           0.0000000000
     59598     19866  TIP3      H2            -17.5466566405       27.9256877139        5.1852003535  W2        19866           0.0000000000
     59599     19867  TIP3      OH2           -17.6838166405       32.8153377139       18.3000203535  W2        19867           0.0000000000
     59600     19867  TIP3      H1            -18.5349666405       33.0537177139       17.9326603535  W2        19867           0.0000000000
     59601     19867  TIP3      H2            -17.0934766405       32.7986577139       17.5467303535  W2        19867           0.0000000000
     59602     19868  TIP3      OH2           -19.3518466405       35.8012077139        5.9280803535  W2        19868           0.0000000000
     59603     19868  TIP3      H1            -19.7247366405       34.9755877139        6.2371403535  W2        19868           0.0000000000
     59604     19868  TIP3      H2            -19.0744966405       35.6181477139        5.0304203535  W2        19868           0.0000000000
     59605     19869  TIP3      OH2           -22.1914566405       30.6091577139       12.9492703535  W2        19869           0.0000000000
     59606     19869  TIP3      H1            -23.1197666405       30.3773477139       12.9222003535  W2        19869           0.0000000000
     59607     19869  TIP3      H2            -21.7403466405       29.8321377139       12.6191503535  W2        19869           0.0000000000
     59608     19870  TIP3      OH2           -29.6481466405       34.9373177139        9.0821403535  W2        19870           0.0000000000
     59609     19870  TIP3      H1            -29.1209266405       35.7107577139        8.8820203535  W2        19870           0.0000000000
     59610     19870  TIP3      H2            -30.5282966405       35.1622377139        8.7805403535  W2        19870           0.0000000000
     59611     19871  TIP3      OH2           -33.8933766405       29.7997277139        3.6693803535  W2        19871           0.0000000000
     59612     19871  TIP3      H1            -33.2773866405       30.4264477139        4.0488603535  W2        19871           0.0000000000
     59613     19871  TIP3      H2            -34.7551166405       30.1157077139        3.9410303535  W2        19871           0.0000000000
     59614     19872  TIP3      OH2           -28.2209166405       32.6003077139        8.6585703535  W2        19872           0.0000000000
     59615     19872  TIP3      H1            -28.4619166405       33.5257477139        8.7001003535  W2        19872           0.0000000000
     59616     19872  TIP3      H2            -28.9615566405       32.1414377139        9.0549603535  W2        19872           0.0000000000
     59617     19873  TIP3      OH2           -27.7062566405       36.7496677139       14.9736803535  W2        19873           0.0000000000
     59618     19873  TIP3      H1            -27.3437866405       37.6042277139       14.7401203535  W2        19873           0.0000000000
     59619     19873  TIP3      H2            -27.1747366405       36.4578277139       15.7143103535  W2        19873           0.0000000000
     59620     19874  TIP3      OH2           -29.5378366405       37.6220677139        8.2037903535  W2        19874           0.0000000000
     59621     19874  TIP3      H1            -30.4877866405       37.7278077139        8.2551203535  W2        19874           0.0000000000
     59622     19874  TIP3      H2            -29.1860266405       38.4428077139        8.5485403535  W2        19874           0.0000000000
     59623     19875  TIP3      OH2           -24.1621766405       32.8487377139       14.6742403535  W2        19875           0.0000000000
     59624     19875  TIP3      H1            -24.5880466405       32.6209077139       15.5006403535  W2        19875           0.0000000000
     59625     19875  TIP3      H2            -23.5815966405       32.1099177139       14.4917703535  W2        19875           0.0000000000
     59626     19876  TIP3      OH2           -21.9592866405       33.7777877139        3.7481403535  W2        19876           0.0000000000
     59627     19876  TIP3      H1            -21.6059766405       33.3977677139        4.5524903535  W2        19876           0.0000000000
     59628     19876  TIP3      H2            -22.9079366405       33.6842677139        3.8350703535  W2        19876           0.0000000000
     59629     19877  TIP3      OH2           -21.5037566405       37.4006877139       17.1437203535  W2        19877           0.0000000000
     59630     19877  TIP3      H1            -22.1054366405       36.8449777139       16.6483503535  W2        19877           0.0000000000
     59631     19877  TIP3      H2            -21.2223866405       38.0676677139       16.5174603535  W2        19877           0.0000000000
     59632     19878  TIP3      OH2           -17.4558466405       38.2570377139        3.9491603535  W2        19878           0.0000000000
     59633     19878  TIP3      H1            -16.7120566405       38.8430877139        3.8093203535  W2        19878           0.0000000000
     59634     19878  TIP3      H2            -18.1500366405       38.8256177139        4.2824003535  W2        19878           0.0000000000
     59635     19879  TIP3      OH2           -33.3811666405       24.6334577139       16.5509803535  W2        19879           0.0000000000
     59636     19879  TIP3      H1            -34.2739366405       24.9719977139       16.4833803535  W2        19879           0.0000000000
     59637     19879  TIP3      H2            -33.4798866405       23.7780677139       16.9690603535  W2        19879           0.0000000000
     59638     19880  TIP3      OH2           -21.0933566405       32.4499877139        5.9749303535  W2        19880           0.0000000000
     59639     19880  TIP3      H1            -21.3705966405       31.7219177139        6.5310403535  W2        19880           0.0000000000
     59640     19880  TIP3      H2            -20.1660566405       32.5691877139        6.1801903535  W2        19880           0.0000000000
     59641     19881  TIP3      OH2           -33.7299666405       36.4378977139       14.9859203535  W2        19881           0.0000000000
     59642     19881  TIP3      H1            -33.5129366405       35.5061377139       14.9548903535  W2        19881           0.0000000000
     59643     19881  TIP3      H2            -33.4836166405       36.7123977139       15.8692003535  W2        19881           0.0000000000
     59644     19882  TIP3      OH2           -27.8685066405       34.8893977139        2.1951403535  W2        19882           0.0000000000
     59645     19882  TIP3      H1            -27.6295266405       34.1412077139        1.6480303535  W2        19882           0.0000000000
     59646     19882  TIP3      H2            -28.1373766405       34.5015677139        3.0279203535  W2        19882           0.0000000000
     59647     19883  TIP3      OH2           -28.9314466405       34.4597777139        4.6514003535  W2        19883           0.0000000000
     59648     19883  TIP3      H1            -28.7846466405       33.9397577139        5.4414903535  W2        19883           0.0000000000
     59649     19883  TIP3      H2            -28.9342766405       35.3665377139        4.9579903535  W2        19883           0.0000000000
     59650     19884  TIP3      OH2           -32.4783366405       31.7121077139        5.1619403535  W2        19884           0.0000000000
     59651     19884  TIP3      H1            -33.1644066405       32.0643577139        5.7289103535  W2        19884           0.0000000000
     59652     19884  TIP3      H2            -31.9555466405       32.4750677139        4.9153703535  W2        19884           0.0000000000
     59653     19885  TIP3      OH2           -24.6468266405       24.3744877139       15.4408403535  W2        19885           0.0000000000
     59654     19885  TIP3      H1            -23.9480366405       24.4483577139       16.0908103535  W2        19885           0.0000000000
     59655     19885  TIP3      H2            -25.0276866405       23.5099877139       15.5951303535  W2        19885           0.0000000000
     59656     19886  TIP3      OH2           -23.8623366405       24.0266577139        6.5380703535  W2        19886           0.0000000000
     59657     19886  TIP3      H1            -23.6425066405       24.4981977139        5.7346103535  W2        19886           0.0000000000
     59658     19886  TIP3      H2            -23.3039366405       24.4209177139        7.2081303535  W2        19886           0.0000000000
     59659     19887  TIP3      OH2           -26.1937266405       36.1571377139        5.4008203535  W2        19887           0.0000000000
     59660     19887  TIP3      H1            -27.0101166405       36.6541077139        5.4532503535  W2        19887           0.0000000000
     59661     19887  TIP3      H2            -25.6640966405       36.6324877139        4.7607003535  W2        19887           0.0000000000
     59662     19888  TIP3      OH2           -26.6623466405       25.7545377139        7.3729103535  W2        19888           0.0000000000
     59663     19888  TIP3      H1            -25.8500866405       26.2588577139        7.4190803535  W2        19888           0.0000000000
     59664     19888  TIP3      H2            -26.9070466405       25.6095077139        8.2868703535  W2        19888           0.0000000000
     59665     19889  TIP3      OH2           -26.1267066405       26.7408077139       16.5575703535  W2        19889           0.0000000000
     59666     19889  TIP3      H1            -26.0076766405       27.3143477139       17.3146103535  W2        19889           0.0000000000
     59667     19889  TIP3      H2            -25.4712466405       26.0527477139       16.6723503535  W2        19889           0.0000000000
     59668     19890  TIP3      OH2           -25.7786766405       22.8358377139        8.3110203535  W2        19890           0.0000000000
     59669     19890  TIP3      H1            -26.1253266405       23.4528977139        8.9554503535  W2        19890           0.0000000000
     59670     19890  TIP3      H2            -25.1199866405       23.3364077139        7.8295703535  W2        19890           0.0000000000
     59671     19891  TIP3      OH2           -28.8554166405       37.2008577139        5.3825103535  W2        19891           0.0000000000
     59672     19891  TIP3      H1            -28.6945466405       38.0006077139        4.8817703535  W2        19891           0.0000000000
     59673     19891  TIP3      H2            -29.0526366405       37.5074577139        6.2675703535  W2        19891           0.0000000000
     59674     19892  TIP3      OH2           -30.1209766405       23.8987777139        4.9982703535  W2        19892           0.0000000000
     59675     19892  TIP3      H1            -30.2044966405       24.7870877139        5.3449103535  W2        19892           0.0000000000
     59676     19892  TIP3      H2            -29.2309466405       23.6334477139        5.2299503535  W2        19892           0.0000000000
     59677     19893  TIP3      OH2           -19.9221266405       24.6478377139       17.3925403535  W2        19893           0.0000000000
     59678     19893  TIP3      H1            -20.8385466405       24.9100077139       17.3049103535  W2        19893           0.0000000000
     59679     19893  TIP3      H2            -19.5866266405       24.6447377139       16.4960703535  W2        19893           0.0000000000
     59680     19894  TIP3      OH2           -21.3200266405       28.3979377139       11.4882703535  W2        19894           0.0000000000
     59681     19894  TIP3      H1            -22.1175866405       27.9829577139       11.1597703535  W2        19894           0.0000000000
     59682     19894  TIP3      H2            -20.8749166405       27.7073077139       11.9793203535  W2        19894           0.0000000000
     59683     19895  TIP3      OH2           -31.8624466405       34.3259977139        4.0587203535  W2        19895           0.0000000000
     59684     19895  TIP3      H1            -31.2702966405       35.0254777139        4.3349603535  W2        19895           0.0000000000
     59685     19895  TIP3      H2            -31.4031466405       33.8929477139        3.3391803535  W2        19895           0.0000000000
     59686     19896  TIP3      OH2           -33.5465266405       26.9902977139        3.1746603535  W2        19896           0.0000000000
     59687     19896  TIP3      H1            -33.5912666405       27.9296077139        3.3533603535  W2        19896           0.0000000000
     59688     19896  TIP3      H2            -34.4342066405       26.7547877139        2.9048703535  W2        19896           0.0000000000
     59689     19897  TIP3      OH2           -20.2335666405       37.6541877139       13.1106203535  W2        19897           0.0000000000
     59690     19897  TIP3      H1            -20.3891366405       38.3326277139       12.4535503535  W2        19897           0.0000000000
     59691     19897  TIP3      H2            -19.3009266405       37.7261177139       13.3136803535  W2        19897           0.0000000000
     59692     19898  TIP3      OH2           -32.7383266405       21.7719577139       11.8477603535  W2        19898           0.0000000000
     59693     19898  TIP3      H1            -32.9673466405       21.8312077139       10.9202603535  W2        19898           0.0000000000
     59694     19898  TIP3      H2            -33.1809866405       20.9805077139       12.1541703535  W2        19898           0.0000000000
     59695     19899  TIP3      OH2           -33.8079966405       35.7126677139        8.0083403535  W2        19899           0.0000000000
     59696     19899  TIP3      H1            -34.6401366405       36.1849377139        8.0354803535  W2        19899           0.0000000000
     59697     19899  TIP3      H2            -33.2621666405       36.2224277139        7.4096503535  W2        19899           0.0000000000
     59698     19900  TIP3      OH2           -34.5196266405       38.3250377139       19.3381403535  W2        19900           0.0000000000
     59699     19900  TIP3      H1            -33.9794066405       38.1084377139       20.0980603535  W2        19900           0.0000000000
     59700     19900  TIP3      H2            -35.0008266405       37.5196377139       19.1483903535  W2        19900           0.0000000000
     59701     19901  TIP3      OH2           -29.9222866405       37.2444777139       20.9585603535  W2        19901           0.0000000000
     59702     19901  TIP3      H1            -29.1545666405       36.7855577139       21.2994803535  W2        19901           0.0000000000
     59703     19901  TIP3      H2            -29.9436666405       37.0184577139       20.0286803535  W2        19901           0.0000000000
     59704     19902  TIP3      OH2           -25.8303266405       36.7525377139        2.3337403535  W2        19902           0.0000000000
     59705     19902  TIP3      H1            -26.4742266405       36.1213977139        2.6551103535  W2        19902           0.0000000000
     59706     19902  TIP3      H2            -25.0684966405       36.2213377139        2.1020903535  W2        19902           0.0000000000
     59707     19903  TIP3      OH2           -23.3454166405       35.6245877139       19.6877103535  W2        19903           0.0000000000
     59708     19903  TIP3      H1            -23.6964666405       34.7678877139       19.9307503535  W2        19903           0.0000000000
     59709     19903  TIP3      H2            -22.6190966405       35.7672577139       20.2946103535  W2        19903           0.0000000000
     59710     19904  TIP3      OH2           -21.2260366405       36.5695277139        2.5675403535  W2        19904           0.0000000000
     59711     19904  TIP3      H1            -20.9429966405       35.7750477139        3.0202303535  W2        19904           0.0000000000
     59712     19904  TIP3      H2            -20.4862466405       36.8026277139        2.0066503535  W2        19904           0.0000000000
     59713     19905  TIP3      OH2           -34.6126766405       32.1354477139       20.2925703535  W2        19905           0.0000000000
     59714     19905  TIP3      H1            -34.4686266405       31.2335177139       20.0062403535  W2        19905           0.0000000000
     59715     19905  TIP3      H2            -35.3849366405       32.4216577139       19.8048003535  W2        19905           0.0000000000
     59716     19906  TIP3      OH2           -30.2713066405       32.4790177139        2.4250303535  W2        19906           0.0000000000
     59717     19906  TIP3      H1            -30.2068966405       31.6849777139        2.9556703535  W2        19906           0.0000000000
     59718     19906  TIP3      H2            -29.6183866405       32.3602977139        1.7352303535  W2        19906           0.0000000000
     59719     19907  TIP3      OH2           -27.9570666405       32.1052577139       19.7252103535  W2        19907           0.0000000000
     59720     19907  TIP3      H1            -28.2856866405       32.3760677139       18.8679503535  W2        19907           0.0000000000
     59721     19907  TIP3      H2            -27.8052466405       31.1642377139       19.6377103535  W2        19907           0.0000000000
     59722     19908  TIP3      OH2           -24.9189666405       33.5261877139        2.1608303535  W2        19908           0.0000000000
     59723     19908  TIP3      H1            -25.1875566405       33.7063977139        3.0617203535  W2        19908           0.0000000000
     59724     19908  TIP3      H2            -25.1254066405       32.6008077139        2.0294103535  W2        19908           0.0000000000
     59725     19909  TIP3      OH2           -22.2225466405       32.0209877139       17.1084403535  W2        19909           0.0000000000
     59726     19909  TIP3      H1            -21.4770666405       32.6093577139       16.9888403535  W2        19909           0.0000000000
     59727     19909  TIP3      H2            -22.9798666405       32.6029577139       17.1717503535  W2        19909           0.0000000000
     59728     19910  TIP3      OH2           -33.7800266405       29.3357777139       19.7125003535  W2        19910           0.0000000000
     59729     19910  TIP3      H1            -33.3719066405       28.4784377139       19.5915603535  W2        19910           0.0000000000
     59730     19910  TIP3      H2            -34.0402666405       29.3499077139       20.6335303535  W2        19910           0.0000000000
     59731     19911  TIP3      OH2           -29.1219266405       30.4516377139        4.7308303535  W2        19911           0.0000000000
     59732     19911  TIP3      H1            -29.5817266405       29.9674677139        5.4166803535  W2        19911           0.0000000000
     59733     19911  TIP3      H2            -28.8670566405       29.7831777139        4.0948803535  W2        19911           0.0000000000
     59734     19912  TIP3      OH2           -29.8329966405       28.3443477139       17.0867903535  W2        19912           0.0000000000
     59735     19912  TIP3      H1            -30.4513866405       29.0190077139       17.3672603535  W2        19912           0.0000000000
     59736     19912  TIP3      H2            -29.4888766405       28.6657377139       16.2534103535  W2        19912           0.0000000000
     59737     19913  TIP3      OH2           -28.0508866405       28.6948177139        2.9931503535  W2        19913           0.0000000000
     59738     19913  TIP3      H1            -28.2313866405       28.5399377139        2.0659803535  W2        19913           0.0000000000
     59739     19913  TIP3      H2            -27.1008366405       28.8026877139        3.0379403535  W2        19913           0.0000000000
     59740     19914  TIP3      OH2           -24.8131766405       30.8158777139       20.3642703535  W2        19914           0.0000000000
     59741     19914  TIP3      H1            -23.8600566405       30.8997877139       20.3368703535  W2        19914           0.0000000000
     59742     19914  TIP3      H2            -24.9737166405       30.1040577139       20.9837603535  W2        19914           0.0000000000
     59743     19915  TIP3      OH2           -18.6610566405       31.0492377139        2.4389603535  W2        19915           0.0000000000
     59744     19915  TIP3      H1            -18.9345766405       30.6247877139        1.6257903535  W2        19915           0.0000000000
     59745     19915  TIP3      H2            -18.6216466405       31.9806877139        2.2220003535  W2        19915           0.0000000000
     59746     19916  TIP3      OH2           -29.4936266405       25.6994277139       18.1691003535  W2        19916           0.0000000000
     59747     19916  TIP3      H1            -29.3435366405       24.9705577139       17.5670703535  W2        19916           0.0000000000
     59748     19916  TIP3      H2            -29.4913866405       26.4765977139       17.6103203535  W2        19916           0.0000000000
     59749     19917  TIP3      OH2           -29.0810566405       24.0690077139       15.6618403535  W2        19917           0.0000000000
     59750     19917  TIP3      H1            -28.5453066405       24.5206777139       15.0097703535  W2        19917           0.0000000000
     59751     19917  TIP3      H2            -29.9330966405       23.9609877139       15.2392503535  W2        19917           0.0000000000
     59752     19918  TIP3      OH2           -27.4992166405       29.5086277139       15.9013603535  W2        19918           0.0000000000
     59753     19918  TIP3      H1            -26.7487366405       29.3523777139       15.3281403535  W2        19918           0.0000000000
     59754     19918  TIP3      H2            -27.8383866405       30.3602877139       15.6259103535  W2        19918           0.0000000000
     59755     19919  TIP3      OH2           -23.0835966405       27.3238077139       20.9298903535  W2        19919           0.0000000000
     59756     19919  TIP3      H1            -22.8914666405       26.3927477139       20.8183403535  W2        19919           0.0000000000
     59757     19919  TIP3      H2            -22.2259666405       27.7487577139       20.9194303535  W2        19919           0.0000000000
     59758     19920  TIP3      OH2           -21.7668766405       30.1123277139       19.0071603535  W2        19920           0.0000000000
     59759     19920  TIP3      H1            -22.0483766405       30.8217877139       18.4295403535  W2        19920           0.0000000000
     59760     19920  TIP3      H2            -20.8244466405       30.0396277139       18.8562803535  W2        19920           0.0000000000
     59761     19921  TIP3      OH2           -31.0149966405       26.8977777139       20.0806603535  W2        19921           0.0000000000
     59762     19921  TIP3      H1            -31.7820966405       26.3652577139       19.8704203535  W2        19921           0.0000000000
     59763     19921  TIP3      H2            -30.3360966405       26.5878177139       19.4812903535  W2        19921           0.0000000000
     59764     19922  TIP3      OH2           -28.2755066405       21.5255777139       16.0932003535  W2        19922           0.0000000000
     59765     19922  TIP3      H1            -28.3735466405       22.4718977139       15.9878203535  W2        19922           0.0000000000
     59766     19922  TIP3      H2            -29.0178866405       21.1529577139       15.6175503535  W2        19922           0.0000000000
     59767     19923  TIP3      OH2           -27.0114566405       25.8471177139       19.6570403535  W2        19923           0.0000000000
     59768     19923  TIP3      H1            -27.2469166405       25.6277877139       20.5585303535  W2        19923           0.0000000000
     59769     19923  TIP3      H2            -27.7947666405       25.6402377139       19.1472903535  W2        19923           0.0000000000
     59770     19924  TIP3      OH2           -24.2957966405       24.9744677139       18.7323903535  W2        19924           0.0000000000
     59771     19924  TIP3      H1            -25.2432566405       25.0064377139       18.8647203535  W2        19924           0.0000000000
     59772     19924  TIP3      H2            -23.9831266405       24.3491777139       19.3862103535  W2        19924           0.0000000000
     59773     19925  TIP3      OH2           -22.6616466405       23.6085777139       20.7375803535  W2        19925           0.0000000000
     59774     19925  TIP3      H1            -22.7584666405       22.6563077139       20.7317703535  W2        19925           0.0000000000
     59775     19925  TIP3      H2            -22.9833366405       23.8772577139       21.5981303535  W2        19925           0.0000000000
     59776     19926  TIP3      OH2           -32.8347166405       24.8181577139       19.7851303535  W2        19926           0.0000000000
     59777     19926  TIP3      H1            -32.6229766405       24.1117677139       19.1748803535  W2        19926           0.0000000000
     59778     19926  TIP3      H2            -32.9459666405       24.3807577139       20.6292503535  W2        19926           0.0000000000
     59779     19927  TIP3      OH2           -28.0536966405       20.8193177139       18.7644803535  W2        19927           0.0000000000
     59780     19927  TIP3      H1            -27.3418566405       20.1795377139       18.7503903535  W2        19927           0.0000000000
     59781     19927  TIP3      H2            -28.1546566405       21.0861477139       17.8507903535  W2        19927           0.0000000000
     59782     19928  TIP3      OH2           -27.6999466405       22.5021577139       20.8181103535  W2        19928           0.0000000000
     59783     19928  TIP3      H1            -27.8317266405       22.0265377139       19.9979603535  W2        19928           0.0000000000
     59784     19928  TIP3      H2            -28.2992066405       23.2465177139       20.7628203535  W2        19928           0.0000000000
     59785     19929  TIP3      OH2           -28.1537166405       39.3851877139        3.9945103535  W2        19929           0.0000000000
     59786     19929  TIP3      H1            -27.2206466405       39.5430577139        4.1383503535  W2        19929           0.0000000000
     59787     19929  TIP3      H2            -28.4178366405       40.0604877139        3.3696603535  W2        19929           0.0000000000
     59788     19930  TIP3      OH2           -34.5852266405       34.0215677139        3.4773203535  W2        19930           0.0000000000
     59789     19930  TIP3      H1            -33.6713066405       34.1004577139        3.7507103535  W2        19930           0.0000000000
     59790     19930  TIP3      H2            -34.5779166405       33.3345277139        2.8108803535  W2        19930           0.0000000000
     59791     19931  TIP3      OH2           -35.9361666405       39.4144177139        8.5547103535  W2        19931           0.0000000000
     59792     19931  TIP3      H1            -36.5834566405       38.9525877139        8.0218303535  W2        19931           0.0000000000
     59793     19931  TIP3      H2            -35.5817066405       38.7427477139        9.1373303535  W2        19931           0.0000000000
     59794     19932  TIP3      OH2           -35.0662466405       37.4951177139       10.3593303535  W2        19932           0.0000000000
     59795     19932  TIP3      H1            -35.4005666405       36.6148477139       10.5313503535  W2        19932           0.0000000000
     59796     19932  TIP3      H2            -34.8440066405       37.8406177139       11.2238903535  W2        19932           0.0000000000
     59797     19933  TIP3      OH2           -17.5177666405       38.3047577139       13.3398103535  W2        19933           0.0000000000
     59798     19933  TIP3      H1            -17.5390966405       38.4895977139       14.2787503535  W2        19933           0.0000000000
     59799     19933  TIP3      H2            -16.8271466405       38.8731577139       12.9989503535  W2        19933           0.0000000000
     59800     19934  TIP3      OH2           -17.9544766405       37.8718677139       16.2617203535  W2        19934           0.0000000000
     59801     19934  TIP3      H1            -18.4416066405       37.1362777139       15.8904603535  W2        19934           0.0000000000
     59802     19934  TIP3      H2            -17.4052066405       37.4782577139       16.9396603535  W2        19934           0.0000000000
     59803     19935  TIP3      OH2           -19.5037466405       33.6616777139       20.8997503535  W2        19935           0.0000000000
     59804     19935  TIP3      H1            -20.3696366405       33.5566477139       21.2939803535  W2        19935           0.0000000000
     59805     19935  TIP3      H2            -19.1271566405       34.4200077139       21.3462203535  W2        19935           0.0000000000
     59806     19936  TIP3      OH2           -18.2027766405       31.9180477139        6.4140003535  W2        19936           0.0000000000
     59807     19936  TIP3      H1            -17.3526366405       32.3391377139        6.5411603535  W2        19936           0.0000000000
     59808     19936  TIP3      H2            -18.1972666405       31.1780577139        7.0211403535  W2        19936           0.0000000000
     59809     19937  TIP3      OH2           -17.8082166405       29.9717877139        8.2375703535  W2        19937           0.0000000000
     59810     19937  TIP3      H1            -18.5347566405       29.4920477139        8.6353303535  W2        19937           0.0000000000
     59811     19937  TIP3      H2            -17.2268866405       30.1772577139        8.9697303535  W2        19937           0.0000000000
     59812     19938  TIP3      OH2           -18.0490966405       32.7565377139       13.1853303535  W2        19938           0.0000000000
     59813     19938  TIP3      H1            -17.2156766405       32.3785377139       12.9046903535  W2        19938           0.0000000000
     59814     19938  TIP3      H2            -17.9370666405       33.6996577139       13.0662403535  W2        19938           0.0000000000
     59815     19939  TIP3      OH2           -19.5628666405       35.6342877139       15.4921703535  W2        19939           0.0000000000
     59816     19939  TIP3      H1            -20.2103366405       35.9594377139       16.1176903535  W2        19939           0.0000000000
     59817     19939  TIP3      H2            -20.0804666405       35.1940577139       14.8180003535  W2        19939           0.0000000000
     59818     19940  TIP3      OH2           -17.5399066405       29.8726377139        4.6287003535  W2        19940           0.0000000000
     59819     19940  TIP3      H1            -18.0617966405       30.2290477139        3.9097903535  W2        19940           0.0000000000
     59820     19940  TIP3      H2            -17.5729866405       30.5474177139        5.3067903535  W2        19940           0.0000000000
     59821     19941  TIP3      OH2           -19.1910066405       27.1121977139        3.1794103535  W2        19941           0.0000000000
     59822     19941  TIP3      H1            -19.0945666405       27.7788977139        2.4993803535  W2        19941           0.0000000000
     59823     19941  TIP3      H2            -19.3310466405       26.2968277139        2.6979603535  W2        19941           0.0000000000
     59824     19942  TIP3      OH2           -20.0215366405       28.4924377139        8.8004403535  W2        19942           0.0000000000
     59825     19942  TIP3      H1            -20.1716566405       27.5472977139        8.7802203535  W2        19942           0.0000000000
     59826     19942  TIP3      H2            -20.3750866405       28.7735777139        9.6443503535  W2        19942           0.0000000000
     59827     19943  TIP3      OH2           -34.9862966405       30.5706577139       12.8108203535  W2        19943           0.0000000000
     59828     19943  TIP3      H1            -34.8020066405       30.4888277139       11.8751103535  W2        19943           0.0000000000
     59829     19943  TIP3      H2            -34.1370066405       30.4463577139       13.2344603535  W2        19943           0.0000000000
     59830     19944  TIP3      OH2           -19.1652466405       30.4627677139       18.4392703535  W2        19944           0.0000000000
     59831     19944  TIP3      H1            -18.5825166405       29.7279977139       18.6309903535  W2        19944           0.0000000000
     59832     19944  TIP3      H2            -18.6013166405       31.2347977139       18.4858503535  W2        19944           0.0000000000
     59833     19945  TIP3      OH2           -17.6685366405       28.3653477139       19.1238103535  W2        19945           0.0000000000
     59834     19945  TIP3      H1            -18.5318666405       27.9865577139       18.9582803535  W2        19945           0.0000000000
     59835     19945  TIP3      H2            -17.0641666405       27.6268277139       19.0493903535  W2        19945           0.0000000000
     59836     19946  TIP3      OH2           -19.9436266405       24.5201777139        2.2969603535  W2        19946           0.0000000000
     59837     19946  TIP3      H1            -19.3330466405       24.1488577139        2.9337803535  W2        19946           0.0000000000
     59838     19946  TIP3      H2            -20.7804766405       24.0988677139        2.4929603535  W2        19946           0.0000000000
     59839     19947  TIP3      OH2           -20.3110566405       26.0750177139        7.2629503535  W2        19947           0.0000000000
     59840     19947  TIP3      H1            -20.0313466405       25.1680577139        7.3871203535  W2        19947           0.0000000000
     59841     19947  TIP3      H2            -19.5518866405       26.5091677139        6.8738703535  W2        19947           0.0000000000
     59842     19948  TIP3      OH2           -19.6992266405       26.6567577139       12.6988403535  W2        19948           0.0000000000
     59843     19948  TIP3      H1            -18.7664266405       26.8687477139       12.6644403535  W2        19948           0.0000000000
     59844     19948  TIP3      H2            -19.9344766405       26.7579677139       13.6211403535  W2        19948           0.0000000000
     59845     19949  TIP3      OH2           -19.6700366405       27.3932877139       15.4747803535  W2        19949           0.0000000000
     59846     19949  TIP3      H1            -20.5129066405       27.6613277139       15.8407603535  W2        19949           0.0000000000
     59847     19949  TIP3      H2            -19.2276066405       28.2154777139       15.2638903535  W2        19949           0.0000000000
     59848     19950  TIP3      OH2           -35.3888166405       25.8411577139       18.9517003535  W2        19950           0.0000000000
     59849     19950  TIP3      H1            -34.4693266405       25.7189877139       19.1880103535  W2        19950           0.0000000000
     59850     19950  TIP3      H2            -35.8383666405       25.0911277139       19.3410503535  W2        19950           0.0000000000
     59851     19951  TIP3      OH2           -17.3868766405       21.3733077139       20.8282803535  W2        19951           0.0000000000
     59852     19951  TIP3      H1            -17.0371766405       20.7196577139       20.2227503535  W2        19951           0.0000000000
     59853     19951  TIP3      H2            -17.2399266405       22.2107177139       20.3885403535  W2        19951           0.0000000000
     59854     19952  TIP3      OH2           -19.6975766405       23.3379477139        7.3111503535  W2        19952           0.0000000000
     59855     19952  TIP3      H1            -19.5150766405       22.8890977139        8.1366503535  W2        19952           0.0000000000
     59856     19952  TIP3      H2            -20.2972866405       22.7533877139        6.8476103535  W2        19952           0.0000000000
     59857     19953  TIP3      OH2           -34.1675666405       24.1533177139       11.8429903535  W2        19953           0.0000000000
     59858     19953  TIP3      H1            -33.7224066405       23.3615677139       12.1449603535  W2        19953           0.0000000000
     59859     19953  TIP3      H2            -33.7012666405       24.8698377139       12.2735503535  W2        19953           0.0000000000
     59860     19954  TIP3      OH2           -35.8635366405       27.1526177139       12.9120103535  W2        19954           0.0000000000
     59861     19954  TIP3      H1            -35.3715566405       26.9316677139       12.1212103535  W2        19954           0.0000000000
     59862     19954  TIP3      H2            -35.5014466405       27.9929577139       13.1929603535  W2        19954           0.0000000000
     59863     19955  TIP3      OH2           -17.8671566405       23.4827677139       19.1774103535  W2        19955           0.0000000000
     59864     19955  TIP3      H1            -18.7845866405       23.7534777139       19.1417603535  W2        19955           0.0000000000
     59865     19955  TIP3      H2            -17.7442166405       22.9476077139       18.3933803535  W2        19955           0.0000000000
     59866     19956  TIP3      OH2           -17.8309566405       23.4057577139        3.8391803535  W2        19956           0.0000000000
     59867     19956  TIP3      H1            -17.4186966405       22.6843277139        3.3639803535  W2        19956           0.0000000000
     59868     19956  TIP3      H2            -17.1493066405       24.0752177139        3.8976103535  W2        19956           0.0000000000
     59869     19957  TIP3      OH2           -35.5498866405       23.4105277139        6.9662503535  W2        19957           0.0000000000
     59870     19957  TIP3      H1            -36.4750466405       23.6191877139        6.8368003535  W2        19957           0.0000000000
     59871     19957  TIP3      H2            -35.0958966405       23.8946077139        6.2764803535  W2        19957           0.0000000000
     59872     19958  TIP3      OH2           -20.7791666405       38.3946977139        8.9119903535  W2        19958           0.0000000000
     59873     19958  TIP3      H1            -20.1268766405       38.0469077139        8.3039003535  W2        19958           0.0000000000
     59874     19958  TIP3      H2            -20.2687866405       38.8830177139        9.5579603535  W2        19958           0.0000000000
     59875     19959  TIP3      OH2           -35.5863466405       22.1484277139       15.3105003535  W2        19959           0.0000000000
     59876     19959  TIP3      H1            -36.2512966405       21.9024577139       15.9535903535  W2        19959           0.0000000000
     59877     19959  TIP3      H2            -36.0292166405       22.7704677139       14.7333003535  W2        19959           0.0000000000
     59878     19960  TIP3      OH2           -33.3944166405       35.3238377139       19.4550803535  W2        19960           0.0000000000
     59879     19960  TIP3      H1            -34.2151666405       35.4984877139       18.9945503535  W2        19960           0.0000000000
     59880     19960  TIP3      H2            -33.6466366405       35.2503077139       20.3755203535  W2        19960           0.0000000000
     59881     19961  TIP3      OH2           -30.4401266405       36.2979577139       15.7134803535  W2        19961           0.0000000000
     59882     19961  TIP3      H1            -30.8650166405       37.1078077139       15.4309403535  W2        19961           0.0000000000
     59883     19961  TIP3      H2            -29.5358466405       36.3833677139       15.4114603535  W2        19961           0.0000000000
     59884     19962  TIP3      OH2           -26.1289866405       37.6969577139       18.6728503535  W2        19962           0.0000000000
     59885     19962  TIP3      H1            -25.9442366405       37.3635677139       19.5508803535  W2        19962           0.0000000000
     59886     19962  TIP3      H2            -25.2825366405       38.0068177139       18.3507703535  W2        19962           0.0000000000
     59887     19963  TIP3      OH2           -23.7839466405       38.9828477139       17.9169903535  W2        19963           0.0000000000
     59888     19963  TIP3      H1            -23.1070566405       38.3500777139       17.6769103535  W2        19963           0.0000000000
     59889     19963  TIP3      H2            -23.4620666405       39.3838977139       18.7243203535  W2        19963           0.0000000000
     59890     19964  TIP3      OH2           -18.8665666405       21.5723977139       16.9964903535  W2        19964           0.0000000000
     59891     19964  TIP3      H1            -19.6792166405       21.8974277139       16.6089603535  W2        19964           0.0000000000
     59892     19964  TIP3      H2            -18.6337166405       20.8122477139       16.4634003535  W2        19964           0.0000000000
     59893     19965  TIP3      OH2           -33.0384566405       39.5543477139       15.7610103535  W2        19965           0.0000000000
     59894     19965  TIP3      H1            -33.7588166405       39.9944477139       15.3097803535  W2        19965           0.0000000000
     59895     19965  TIP3      H2            -33.4040566405       39.3038177139       16.6094103535  W2        19965           0.0000000000
     59896     19966  TIP3      OH2           -30.5711966405       39.1547377139       14.7907303535  W2        19966           0.0000000000
     59897     19966  TIP3      H1            -31.4359766405       39.2265877139       15.1947403535  W2        19966           0.0000000000
     59898     19966  TIP3      H2            -30.6262966405       39.7014677139       14.0069803535  W2        19966           0.0000000000
     59899     19967  TIP3      OH2           -25.8606366405       39.0426277139       13.9663303535  W2        19967           0.0000000000
     59900     19967  TIP3      H1            -26.3172366405       39.5715977139       13.3121703535  W2        19967           0.0000000000
     59901     19967  TIP3      H2            -25.6978366405       39.6457677139       14.6915603535  W2        19967           0.0000000000
     59902     19968  TIP3      OH2           -23.5330066405       37.9205877139       14.9113603535  W2        19968           0.0000000000
     59903     19968  TIP3      H1            -24.4376366405       38.0856077139       14.6455703535  W2        19968           0.0000000000
     59904     19968  TIP3      H2            -23.1041466405       38.7738077139       14.8457003535  W2        19968           0.0000000000
     59905     19969  TIP3      OH2           -20.9288166405       39.4904977139       15.2061403535  W2        19969           0.0000000000
     59906     19969  TIP3      H1            -21.1106166405       40.4063877139       14.9956303535  W2        19969           0.0000000000
     59907     19969  TIP3      H2            -20.7520366405       39.0802077139       14.3596003535  W2        19969           0.0000000000
     59908     19970  TIP3      OH2           -33.6236466405       38.1775977139       12.6711903535  W2        19970           0.0000000000
     59909     19970  TIP3      H1            -33.6420466405       37.7521077139       13.5284203535  W2        19970           0.0000000000
     59910     19970  TIP3      H2            -32.8188566405       37.8590977139       12.2624103535  W2        19970           0.0000000000
     59911     19971  TIP3      OH2           -31.4823366405       36.8874677139       11.3261803535  W2        19971           0.0000000000
     59912     19971  TIP3      H1            -31.7012666405       35.9712077139       11.4957803535  W2        19971           0.0000000000
     59913     19971  TIP3      H2            -30.6581166405       37.0275077139       11.7923203535  W2        19971           0.0000000000
     59914     19972  TIP3      OH2           -28.9450866405       37.3573977139       12.1749803535  W2        19972           0.0000000000
     59915     19972  TIP3      H1            -28.7325166405       36.4692977139       11.8880703535  W2        19972           0.0000000000
     59916     19972  TIP3      H2            -28.8805766405       37.3231677139       13.1293803535  W2        19972           0.0000000000
     59917     19973  TIP3      OH2           -25.4367166405       23.0214577139       11.3193103535  W2        19973           0.0000000000
     59918     19973  TIP3      H1            -26.1110366405       22.3920177139       11.5748903535  W2        19973           0.0000000000
     59919     19973  TIP3      H2            -24.8727966405       22.5373477139       10.7161003535  W2        19973           0.0000000000
     59920     19974  TIP3      OH2           -20.2939966405       21.1288577139       11.4320203535  W2        19974           0.0000000000
     59921     19974  TIP3      H1            -19.6902366405       21.6763977139       10.9301203535  W2        19974           0.0000000000
     59922     19974  TIP3      H2            -21.1637966405       21.4478977139       11.1914303535  W2        19974           0.0000000000
     59923     19975  TIP3      OH2           -18.5669566405       22.2677277139        9.7651103535  W2        19975           0.0000000000
     59924     19975  TIP3      H1            -17.9552066405       21.7532977139        9.2384703535  W2        19975           0.0000000000
     59925     19975  TIP3      H2            -18.1846166405       23.1449377139        9.7885503535  W2        19975           0.0000000000
     59926     19976  TIP3      OH2           -33.1099666405       21.6554877139        9.1413003535  W2        19976           0.0000000000
     59927     19976  TIP3      H1            -33.8869866405       21.4209777139        8.6338903535  W2        19976           0.0000000000
     59928     19976  TIP3      H2            -32.5796066405       20.8586977139        9.1501003535  W2        19976           0.0000000000
     59929     19977  TIP3      OH2           -34.2736266405       21.4532977139        4.9449103535  W2        19977           0.0000000000
     59930     19977  TIP3      H1            -33.8345566405       22.0643477139        4.3532603535  W2        19977           0.0000000000
     59931     19977  TIP3      H2            -34.9073866405       21.9917077139        5.4189103535  W2        19977           0.0000000000
     59932     19978  TIP3      OH2           -28.5307066405       21.5821977139        8.9546103535  W2        19978           0.0000000000
     59933     19978  TIP3      H1            -27.6563666405       21.9706277139        8.9250403535  W2        19978           0.0000000000
     59934     19978  TIP3      H2            -28.6666266405       21.3669777139        9.8773303535  W2        19978           0.0000000000
     59935     19979  TIP3      OH2           -22.9738666405       21.6121777139       10.6037803535  W2        19979           0.0000000000
     59936     19979  TIP3      H1            -22.8977066405       21.7073377139        9.6543803535  W2        19979           0.0000000000
     59937     19979  TIP3      H2            -23.2489466405       20.7044677139       10.7326903535  W2        19979           0.0000000000
     59938     19980  TIP3      OH2           -21.6206066405       21.6379577139        6.2962803535  W2        19980           0.0000000000
     59939     19980  TIP3      H1            -22.3234966405       22.2528777139        6.0864203535  W2        19980           0.0000000000
     59940     19980  TIP3      H2            -22.0654666405       20.8006277139        6.4273703535  W2        19980           0.0000000000
     59941     19981  TIP3      OH2           -34.3726766405       37.4015177139        5.8424203535  W2        19981           0.0000000000
     59942     19981  TIP3      H1            -35.0576866405       37.3634077139        5.1749303535  W2        19981           0.0000000000
     59943     19981  TIP3      H2            -34.3689566405       38.3142777139        6.1306303535  W2        19981           0.0000000000
     59944     19982  TIP3      OH2           -32.4127166405       23.3694477139        3.3873203535  W2        19982           0.0000000000
     59945     19982  TIP3      H1            -31.9213766405       22.7396877139        2.8598703535  W2        19982           0.0000000000
     59946     19982  TIP3      H2            -31.7890866405       23.6653877139        4.0504403535  W2        19982           0.0000000000
     59947     19983  TIP3      OH2           -27.3867066405       23.6625977139        5.8443703535  W2        19983           0.0000000000
     59948     19983  TIP3      H1            -27.2085766405       23.0159177139        6.5272303535  W2        19983           0.0000000000
     59949     19983  TIP3      H2            -27.4400866405       24.4963677139        6.3114803535  W2        19983           0.0000000000
     59950     19984  TIP3      OH2           -25.5083266405       38.6110077139        4.2400403535  W2        19984           0.0000000000
     59951     19984  TIP3      H1            -24.6423066405       38.9777477139        4.0618603535  W2        19984           0.0000000000
     59952     19984  TIP3      H2            -25.7550466405       38.1718077139        3.4261203535  W2        19984           0.0000000000
     59953     19985  TIP3      OH2           -18.7993666405       38.1740377139        6.9191503535  W2        19985           0.0000000000
     59954     19985  TIP3      H1            -18.9936566405       37.4262477139        6.3541103535  W2        19985           0.0000000000
     59955     19985  TIP3      H2            -18.8383566405       38.9320477139        6.3359403535  W2        19985           0.0000000000
     59956     19986  TIP3      OH2           -33.1521666405       22.1696777139       18.6589203535  W2        19986           0.0000000000
     59957     19986  TIP3      H1            -33.5183466405       21.4039377139       19.1013903535  W2        19986           0.0000000000
     59958     19986  TIP3      H2            -32.2393166405       22.1986977139       18.9454303535  W2        19986           0.0000000000
     59959     19987  TIP3      OH2           -31.1790866405       21.5201177139       20.1946303535  W2        19987           0.0000000000
     59960     19987  TIP3      H1            -30.2807266405       21.2461377139       20.0099703535  W2        19987           0.0000000000
     59961     19987  TIP3      H2            -31.5657766405       20.7777177139       20.6588903535  W2        19987           0.0000000000
     59962     19988  TIP3      OH2           -32.5545566405       38.3215977139        2.8676303535  W2        19988           0.0000000000
     59963     19988  TIP3      H1            -32.8220966405       38.6078877139        3.7409403535  W2        19988           0.0000000000
     59964     19988  TIP3      H2            -31.7832966405       37.7755177139        3.0198803535  W2        19988           0.0000000000
     59965     19989  TIP3      OH2           -22.7578566405       20.8526477139       20.3769103535  W2        19989           0.0000000000
     59966     19989  TIP3      H1            -22.6811366405       20.4267177139       21.2306803535  W2        19989           0.0000000000
     59967     19989  TIP3      H2            -21.8641966405       20.8661177139       20.0342603535  W2        19989           0.0000000000
     59968     19990  TIP3      OH2           -19.5817466405       36.9252777139       19.0693303535  W2        19990           0.0000000000
     59969     19990  TIP3      H1            -20.3635566405       36.7390777139       18.5493903535  W2        19990           0.0000000000
     59970     19990  TIP3      H2            -19.6537566405       37.8547077139       19.2865803535  W2        19990           0.0000000000
     59971     19991  TIP3      OH2            -5.1757066405       30.8117177139        9.1000503535  W2        19991           0.0000000000
     59972     19991  TIP3      H1             -5.0865966405       31.7555377139        8.9677603535  W2        19991           0.0000000000
     59973     19991  TIP3      H2             -5.8139466405       30.5363577139        8.4419903535  W2        19991           0.0000000000
     59974     19992  TIP3      OH2            -6.2425766405       30.0667877139       12.5188703535  W2        19992           0.0000000000
     59975     19992  TIP3      H1             -6.2808266405       29.4204177139       13.2238303535  W2        19992           0.0000000000
     59976     19992  TIP3      H2             -6.5649266405       29.6002277139       11.7477403535  W2        19992           0.0000000000
     59977     19993  TIP3      OH2           -13.8740766405       29.6809977139       14.1118603535  W2        19993           0.0000000000
     59978     19993  TIP3      H1            -13.8328666405       29.0553277139       14.8351003535  W2        19993           0.0000000000
     59979     19993  TIP3      H2            -13.1713066405       30.3048577139       14.2939003535  W2        19993           0.0000000000
     59980     19994  TIP3      OH2            -2.5365566405       33.0058277139       10.8203803535  W2        19994           0.0000000000
     59981     19994  TIP3      H1             -2.9772866405       32.2854277139       11.2709403535  W2        19994           0.0000000000
     59982     19994  TIP3      H2             -2.5495866405       33.7265477139       11.4501503535  W2        19994           0.0000000000
     59983     19995  TIP3      OH2           -12.9507666405       34.1308877139       12.6467703535  W2        19995           0.0000000000
     59984     19995  TIP3      H1            -13.3202466405       33.3289377139       12.2772003535  W2        19995           0.0000000000
     59985     19995  TIP3      H2            -12.0096566405       33.9623777139       12.6931103535  W2        19995           0.0000000000
     59986     19996  TIP3      OH2           -16.3407166405       27.7911477139        8.0396503535  W2        19996           0.0000000000
     59987     19996  TIP3      H1            -16.7883766405       28.6370177139        8.0213003535  W2        19996           0.0000000000
     59988     19996  TIP3      H2            -16.9015966405       27.2115677139        7.5241603535  W2        19996           0.0000000000
     59989     19997  TIP3      OH2           -15.6301066405       29.9531077139       10.1654503535  W2        19997           0.0000000000
     59990     19997  TIP3      H1            -15.4167566405       29.1832677139       10.6927503535  W2        19997           0.0000000000
     59991     19997  TIP3      H2            -14.8923466405       30.0427777139        9.5622103535  W2        19997           0.0000000000
     59992     19998  TIP3      OH2            -5.4250066405       38.1099977139       11.0324203535  W2        19998           0.0000000000
     59993     19998  TIP3      H1             -4.8053666405       37.4334677139       10.7593403535  W2        19998           0.0000000000
     59994     19998  TIP3      H2             -5.6332666405       37.8920777139       11.9409103535  W2        19998           0.0000000000
     59995     19999  TIP3      OH2            -7.8531366405       32.4989277139       12.9249703535  W2        19999           0.0000000000
     59996     19999  TIP3      H1             -7.5493466405       31.8130677139       12.3303803535  W2        19999           0.0000000000
     59997     19999  TIP3      H2             -7.1317366405       32.6177977139       13.5427703535  W2        19999           0.0000000000
     59998     20000  TIP3      OH2             0.8098433595       24.1004577139       13.7855903535  W2        20000           0.0000000000
     59999     20000  TIP3      H1              0.8590633595       24.7105777139       14.5215003535  W2        20000           0.0000000000
     60000     20000  TIP3      H2              1.2353533595       24.5615477139       13.0627003535  W2        20000           0.0000000000
     60001     20001  TIP3      OH2            -4.7124366405       26.8931677139       13.2524503535  W2        20001           0.0000000000
     60002     20001  TIP3      H1             -4.5698466405       25.9468677139       13.2726103535  W2        20001           0.0000000000
     60003     20001  TIP3      H2             -4.8185366405       27.1001477139       12.3239403535  W2        20001           0.0000000000
     60004     20002  TIP3      OH2           -11.5576066405       24.9948077139       10.5249303535  W2        20002           0.0000000000
     60005     20002  TIP3      H1            -11.5144966405       25.8546577139       10.1065603535  W2        20002           0.0000000000
     60006     20002  TIP3      H2            -12.0151966405       24.4422777139        9.8912503535  W2        20002           0.0000000000
     60007     20003  TIP3      OH2            -3.8353366405       25.1253677139        8.9257603535  W2        20003           0.0000000000
     60008     20003  TIP3      H1             -3.1889066405       24.7966877139        9.5505203535  W2        20003           0.0000000000
     60009     20003  TIP3      H2             -3.3253966405       25.6432677139        8.3029003535  W2        20003           0.0000000000
     60010     20004  TIP3      OH2           -14.9374566405       27.3913877139       11.2870703535  W2        20004           0.0000000000
     60011     20004  TIP3      H1            -14.2837966405       26.8415577139       11.7190803535  W2        20004           0.0000000000
     60012     20004  TIP3      H2            -14.9135266405       27.1172877139       10.3702703535  W2        20004           0.0000000000
     60013     20005  TIP3      OH2            -9.7810066405       28.9415177139       10.5022203535  W2        20005           0.0000000000
     60014     20005  TIP3      H1             -9.1649066405       28.4150577139       11.0116203535  W2        20005           0.0000000000
     60015     20005  TIP3      H2            -10.3671266405       28.3013877139       10.0985803535  W2        20005           0.0000000000
     60016     20006  TIP3      OH2             1.2013033595       25.5783777139       16.0215703535  W2        20006           0.0000000000
     60017     20006  TIP3      H1              0.5127633595       26.2364477139       15.9262303535  W2        20006           0.0000000000
     60018     20006  TIP3      H2              1.2167633595       25.3811677139       16.9581103535  W2        20006           0.0000000000
     60019     20007  TIP3      OH2           -12.7474166405       23.9126477139       14.5990103535  W2        20007           0.0000000000
     60020     20007  TIP3      H1            -12.9662466405       24.4427077139       13.8326103535  W2        20007           0.0000000000
     60021     20007  TIP3      H2            -13.4153266405       24.1391977139       15.2461503535  W2        20007           0.0000000000
     60022     20008  TIP3      OH2            -5.3784366405       33.4127577139        8.1429203535  W2        20008           0.0000000000
     60023     20008  TIP3      H1             -5.6739266405       33.0899877139        7.2916103535  W2        20008           0.0000000000
     60024     20008  TIP3      H2             -5.7026566405       34.3124277139        8.1841803535  W2        20008           0.0000000000
     60025     20009  TIP3      OH2           -10.1782766405       31.5882177139       14.8863803535  W2        20009           0.0000000000
     60026     20009  TIP3      H1            -10.9183666405       32.1863677139       14.9899003535  W2        20009           0.0000000000
     60027     20009  TIP3      H2             -9.4643266405       32.1421777139       14.5707403535  W2        20009           0.0000000000
     60028     20010  TIP3      OH2            -2.0714966405       24.4162977139       10.9063503535  W2        20010           0.0000000000
     60029     20010  TIP3      H1             -2.2866966405       23.6506377139       11.4389503535  W2        20010           0.0000000000
     60030     20010  TIP3      H2             -1.4157566405       24.8887577139       11.4192003535  W2        20010           0.0000000000
     60031     20011  TIP3      OH2           -13.1536866405       25.8048277139       12.5512303535  W2        20011           0.0000000000
     60032     20011  TIP3      H1            -12.5400566405       26.4375877139       12.9244703535  W2        20011           0.0000000000
     60033     20011  TIP3      H2            -12.6416166405       25.3323277139       11.8949203535  W2        20011           0.0000000000
     60034     20012  TIP3      OH2           -11.7708466405       33.5525177139       15.6735303535  W2        20012           0.0000000000
     60035     20012  TIP3      H1            -11.7760866405       34.4318677139       15.2954603535  W2        20012           0.0000000000
     60036     20012  TIP3      H2            -12.6244366405       33.4689277139       16.0985203535  W2        20012           0.0000000000
     60037     20013  TIP3      OH2           -15.6497566405       33.2233077139        6.4554603535  W2        20013           0.0000000000
     60038     20013  TIP3      H1            -15.9216666405       33.4524077139        5.5667503535  W2        20013           0.0000000000
     60039     20013  TIP3      H2            -15.6041866405       34.0611877139        6.9159903535  W2        20013           0.0000000000
     60040     20014  TIP3      OH2            -2.0247866405       34.8448977139       13.1683103535  W2        20014           0.0000000000
     60041     20014  TIP3      H1             -2.9664166405       34.9032877139       13.3300003535  W2        20014           0.0000000000
     60042     20014  TIP3      H2             -1.7481766405       35.7509477139       13.0312803535  W2        20014           0.0000000000
     60043     20015  TIP3      OH2            -1.7240866405       23.1314277139       14.5857003535  W2        20015           0.0000000000
     60044     20015  TIP3      H1             -2.4601666405       23.7421377139       14.5478303535  W2        20015           0.0000000000
     60045     20015  TIP3      H2             -1.0406866405       23.5463277139       14.0593403535  W2        20015           0.0000000000
     60046     20016  TIP3      OH2            -8.7209466405       21.2181577139       12.0515003535  W2        20016           0.0000000000
     60047     20016  TIP3      H1             -8.8385266405       20.2697577139       11.9973303535  W2        20016           0.0000000000
     60048     20016  TIP3      H2             -9.5759366405       21.5507677139       12.3246103535  W2        20016           0.0000000000
     60049     20017  TIP3      OH2            -3.7726666405       36.6262477139        9.7934703535  W2        20017           0.0000000000
     60050     20017  TIP3      H1             -3.3474366405       35.9190377139        9.3084303535  W2        20017           0.0000000000
     60051     20017  TIP3      H2             -3.4556666405       37.4275177139        9.3766903535  W2        20017           0.0000000000
     60052     20018  TIP3      OH2            -2.6130166405       34.5270977139        8.3021303535  W2        20018           0.0000000000
     60053     20018  TIP3      H1             -2.8705366405       33.8371077139        7.6907203535  W2        20018           0.0000000000
     60054     20018  TIP3      H2             -2.5419366405       34.0842177139        9.1477203535  W2        20018           0.0000000000
     60055     20019  TIP3      OH2            -0.9269966405       33.0937677139       16.7794803535  W2        20019           0.0000000000
     60056     20019  TIP3      H1             -0.7873666405       32.5020177139       16.0401803535  W2        20019           0.0000000000
     60057     20019  TIP3      H2             -0.7597166405       33.9663577139       16.4233603535  W2        20019           0.0000000000
     60058     20020  TIP3      OH2            -6.4544566405       30.0557177139        6.5520803535  W2        20020           0.0000000000
     60059     20020  TIP3      H1             -7.1659066405       30.5906877139        6.2001303535  W2        20020           0.0000000000
     60060     20020  TIP3      H2             -5.7634966405       30.1109277139        5.8919703535  W2        20020           0.0000000000
     60061     20021  TIP3      OH2            -6.4005366405       28.5131477139        3.5905803535  W2        20021           0.0000000000
     60062     20021  TIP3      H1             -5.6995466405       28.5358377139        4.2419803535  W2        20021           0.0000000000
     60063     20021  TIP3      H2             -6.0982466405       27.8851177139        2.9345103535  W2        20021           0.0000000000
     60064     20022  TIP3      OH2             0.9149333595       29.4335677139       14.8455203535  W2        20022           0.0000000000
     60065     20022  TIP3      H1              0.2623433595       30.1281277139       14.9346103535  W2        20022           0.0000000000
     60066     20022  TIP3      H2              1.3799633595       29.6436577139       14.0356803535  W2        20022           0.0000000000
     60067     20023  TIP3      OH2            -3.0486866405       30.2650477139        7.5036703535  W2        20023           0.0000000000
     60068     20023  TIP3      H1             -3.7805866405       30.4934177139        8.0767303535  W2        20023           0.0000000000
     60069     20023  TIP3      H2             -2.6014666405       29.5513177139        7.9584203535  W2        20023           0.0000000000
     60070     20024  TIP3      OH2            -3.1513366405       28.4393077139       16.5713703535  W2        20024           0.0000000000
     60071     20024  TIP3      H1             -3.0714266405       29.2027477139       17.1432203535  W2        20024           0.0000000000
     60072     20024  TIP3      H2             -3.7525666405       28.7185477139       15.8808803535  W2        20024           0.0000000000
     60073     20025  TIP3      OH2           -11.4033166405       30.8956677139        9.3861703535  W2        20025           0.0000000000
     60074     20025  TIP3      H1            -11.7337966405       30.5250077139        8.5678703535  W2        20025           0.0000000000
     60075     20025  TIP3      H2            -10.8149066405       30.2250677139        9.7330003535  W2        20025           0.0000000000
     60076     20026  TIP3      OH2           -10.0365666405       34.3237277139       12.0673903535  W2        20026           0.0000000000
     60077     20026  TIP3      H1            -10.1314366405       33.7450377139       11.3108503535  W2        20026           0.0000000000
     60078     20026  TIP3      H2             -9.3072066405       33.9522977139       12.5636703535  W2        20026           0.0000000000
     60079     20027  TIP3      OH2           -11.0367666405       29.6642277139       13.0196703535  W2        20027           0.0000000000
     60080     20027  TIP3      H1            -10.4715166405       29.7856477139       12.2567903535  W2        20027           0.0000000000
     60081     20027  TIP3      H2            -10.7178766405       30.3017277139       13.6585203535  W2        20027           0.0000000000
     60082     20028  TIP3      OH2            -4.7275466405       35.1674177139       13.7537203535  W2        20028           0.0000000000
     60083     20028  TIP3      H1             -4.9678866405       35.8297277139       14.4016403535  W2        20028           0.0000000000
     60084     20028  TIP3      H2             -4.9257266405       34.3329377139       14.1786803535  W2        20028           0.0000000000
     60085     20029  TIP3      OH2           -10.1566966405       34.0634977139       17.7368603535  W2        20029           0.0000000000
     60086     20029  TIP3      H1            -10.4679466405       34.8458177139       18.1921803535  W2        20029           0.0000000000
     60087     20029  TIP3      H2            -10.8066766405       33.9104077139       17.0510603535  W2        20029           0.0000000000
     60088     20030  TIP3      OH2            -4.1777366405       29.4273377139        5.1887903535  W2        20030           0.0000000000
     60089     20030  TIP3      H1             -3.5981866405       29.5773677139        5.9356803535  W2        20030           0.0000000000
     60090     20030  TIP3      H2             -3.7637366405       29.8980777139        4.4654303535  W2        20030           0.0000000000
     60091     20031  TIP3      OH2           -13.2367066405       30.2616077139       16.9654303535  W2        20031           0.0000000000
     60092     20031  TIP3      H1            -13.1663866405       30.9122877139       17.6639303535  W2        20031           0.0000000000
     60093     20031  TIP3      H2            -14.1274866405       30.3643577139       16.6305203535  W2        20031           0.0000000000
     60094     20032  TIP3      OH2            -6.4512466405       36.1641877139        8.6241003535  W2        20032           0.0000000000
     60095     20032  TIP3      H1             -5.9774866405       36.4598177139        9.4015203535  W2        20032           0.0000000000
     60096     20032  TIP3      H2             -7.0143166405       36.9023477139        8.3910603535  W2        20032           0.0000000000
     60097     20033  TIP3      OH2           -11.9171066405       36.1349977139       18.5002403535  W2        20033           0.0000000000
     60098     20033  TIP3      H1            -11.9095766405       35.9989677139       17.5527903535  W2        20033           0.0000000000
     60099     20033  TIP3      H2            -12.8330666405       36.0178077139       18.7522403535  W2        20033           0.0000000000
     60100     20034  TIP3      OH2            -0.4788966405       21.1773777139        5.0017603535  W2        20034           0.0000000000
     60101     20034  TIP3      H1             -1.3788266405       21.3162777139        5.2968203535  W2        20034           0.0000000000
     60102     20034  TIP3      H2             -0.2270566405       22.0088377139        4.5999303535  W2        20034           0.0000000000
     60103     20035  TIP3      OH2           -12.4130466405       29.9650977139        6.9754503535  W2        20035           0.0000000000
     60104     20035  TIP3      H1            -12.7049166405       30.7332677139        6.4845803535  W2        20035           0.0000000000
     60105     20035  TIP3      H2            -13.0875266405       29.3057177139        6.8125903535  W2        20035           0.0000000000
     60106     20036  TIP3      OH2             0.7102433595       35.5436177139        3.3781503535  W2        20036           0.0000000000
     60107     20036  TIP3      H1              0.7835933595       36.4826377139        3.5486803535  W2        20036           0.0000000000
     60108     20036  TIP3      H2              1.6157533595       35.2384777139        3.3218803535  W2        20036           0.0000000000
     60109     20037  TIP3      OH2           -16.3200366405       32.3280177139       15.7904303535  W2        20037           0.0000000000
     60110     20037  TIP3      H1            -16.8211966405       32.2999577139       14.9754003535  W2        20037           0.0000000000
     60111     20037  TIP3      H2            -16.3146666405       31.4223377139       16.1001603535  W2        20037           0.0000000000
     60112     20038  TIP3      OH2           -16.5697666405       35.1083977139       12.6744503535  W2        20038           0.0000000000
     60113     20038  TIP3      H1            -15.6237066405       34.9640977139       12.6554003535  W2        20038           0.0000000000
     60114     20038  TIP3      H2            -16.6821366405       35.8926777139       13.2115703535  W2        20038           0.0000000000
     60115     20039  TIP3      OH2             1.6280833595       35.7743677139       18.3568203535  W2        20039           0.0000000000
     60116     20039  TIP3      H1              1.5787633595       34.8191777139       18.3195803535  W2        20039           0.0000000000
     60117     20039  TIP3      H2              0.8013133595       36.0418977139       18.7582003535  W2        20039           0.0000000000
     60118     20040  TIP3      OH2            -7.3935166405       35.3482877139       17.2329603535  W2        20040           0.0000000000
     60119     20040  TIP3      H1             -7.3060566405       36.1747477139       17.7078703535  W2        20040           0.0000000000
     60120     20040  TIP3      H2             -8.2570066405       35.0186677139       17.4818903535  W2        20040           0.0000000000
     60121     20041  TIP3      OH2            -6.9789366405       39.1206577139        7.0390203535  W2        20041           0.0000000000
     60122     20041  TIP3      H1             -7.0543366405       38.9993777139        6.0925403535  W2        20041           0.0000000000
     60123     20041  TIP3      H2             -6.9460666405       40.0699277139        7.1574803535  W2        20041           0.0000000000
     60124     20042  TIP3      OH2           -13.3255566405       37.9093577139        8.8199203535  W2        20042           0.0000000000
     60125     20042  TIP3      H1            -13.1735166405       37.5613977139        9.6985703535  W2        20042           0.0000000000
     60126     20042  TIP3      H2            -14.1765166405       37.5530877139        8.5646403535  W2        20042           0.0000000000
     60127     20043  TIP3      OH2            -3.8773366405       38.2746777139        4.0412603535  W2        20043           0.0000000000
     60128     20043  TIP3      H1             -3.5024966405       37.5302877139        3.5705203535  W2        20043           0.0000000000
     60129     20043  TIP3      H2             -3.8729666405       38.0047377139        4.9595903535  W2        20043           0.0000000000
     60130     20044  TIP3      OH2            -4.2085266405       38.2003877139        6.7904803535  W2        20044           0.0000000000
     60131     20044  TIP3      H1             -5.1435466405       38.3005777139        6.9691803535  W2        20044           0.0000000000
     60132     20044  TIP3      H2             -3.9283366405       37.4909877139        7.3688003535  W2        20044           0.0000000000
     60133     20045  TIP3      OH2            -1.2199366405       27.2676177139       18.8370403535  W2        20045           0.0000000000
     60134     20045  TIP3      H1             -1.6272566405       27.7481777139       18.1163703535  W2        20045           0.0000000000
     60135     20045  TIP3      H2             -1.1793666405       26.3622177139       18.5291203535  W2        20045           0.0000000000
     60136     20046  TIP3      OH2           -14.0709866405       33.6515577139       16.8337103535  W2        20046           0.0000000000
     60137     20046  TIP3      H1            -13.8548566405       33.2901177139       17.6932903535  W2        20046           0.0000000000
     60138     20046  TIP3      H2            -14.9265166405       33.2769377139       16.6240603535  W2        20046           0.0000000000
     60139     20047  TIP3      OH2           -11.4521866405       22.1216077139       12.8291303535  W2        20047           0.0000000000
     60140     20047  TIP3      H1            -12.3138166405       22.0344277139       12.4214203535  W2        20047           0.0000000000
     60141     20047  TIP3      H2            -11.4746166405       22.9776177139       13.2568903535  W2        20047           0.0000000000
     60142     20048  TIP3      OH2            -6.7894066405       21.8436477139       16.2038303535  W2        20048           0.0000000000
     60143     20048  TIP3      H1             -6.3690966405       21.4283577139       16.9568903535  W2        20048           0.0000000000
     60144     20048  TIP3      H2             -7.7224466405       21.6649777139       16.3210303535  W2        20048           0.0000000000
     60145     20049  TIP3      OH2            -3.4629166405       25.5991677139       17.0572803535  W2        20049           0.0000000000
     60146     20049  TIP3      H1             -3.9769666405       25.4733877139       17.8548803535  W2        20049           0.0000000000
     60147     20049  TIP3      H2             -3.6184466405       26.5114777139       16.8129003535  W2        20049           0.0000000000
     60148     20050  TIP3      OH2            -2.7004266405       30.4601677139        2.8185803535  W2        20050           0.0000000000
     60149     20050  TIP3      H1             -2.6583466405       30.2375577139        1.8885803535  W2        20050           0.0000000000
     60150     20050  TIP3      H2             -1.8512166405       30.8588777139        3.0085703535  W2        20050           0.0000000000
     60151     20051  TIP3      OH2            -7.1276766405       24.3359877139        3.4889103535  W2        20051           0.0000000000
     60152     20051  TIP3      H1             -7.3811966405       24.3551477139        4.4117203535  W2        20051           0.0000000000
     60153     20051  TIP3      H2             -7.3844666405       23.4645277139        3.1875303535  W2        20051           0.0000000000
     60154     20052  TIP3      OH2           -11.3611766405       27.0870577139       13.9241503535  W2        20052           0.0000000000
     60155     20052  TIP3      H1            -12.0029666405       27.0467877139       14.6331603535  W2        20052           0.0000000000
     60156     20052  TIP3      H2            -11.3239766405       28.0135277139       13.6864503535  W2        20052           0.0000000000
     60157     20053  TIP3      OH2           -11.3642666405       27.3080677139        8.8361503535  W2        20053           0.0000000000
     60158     20053  TIP3      H1            -12.2569766405       26.9676777139        8.7775303535  W2        20053           0.0000000000
     60159     20053  TIP3      H2            -10.9136066405       26.9311577139        8.0804703535  W2        20053           0.0000000000
     60160     20054  TIP3      OH2            -5.8287166405       27.7240977139        7.6532303535  W2        20054           0.0000000000
     60161     20054  TIP3      H1             -6.2376866405       28.5389577139        7.3617103535  W2        20054           0.0000000000
     60162     20054  TIP3      H2             -5.1080966405       27.5841077139        7.0389403535  W2        20054           0.0000000000
     60163     20055  TIP3      OH2            -6.7265566405       27.8997377139       19.1413003535  W2        20055           0.0000000000
     60164     20055  TIP3      H1             -7.2891766405       27.1948977139       19.4620803535  W2        20055           0.0000000000
     60165     20055  TIP3      H2             -5.9002166405       27.7789277139       19.6090603535  W2        20055           0.0000000000
     60166     20056  TIP3      OH2            -4.8239466405       27.1701377139       10.4672003535  W2        20056           0.0000000000
     60167     20056  TIP3      H1             -5.0194966405       27.7758177139        9.7522603535  W2        20056           0.0000000000
     60168     20056  TIP3      H2             -4.6426866405       26.3366577139       10.0328303535  W2        20056           0.0000000000
     60169     20057  TIP3      OH2           -13.6111266405       27.4074077139       15.7913503535  W2        20057           0.0000000000
     60170     20057  TIP3      H1            -13.6491866405       27.8075677139       16.6600603535  W2        20057           0.0000000000
     60171     20057  TIP3      H2            -14.1020166405       26.5906477139       15.8816403535  W2        20057           0.0000000000
     60172     20058  TIP3      OH2           -10.2453866405       24.7816377139        2.5899503535  W2        20058           0.0000000000
     60173     20058  TIP3      H1            -10.6763166405       24.3366477139        3.3196903535  W2        20058           0.0000000000
     60174     20058  TIP3      H2            -10.9635166405       25.1532677139        2.0777003535  W2        20058           0.0000000000
     60175     20059  TIP3      OH2           -17.0030466405       24.5235877139        9.6418203535  W2        20059           0.0000000000
     60176     20059  TIP3      H1            -16.3722766405       24.4947977139       10.3612103535  W2        20059           0.0000000000
     60177     20059  TIP3      H2            -16.5536166405       24.0984577139        8.9114103535  W2        20059           0.0000000000
     60178     20060  TIP3      OH2           -15.7288366405       25.2697877139        5.0658603535  W2        20060           0.0000000000
     60179     20060  TIP3      H1            -15.2546666405       25.8607777139        4.4809503535  W2        20060           0.0000000000
     60180     20060  TIP3      H2            -16.4461966405       25.8000777139        5.4128703535  W2        20060           0.0000000000
     60181     20061  TIP3      OH2            -5.5600266405       28.8082677139       15.1384403535  W2        20061           0.0000000000
     60182     20061  TIP3      H1             -5.2365466405       28.1772377139       14.4954903535  W2        20061           0.0000000000
     60183     20061  TIP3      H2             -6.0000966405       28.2734877139       15.7991803535  W2        20061           0.0000000000
     60184     20062  TIP3      OH2            -8.7827366405       24.7358177139        9.9225603535  W2        20062           0.0000000000
     60185     20062  TIP3      H1             -9.6936266405       24.7924977139       10.2111603535  W2        20062           0.0000000000
     60186     20062  TIP3      H2             -8.2774466405       24.6753677139       10.7332803535  W2        20062           0.0000000000
     60187     20063  TIP3      OH2           -13.9543966405       26.3644477139        8.7493203535  W2        20063           0.0000000000
     60188     20063  TIP3      H1            -14.8435966405       26.4639977139        8.4092803535  W2        20063           0.0000000000
     60189     20063  TIP3      H2            -13.6579066405       25.5227477139        8.4031103535  W2        20063           0.0000000000
     60190     20064  TIP3      OH2           -10.3012166405       26.3647077139        6.4057803535  W2        20064           0.0000000000
     60191     20064  TIP3      H1             -9.3696666405       26.4937077139        6.5840903535  W2        20064           0.0000000000
     60192     20064  TIP3      H2            -10.5161866405       27.0341377139        5.7562503535  W2        20064           0.0000000000
     60193     20065  TIP3      OH2            -4.3775466405       23.9704477139       13.1867403535  W2        20065           0.0000000000
     60194     20065  TIP3      H1             -5.0543866405       24.1017577139       13.8507103535  W2        20065           0.0000000000
     60195     20065  TIP3      H2             -4.8630566405       23.8153977139       12.3765103535  W2        20065           0.0000000000
     60196     20066  TIP3      OH2           -11.6271966405       27.5589277139        3.9723903535  W2        20066           0.0000000000
     60197     20066  TIP3      H1            -12.1696866405       27.1793077139        3.2811503535  W2        20066           0.0000000000
     60198     20066  TIP3      H2            -10.7937066405       27.7533977139        3.5438003535  W2        20066           0.0000000000
     60199     20067  TIP3      OH2            -1.0900366405       39.6419877139       19.4635003535  W2        20067           0.0000000000
     60200     20067  TIP3      H1             -0.8901666405       40.0661777139       18.6290303535  W2        20067           0.0000000000
     60201     20067  TIP3      H2             -0.4346666405       39.9858077139       20.0705403535  W2        20067           0.0000000000
     60202     20068  TIP3      OH2           -13.4920566405       32.1161177139       19.0715503535  W2        20068           0.0000000000
     60203     20068  TIP3      H1            -12.7598166405       32.3707077139       19.6330003535  W2        20068           0.0000000000
     60204     20068  TIP3      H2            -14.2721866405       32.3206577139       19.5870903535  W2        20068           0.0000000000
     60205     20069  TIP3      OH2            -7.4627666405       27.5231177139       11.8095203535  W2        20069           0.0000000000
     60206     20069  TIP3      H1             -6.8984266405       26.9767777139       11.2624803535  W2        20069           0.0000000000
     60207     20069  TIP3      H2             -7.6104266405       27.0013077139       12.5982803535  W2        20069           0.0000000000
     60208     20070  TIP3      OH2           -12.4607966405       23.6597277139        8.2280003535  W2        20070           0.0000000000
     60209     20070  TIP3      H1            -12.7778466405       22.7572577139        8.1925403535  W2        20070           0.0000000000
     60210     20070  TIP3      H2            -11.6793866405       23.6614677139        7.6751603535  W2        20070           0.0000000000
     60211     20071  TIP3      OH2            -8.8361766405       25.9117277139       14.2235603535  W2        20071           0.0000000000
     60212     20071  TIP3      H1             -9.6716466405       26.3656777139       14.3338003535  W2        20071           0.0000000000
     60213     20071  TIP3      H2             -8.3121166405       26.1875777139       14.9755503535  W2        20071           0.0000000000
     60214     20072  TIP3      OH2            -8.2919166405       32.1244977139        5.9082003535  W2        20072           0.0000000000
     60215     20072  TIP3      H1             -9.0368166405       31.6170277139        5.5859903535  W2        20072           0.0000000000
     60216     20072  TIP3      H2             -8.4261966405       32.1732977139        6.8546803535  W2        20072           0.0000000000
     60217     20073  TIP3      OH2            -1.1420266405       31.2573177139       14.6949603535  W2        20073           0.0000000000
     60218     20073  TIP3      H1             -0.5001466405       31.7139477139       14.1511803535  W2        20073           0.0000000000
     60219     20073  TIP3      H2             -1.9723366405       31.3705577139       14.2323703535  W2        20073           0.0000000000
     60220     20074  TIP3      OH2            -4.3942366405       24.9384877139        4.1074603535  W2        20074           0.0000000000
     60221     20074  TIP3      H1             -5.3328166405       25.0500477139        3.9563403535  W2        20074           0.0000000000
     60222     20074  TIP3      H2             -4.0970266405       25.7951777139        4.4140303535  W2        20074           0.0000000000
     60223     20075  TIP3      OH2            -6.7727066405       32.3088277139       17.1451103535  W2        20075           0.0000000000
     60224     20075  TIP3      H1             -7.1180966405       31.9270677139       17.9520703535  W2        20075           0.0000000000
     60225     20075  TIP3      H2             -6.9726966405       33.2421877139       17.2164003535  W2        20075           0.0000000000
     60226     20076  TIP3      OH2            -3.6758866405       26.8057577139        5.7682003535  W2        20076           0.0000000000
     60227     20076  TIP3      H1             -2.7839866405       26.6682577139        6.0873203535  W2        20076           0.0000000000
     60228     20076  TIP3      H2             -3.6195266405       27.5963677139        5.2315503535  W2        20076           0.0000000000
     60229     20077  TIP3      OH2           -13.1670866405       31.4194977139       11.6779903535  W2        20077           0.0000000000
     60230     20077  TIP3      H1            -12.4223666405       31.4170677139       11.0766403535  W2        20077           0.0000000000
     60231     20077  TIP3      H2            -13.0894266405       30.5958777139       12.1595003535  W2        20077           0.0000000000
     60232     20078  TIP3      OH2            -6.1665066405       33.5829277139        4.9336603535  W2        20078           0.0000000000
     60233     20078  TIP3      H1             -6.4616666405       34.4097177139        5.3151403535  W2        20078           0.0000000000
     60234     20078  TIP3      H2             -6.8695066405       32.9636177139        5.1298003535  W2        20078           0.0000000000
     60235     20079  TIP3      OH2           -16.1591166405       29.8801877139       16.9928403535  W2        20079           0.0000000000
     60236     20079  TIP3      H1            -15.9362566405       29.4621477139       17.8245903535  W2        20079           0.0000000000
     60237     20079  TIP3      H2            -16.7611066405       29.2676877139       16.5701203535  W2        20079           0.0000000000
     60238     20080  TIP3      OH2            -9.1426266405       29.3971777139       19.2058103535  W2        20080           0.0000000000
     60239     20080  TIP3      H1             -9.4385466405       29.2314777139       18.3107203535  W2        20080           0.0000000000
     60240     20080  TIP3      H2             -8.2111066405       29.1772077139       19.1952003535  W2        20080           0.0000000000
     60241     20081  TIP3      OH2            -4.5223466405       34.7703777139       17.0956103535  W2        20081           0.0000000000
     60242     20081  TIP3      H1             -5.4229166405       34.9536377139       16.8280003535  W2        20081           0.0000000000
     60243     20081  TIP3      H2             -4.4882366405       35.0293077139       18.0164903535  W2        20081           0.0000000000
     60244     20082  TIP3      OH2             1.2089833595       27.0151677139        5.4628703535  W2        20082           0.0000000000
     60245     20082  TIP3      H1              0.6546133595       26.6189677139        4.7906203535  W2        20082           0.0000000000
     60246     20082  TIP3      H2              1.3093433595       27.9256877139        5.1852003535  W2        20082           0.0000000000
     60247     20083  TIP3      OH2             1.1721833595       32.8153377139       18.3000203535  W2        20083           0.0000000000
     60248     20083  TIP3      H1              0.3210333595       33.0537177139       17.9326603535  W2        20083           0.0000000000
     60249     20083  TIP3      H2              1.7625233595       32.7986577139       17.5467303535  W2        20083           0.0000000000
     60250     20084  TIP3      OH2            -0.4958466405       35.8012077139        5.9280803535  W2        20084           0.0000000000
     60251     20084  TIP3      H1             -0.8687366405       34.9755877139        6.2371403535  W2        20084           0.0000000000
     60252     20084  TIP3      H2             -0.2184966405       35.6181477139        5.0304203535  W2        20084           0.0000000000
     60253     20085  TIP3      OH2            -3.3354566405       30.6091577139       12.9492703535  W2        20085           0.0000000000
     60254     20085  TIP3      H1             -4.2637666405       30.3773477139       12.9222003535  W2        20085           0.0000000000
     60255     20085  TIP3      H2             -2.8843466405       29.8321377139       12.6191503535  W2        20085           0.0000000000
     60256     20086  TIP3      OH2           -10.7921466405       34.9373177139        9.0821403535  W2        20086           0.0000000000
     60257     20086  TIP3      H1            -10.2649266405       35.7107577139        8.8820203535  W2        20086           0.0000000000
     60258     20086  TIP3      H2            -11.6722966405       35.1622377139        8.7805403535  W2        20086           0.0000000000
     60259     20087  TIP3      OH2           -15.0373766405       29.7997277139        3.6693803535  W2        20087           0.0000000000
     60260     20087  TIP3      H1            -14.4213866405       30.4264477139        4.0488603535  W2        20087           0.0000000000
     60261     20087  TIP3      H2            -15.8991166405       30.1157077139        3.9410303535  W2        20087           0.0000000000
     60262     20088  TIP3      OH2            -9.3649166405       32.6003077139        8.6585703535  W2        20088           0.0000000000
     60263     20088  TIP3      H1             -9.6059166405       33.5257477139        8.7001003535  W2        20088           0.0000000000
     60264     20088  TIP3      H2            -10.1055566405       32.1414377139        9.0549603535  W2        20088           0.0000000000
     60265     20089  TIP3      OH2            -8.8502566405       36.7496677139       14.9736803535  W2        20089           0.0000000000
     60266     20089  TIP3      H1             -8.4877866405       37.6042277139       14.7401203535  W2        20089           0.0000000000
     60267     20089  TIP3      H2             -8.3187366405       36.4578277139       15.7143103535  W2        20089           0.0000000000
     60268     20090  TIP3      OH2           -10.6818366405       37.6220677139        8.2037903535  W2        20090           0.0000000000
     60269     20090  TIP3      H1            -11.6317866405       37.7278077139        8.2551203535  W2        20090           0.0000000000
     60270     20090  TIP3      H2            -10.3300266405       38.4428077139        8.5485403535  W2        20090           0.0000000000
     60271     20091  TIP3      OH2            -5.3061766405       32.8487377139       14.6742403535  W2        20091           0.0000000000
     60272     20091  TIP3      H1             -5.7320466405       32.6209077139       15.5006403535  W2        20091           0.0000000000
     60273     20091  TIP3      H2             -4.7255966405       32.1099177139       14.4917703535  W2        20091           0.0000000000
     60274     20092  TIP3      OH2            -3.1032866405       33.7777877139        3.7481403535  W2        20092           0.0000000000
     60275     20092  TIP3      H1             -2.7499766405       33.3977677139        4.5524903535  W2        20092           0.0000000000
     60276     20092  TIP3      H2             -4.0519366405       33.6842677139        3.8350703535  W2        20092           0.0000000000
     60277     20093  TIP3      OH2            -2.6477566405       37.4006877139       17.1437203535  W2        20093           0.0000000000
     60278     20093  TIP3      H1             -3.2494366405       36.8449777139       16.6483503535  W2        20093           0.0000000000
     60279     20093  TIP3      H2             -2.3663866405       38.0676677139       16.5174603535  W2        20093           0.0000000000
     60280     20094  TIP3      OH2             1.4001533595       38.2570377139        3.9491603535  W2        20094           0.0000000000
     60281     20094  TIP3      H1              2.1439433595       38.8430877139        3.8093203535  W2        20094           0.0000000000
     60282     20094  TIP3      H2              0.7059633595       38.8256177139        4.2824003535  W2        20094           0.0000000000
     60283     20095  TIP3      OH2           -14.5251666405       24.6334577139       16.5509803535  W2        20095           0.0000000000
     60284     20095  TIP3      H1            -15.4179366405       24.9719977139       16.4833803535  W2        20095           0.0000000000
     60285     20095  TIP3      H2            -14.6238866405       23.7780677139       16.9690603535  W2        20095           0.0000000000
     60286     20096  TIP3      OH2            -2.2373566405       32.4499877139        5.9749303535  W2        20096           0.0000000000
     60287     20096  TIP3      H1             -2.5145966405       31.7219177139        6.5310403535  W2        20096           0.0000000000
     60288     20096  TIP3      H2             -1.3100566405       32.5691877139        6.1801903535  W2        20096           0.0000000000
     60289     20097  TIP3      OH2           -14.8739666405       36.4378977139       14.9859203535  W2        20097           0.0000000000
     60290     20097  TIP3      H1            -14.6569366405       35.5061377139       14.9548903535  W2        20097           0.0000000000
     60291     20097  TIP3      H2            -14.6276166405       36.7123977139       15.8692003535  W2        20097           0.0000000000
     60292     20098  TIP3      OH2            -9.0125066405       34.8893977139        2.1951403535  W2        20098           0.0000000000
     60293     20098  TIP3      H1             -8.7735266405       34.1412077139        1.6480303535  W2        20098           0.0000000000
     60294     20098  TIP3      H2             -9.2813766405       34.5015677139        3.0279203535  W2        20098           0.0000000000
     60295     20099  TIP3      OH2           -10.0754466405       34.4597777139        4.6514003535  W2        20099           0.0000000000
     60296     20099  TIP3      H1             -9.9286466405       33.9397577139        5.4414903535  W2        20099           0.0000000000
     60297     20099  TIP3      H2            -10.0782766405       35.3665377139        4.9579903535  W2        20099           0.0000000000
     60298     20100  TIP3      OH2           -13.6223366405       31.7121077139        5.1619403535  W2        20100           0.0000000000
     60299     20100  TIP3      H1            -14.3084066405       32.0643577139        5.7289103535  W2        20100           0.0000000000
     60300     20100  TIP3      H2            -13.0995466405       32.4750677139        4.9153703535  W2        20100           0.0000000000
     60301     20101  TIP3      OH2            -5.7908266405       24.3744877139       15.4408403535  W2        20101           0.0000000000
     60302     20101  TIP3      H1             -5.0920366405       24.4483577139       16.0908103535  W2        20101           0.0000000000
     60303     20101  TIP3      H2             -6.1716866405       23.5099877139       15.5951303535  W2        20101           0.0000000000
     60304     20102  TIP3      OH2            -5.0063366405       24.0266577139        6.5380703535  W2        20102           0.0000000000
     60305     20102  TIP3      H1             -4.7865066405       24.4981977139        5.7346103535  W2        20102           0.0000000000
     60306     20102  TIP3      H2             -4.4479366405       24.4209177139        7.2081303535  W2        20102           0.0000000000
     60307     20103  TIP3      OH2            -7.3377266405       36.1571377139        5.4008203535  W2        20103           0.0000000000
     60308     20103  TIP3      H1             -8.1541166405       36.6541077139        5.4532503535  W2        20103           0.0000000000
     60309     20103  TIP3      H2             -6.8080966405       36.6324877139        4.7607003535  W2        20103           0.0000000000
     60310     20104  TIP3      OH2            -7.8063466405       25.7545377139        7.3729103535  W2        20104           0.0000000000
     60311     20104  TIP3      H1             -6.9940866405       26.2588577139        7.4190803535  W2        20104           0.0000000000
     60312     20104  TIP3      H2             -8.0510466405       25.6095077139        8.2868703535  W2        20104           0.0000000000
     60313     20105  TIP3      OH2            -7.2707066405       26.7408077139       16.5575703535  W2        20105           0.0000000000
     60314     20105  TIP3      H1             -7.1516766405       27.3143477139       17.3146103535  W2        20105           0.0000000000
     60315     20105  TIP3      H2             -6.6152466405       26.0527477139       16.6723503535  W2        20105           0.0000000000
     60316     20106  TIP3      OH2            -6.9226766405       22.8358377139        8.3110203535  W2        20106           0.0000000000
     60317     20106  TIP3      H1             -7.2693266405       23.4528977139        8.9554503535  W2        20106           0.0000000000
     60318     20106  TIP3      H2             -6.2639866405       23.3364077139        7.8295703535  W2        20106           0.0000000000
     60319     20107  TIP3      OH2            -9.9994166405       37.2008577139        5.3825103535  W2        20107           0.0000000000
     60320     20107  TIP3      H1             -9.8385466405       38.0006077139        4.8817703535  W2        20107           0.0000000000
     60321     20107  TIP3      H2            -10.1966366405       37.5074577139        6.2675703535  W2        20107           0.0000000000
     60322     20108  TIP3      OH2           -11.2649766405       23.8987777139        4.9982703535  W2        20108           0.0000000000
     60323     20108  TIP3      H1            -11.3484966405       24.7870877139        5.3449103535  W2        20108           0.0000000000
     60324     20108  TIP3      H2            -10.3749466405       23.6334477139        5.2299503535  W2        20108           0.0000000000
     60325     20109  TIP3      OH2            -1.0661266405       24.6478377139       17.3925403535  W2        20109           0.0000000000
     60326     20109  TIP3      H1             -1.9825466405       24.9100077139       17.3049103535  W2        20109           0.0000000000
     60327     20109  TIP3      H2             -0.7306266405       24.6447377139       16.4960703535  W2        20109           0.0000000000
     60328     20110  TIP3      OH2            -2.4640266405       28.3979377139       11.4882703535  W2        20110           0.0000000000
     60329     20110  TIP3      H1             -3.2615866405       27.9829577139       11.1597703535  W2        20110           0.0000000000
     60330     20110  TIP3      H2             -2.0189166405       27.7073077139       11.9793203535  W2        20110           0.0000000000
     60331     20111  TIP3      OH2           -13.0064466405       34.3259977139        4.0587203535  W2        20111           0.0000000000
     60332     20111  TIP3      H1            -12.4142966405       35.0254777139        4.3349603535  W2        20111           0.0000000000
     60333     20111  TIP3      H2            -12.5471466405       33.8929477139        3.3391803535  W2        20111           0.0000000000
     60334     20112  TIP3      OH2           -14.6905266405       26.9902977139        3.1746603535  W2        20112           0.0000000000
     60335     20112  TIP3      H1            -14.7352666405       27.9296077139        3.3533603535  W2        20112           0.0000000000
     60336     20112  TIP3      H2            -15.5782066405       26.7547877139        2.9048703535  W2        20112           0.0000000000
     60337     20113  TIP3      OH2            -1.3775666405       37.6541877139       13.1106203535  W2        20113           0.0000000000
     60338     20113  TIP3      H1             -1.5331366405       38.3326277139       12.4535503535  W2        20113           0.0000000000
     60339     20113  TIP3      H2             -0.4449266405       37.7261177139       13.3136803535  W2        20113           0.0000000000
     60340     20114  TIP3      OH2           -13.8823266405       21.7719577139       11.8477603535  W2        20114           0.0000000000
     60341     20114  TIP3      H1            -14.1113466405       21.8312077139       10.9202603535  W2        20114           0.0000000000
     60342     20114  TIP3      H2            -14.3249866405       20.9805077139       12.1541703535  W2        20114           0.0000000000
     60343     20115  TIP3      OH2           -14.9519966405       35.7126677139        8.0083403535  W2        20115           0.0000000000
     60344     20115  TIP3      H1            -15.7841366405       36.1849377139        8.0354803535  W2        20115           0.0000000000
     60345     20115  TIP3      H2            -14.4061666405       36.2224277139        7.4096503535  W2        20115           0.0000000000
     60346     20116  TIP3      OH2           -15.6636266405       38.3250377139       19.3381403535  W2        20116           0.0000000000
     60347     20116  TIP3      H1            -15.1234066405       38.1084377139       20.0980603535  W2        20116           0.0000000000
     60348     20116  TIP3      H2            -16.1448266405       37.5196377139       19.1483903535  W2        20116           0.0000000000
     60349     20117  TIP3      OH2           -11.0662866405       37.2444777139       20.9585603535  W2        20117           0.0000000000
     60350     20117  TIP3      H1            -10.2985666405       36.7855577139       21.2994803535  W2        20117           0.0000000000
     60351     20117  TIP3      H2            -11.0876666405       37.0184577139       20.0286803535  W2        20117           0.0000000000
     60352     20118  TIP3      OH2            -6.9743266405       36.7525377139        2.3337403535  W2        20118           0.0000000000
     60353     20118  TIP3      H1             -7.6182266405       36.1213977139        2.6551103535  W2        20118           0.0000000000
     60354     20118  TIP3      H2             -6.2124966405       36.2213377139        2.1020903535  W2        20118           0.0000000000
     60355     20119  TIP3      OH2            -4.4894166405       35.6245877139       19.6877103535  W2        20119           0.0000000000
     60356     20119  TIP3      H1             -4.8404666405       34.7678877139       19.9307503535  W2        20119           0.0000000000
     60357     20119  TIP3      H2             -3.7630966405       35.7672577139       20.2946103535  W2        20119           0.0000000000
     60358     20120  TIP3      OH2            -2.3700366405       36.5695277139        2.5675403535  W2        20120           0.0000000000
     60359     20120  TIP3      H1             -2.0869966405       35.7750477139        3.0202303535  W2        20120           0.0000000000
     60360     20120  TIP3      H2             -1.6302466405       36.8026277139        2.0066503535  W2        20120           0.0000000000
     60361     20121  TIP3      OH2           -15.7566766405       32.1354477139       20.2925703535  W2        20121           0.0000000000
     60362     20121  TIP3      H1            -15.6126266405       31.2335177139       20.0062403535  W2        20121           0.0000000000
     60363     20121  TIP3      H2            -16.5289366405       32.4216577139       19.8048003535  W2        20121           0.0000000000
     60364     20122  TIP3      OH2           -11.4153066405       32.4790177139        2.4250303535  W2        20122           0.0000000000
     60365     20122  TIP3      H1            -11.3508966405       31.6849777139        2.9556703535  W2        20122           0.0000000000
     60366     20122  TIP3      H2            -10.7623866405       32.3602977139        1.7352303535  W2        20122           0.0000000000
     60367     20123  TIP3      OH2            -9.1010666405       32.1052577139       19.7252103535  W2        20123           0.0000000000
     60368     20123  TIP3      H1             -9.4296866405       32.3760677139       18.8679503535  W2        20123           0.0000000000
     60369     20123  TIP3      H2             -8.9492466405       31.1642377139       19.6377103535  W2        20123           0.0000000000
     60370     20124  TIP3      OH2            -6.0629666405       33.5261877139        2.1608303535  W2        20124           0.0000000000
     60371     20124  TIP3      H1             -6.3315566405       33.7063977139        3.0617203535  W2        20124           0.0000000000
     60372     20124  TIP3      H2             -6.2694066405       32.6008077139        2.0294103535  W2        20124           0.0000000000
     60373     20125  TIP3      OH2            -3.3665466405       32.0209877139       17.1084403535  W2        20125           0.0000000000
     60374     20125  TIP3      H1             -2.6210666405       32.6093577139       16.9888403535  W2        20125           0.0000000000
     60375     20125  TIP3      H2             -4.1238666405       32.6029577139       17.1717503535  W2        20125           0.0000000000
     60376     20126  TIP3      OH2           -14.9240266405       29.3357777139       19.7125003535  W2        20126           0.0000000000
     60377     20126  TIP3      H1            -14.5159066405       28.4784377139       19.5915603535  W2        20126           0.0000000000
     60378     20126  TIP3      H2            -15.1842666405       29.3499077139       20.6335303535  W2        20126           0.0000000000
     60379     20127  TIP3      OH2           -10.2659266405       30.4516377139        4.7308303535  W2        20127           0.0000000000
     60380     20127  TIP3      H1            -10.7257266405       29.9674677139        5.4166803535  W2        20127           0.0000000000
     60381     20127  TIP3      H2            -10.0110566405       29.7831777139        4.0948803535  W2        20127           0.0000000000
     60382     20128  TIP3      OH2           -10.9769966405       28.3443477139       17.0867903535  W2        20128           0.0000000000
     60383     20128  TIP3      H1            -11.5953866405       29.0190077139       17.3672603535  W2        20128           0.0000000000
     60384     20128  TIP3      H2            -10.6328766405       28.6657377139       16.2534103535  W2        20128           0.0000000000
     60385     20129  TIP3      OH2            -9.1948866405       28.6948177139        2.9931503535  W2        20129           0.0000000000
     60386     20129  TIP3      H1             -9.3753866405       28.5399377139        2.0659803535  W2        20129           0.0000000000
     60387     20129  TIP3      H2             -8.2448366405       28.8026877139        3.0379403535  W2        20129           0.0000000000
     60388     20130  TIP3      OH2            -5.9571766405       30.8158777139       20.3642703535  W2        20130           0.0000000000
     60389     20130  TIP3      H1             -5.0040566405       30.8997877139       20.3368703535  W2        20130           0.0000000000
     60390     20130  TIP3      H2             -6.1177166405       30.1040577139       20.9837603535  W2        20130           0.0000000000
     60391     20131  TIP3      OH2             0.1949433595       31.0492377139        2.4389603535  W2        20131           0.0000000000
     60392     20131  TIP3      H1             -0.0785766405       30.6247877139        1.6257903535  W2        20131           0.0000000000
     60393     20131  TIP3      H2              0.2343533595       31.9806877139        2.2220003535  W2        20131           0.0000000000
     60394     20132  TIP3      OH2           -10.6376266405       25.6994277139       18.1691003535  W2        20132           0.0000000000
     60395     20132  TIP3      H1            -10.4875366405       24.9705577139       17.5670703535  W2        20132           0.0000000000
     60396     20132  TIP3      H2            -10.6353866405       26.4765977139       17.6103203535  W2        20132           0.0000000000
     60397     20133  TIP3      OH2           -10.2250566405       24.0690077139       15.6618403535  W2        20133           0.0000000000
     60398     20133  TIP3      H1             -9.6893066405       24.5206777139       15.0097703535  W2        20133           0.0000000000
     60399     20133  TIP3      H2            -11.0770966405       23.9609877139       15.2392503535  W2        20133           0.0000000000
     60400     20134  TIP3      OH2            -8.6432166405       29.5086277139       15.9013603535  W2        20134           0.0000000000
     60401     20134  TIP3      H1             -7.8927366405       29.3523777139       15.3281403535  W2        20134           0.0000000000
     60402     20134  TIP3      H2             -8.9823866405       30.3602877139       15.6259103535  W2        20134           0.0000000000
     60403     20135  TIP3      OH2            -4.2275966405       27.3238077139       20.9298903535  W2        20135           0.0000000000
     60404     20135  TIP3      H1             -4.0354666405       26.3927477139       20.8183403535  W2        20135           0.0000000000
     60405     20135  TIP3      H2             -3.3699666405       27.7487577139       20.9194303535  W2        20135           0.0000000000
     60406     20136  TIP3      OH2            -2.9108766405       30.1123277139       19.0071603535  W2        20136           0.0000000000
     60407     20136  TIP3      H1             -3.1923766405       30.8217877139       18.4295403535  W2        20136           0.0000000000
     60408     20136  TIP3      H2             -1.9684466405       30.0396277139       18.8562803535  W2        20136           0.0000000000
     60409     20137  TIP3      OH2           -12.1589966405       26.8977777139       20.0806603535  W2        20137           0.0000000000
     60410     20137  TIP3      H1            -12.9260966405       26.3652577139       19.8704203535  W2        20137           0.0000000000
     60411     20137  TIP3      H2            -11.4800966405       26.5878177139       19.4812903535  W2        20137           0.0000000000
     60412     20138  TIP3      OH2            -9.4195066405       21.5255777139       16.0932003535  W2        20138           0.0000000000
     60413     20138  TIP3      H1             -9.5175466405       22.4718977139       15.9878203535  W2        20138           0.0000000000
     60414     20138  TIP3      H2            -10.1618866405       21.1529577139       15.6175503535  W2        20138           0.0000000000
     60415     20139  TIP3      OH2            -8.1554566405       25.8471177139       19.6570403535  W2        20139           0.0000000000
     60416     20139  TIP3      H1             -8.3909166405       25.6277877139       20.5585303535  W2        20139           0.0000000000
     60417     20139  TIP3      H2             -8.9387666405       25.6402377139       19.1472903535  W2        20139           0.0000000000
     60418     20140  TIP3      OH2            -5.4397966405       24.9744677139       18.7323903535  W2        20140           0.0000000000
     60419     20140  TIP3      H1             -6.3872566405       25.0064377139       18.8647203535  W2        20140           0.0000000000
     60420     20140  TIP3      H2             -5.1271266405       24.3491777139       19.3862103535  W2        20140           0.0000000000
     60421     20141  TIP3      OH2            -3.8056466405       23.6085777139       20.7375803535  W2        20141           0.0000000000
     60422     20141  TIP3      H1             -3.9024666405       22.6563077139       20.7317703535  W2        20141           0.0000000000
     60423     20141  TIP3      H2             -4.1273366405       23.8772577139       21.5981303535  W2        20141           0.0000000000
     60424     20142  TIP3      OH2           -13.9787166405       24.8181577139       19.7851303535  W2        20142           0.0000000000
     60425     20142  TIP3      H1            -13.7669766405       24.1117677139       19.1748803535  W2        20142           0.0000000000
     60426     20142  TIP3      H2            -14.0899666405       24.3807577139       20.6292503535  W2        20142           0.0000000000
     60427     20143  TIP3      OH2            -9.1976966405       20.8193177139       18.7644803535  W2        20143           0.0000000000
     60428     20143  TIP3      H1             -8.4858566405       20.1795377139       18.7503903535  W2        20143           0.0000000000
     60429     20143  TIP3      H2             -9.2986566405       21.0861477139       17.8507903535  W2        20143           0.0000000000
     60430     20144  TIP3      OH2            -8.8439466405       22.5021577139       20.8181103535  W2        20144           0.0000000000
     60431     20144  TIP3      H1             -8.9757266405       22.0265377139       19.9979603535  W2        20144           0.0000000000
     60432     20144  TIP3      H2             -9.4432066405       23.2465177139       20.7628203535  W2        20144           0.0000000000
     60433     20145  TIP3      OH2            -9.2977166405       39.3851877139        3.9945103535  W2        20145           0.0000000000
     60434     20145  TIP3      H1             -8.3646466405       39.5430577139        4.1383503535  W2        20145           0.0000000000
     60435     20145  TIP3      H2             -9.5618366405       40.0604877139        3.3696603535  W2        20145           0.0000000000
     60436     20146  TIP3      OH2           -15.7292266405       34.0215677139        3.4773203535  W2        20146           0.0000000000
     60437     20146  TIP3      H1            -14.8153066405       34.1004577139        3.7507103535  W2        20146           0.0000000000
     60438     20146  TIP3      H2            -15.7219166405       33.3345277139        2.8108803535  W2        20146           0.0000000000
     60439     20147  TIP3      OH2           -17.0801666405       39.4144177139        8.5547103535  W2        20147           0.0000000000
     60440     20147  TIP3      H1            -17.7274566405       38.9525877139        8.0218303535  W2        20147           0.0000000000
     60441     20147  TIP3      H2            -16.7257066405       38.7427477139        9.1373303535  W2        20147           0.0000000000
     60442     20148  TIP3      OH2           -16.2102466405       37.4951177139       10.3593303535  W2        20148           0.0000000000
     60443     20148  TIP3      H1            -16.5445666405       36.6148477139       10.5313503535  W2        20148           0.0000000000
     60444     20148  TIP3      H2            -15.9880066405       37.8406177139       11.2238903535  W2        20148           0.0000000000
     60445     20149  TIP3      OH2             1.3382333595       38.3047577139       13.3398103535  W2        20149           0.0000000000
     60446     20149  TIP3      H1              1.3169033595       38.4895977139       14.2787503535  W2        20149           0.0000000000
     60447     20149  TIP3      H2              2.0288533595       38.8731577139       12.9989503535  W2        20149           0.0000000000
     60448     20150  TIP3      OH2             0.9015233595       37.8718677139       16.2617203535  W2        20150           0.0000000000
     60449     20150  TIP3      H1              0.4143933595       37.1362777139       15.8904603535  W2        20150           0.0000000000
     60450     20150  TIP3      H2              1.4507933595       37.4782577139       16.9396603535  W2        20150           0.0000000000
     60451     20151  TIP3      OH2            -0.6477466405       33.6616777139       20.8997503535  W2        20151           0.0000000000
     60452     20151  TIP3      H1             -1.5136366405       33.5566477139       21.2939803535  W2        20151           0.0000000000
     60453     20151  TIP3      H2             -0.2711566405       34.4200077139       21.3462203535  W2        20151           0.0000000000
     60454     20152  TIP3      OH2             0.6532233595       31.9180477139        6.4140003535  W2        20152           0.0000000000
     60455     20152  TIP3      H1              1.5033633595       32.3391377139        6.5411603535  W2        20152           0.0000000000
     60456     20152  TIP3      H2              0.6587333595       31.1780577139        7.0211403535  W2        20152           0.0000000000
     60457     20153  TIP3      OH2             1.0477833595       29.9717877139        8.2375703535  W2        20153           0.0000000000
     60458     20153  TIP3      H1              0.3212433595       29.4920477139        8.6353303535  W2        20153           0.0000000000
     60459     20153  TIP3      H2              1.6291133595       30.1772577139        8.9697303535  W2        20153           0.0000000000
     60460     20154  TIP3      OH2             0.8069033595       32.7565377139       13.1853303535  W2        20154           0.0000000000
     60461     20154  TIP3      H1              1.6403233595       32.3785377139       12.9046903535  W2        20154           0.0000000000
     60462     20154  TIP3      H2              0.9189333595       33.6996577139       13.0662403535  W2        20154           0.0000000000
     60463     20155  TIP3      OH2            -0.7068666405       35.6342877139       15.4921703535  W2        20155           0.0000000000
     60464     20155  TIP3      H1             -1.3543366405       35.9594377139       16.1176903535  W2        20155           0.0000000000
     60465     20155  TIP3      H2             -1.2244666405       35.1940577139       14.8180003535  W2        20155           0.0000000000
     60466     20156  TIP3      OH2             1.3160933595       29.8726377139        4.6287003535  W2        20156           0.0000000000
     60467     20156  TIP3      H1              0.7942033595       30.2290477139        3.9097903535  W2        20156           0.0000000000
     60468     20156  TIP3      H2              1.2830133595       30.5474177139        5.3067903535  W2        20156           0.0000000000
     60469     20157  TIP3      OH2            -0.3350066405       27.1121977139        3.1794103535  W2        20157           0.0000000000
     60470     20157  TIP3      H1             -0.2385666405       27.7788977139        2.4993803535  W2        20157           0.0000000000
     60471     20157  TIP3      H2             -0.4750466405       26.2968277139        2.6979603535  W2        20157           0.0000000000
     60472     20158  TIP3      OH2            -1.1655366405       28.4924377139        8.8004403535  W2        20158           0.0000000000
     60473     20158  TIP3      H1             -1.3156566405       27.5472977139        8.7802203535  W2        20158           0.0000000000
     60474     20158  TIP3      H2             -1.5190866405       28.7735777139        9.6443503535  W2        20158           0.0000000000
     60475     20159  TIP3      OH2           -16.1302966405       30.5706577139       12.8108203535  W2        20159           0.0000000000
     60476     20159  TIP3      H1            -15.9460066405       30.4888277139       11.8751103535  W2        20159           0.0000000000
     60477     20159  TIP3      H2            -15.2810066405       30.4463577139       13.2344603535  W2        20159           0.0000000000
     60478     20160  TIP3      OH2            -0.3092466405       30.4627677139       18.4392703535  W2        20160           0.0000000000
     60479     20160  TIP3      H1              0.2734833595       29.7279977139       18.6309903535  W2        20160           0.0000000000
     60480     20160  TIP3      H2              0.2546833595       31.2347977139       18.4858503535  W2        20160           0.0000000000
     60481     20161  TIP3      OH2             1.1874633595       28.3653477139       19.1238103535  W2        20161           0.0000000000
     60482     20161  TIP3      H1              0.3241333595       27.9865577139       18.9582803535  W2        20161           0.0000000000
     60483     20161  TIP3      H2              1.7918333595       27.6268277139       19.0493903535  W2        20161           0.0000000000
     60484     20162  TIP3      OH2            -1.0876266405       24.5201777139        2.2969603535  W2        20162           0.0000000000
     60485     20162  TIP3      H1             -0.4770466405       24.1488577139        2.9337803535  W2        20162           0.0000000000
     60486     20162  TIP3      H2             -1.9244766405       24.0988677139        2.4929603535  W2        20162           0.0000000000
     60487     20163  TIP3      OH2            -1.4550566405       26.0750177139        7.2629503535  W2        20163           0.0000000000
     60488     20163  TIP3      H1             -1.1753466405       25.1680577139        7.3871203535  W2        20163           0.0000000000
     60489     20163  TIP3      H2             -0.6958866405       26.5091677139        6.8738703535  W2        20163           0.0000000000
     60490     20164  TIP3      OH2            -0.8432266405       26.6567577139       12.6988403535  W2        20164           0.0000000000
     60491     20164  TIP3      H1              0.0895733595       26.8687477139       12.6644403535  W2        20164           0.0000000000
     60492     20164  TIP3      H2             -1.0784766405       26.7579677139       13.6211403535  W2        20164           0.0000000000
     60493     20165  TIP3      OH2            -0.8140366405       27.3932877139       15.4747803535  W2        20165           0.0000000000
     60494     20165  TIP3      H1             -1.6569066405       27.6613277139       15.8407603535  W2        20165           0.0000000000
     60495     20165  TIP3      H2             -0.3716066405       28.2154777139       15.2638903535  W2        20165           0.0000000000
     60496     20166  TIP3      OH2           -16.5328166405       25.8411577139       18.9517003535  W2        20166           0.0000000000
     60497     20166  TIP3      H1            -15.6133266405       25.7189877139       19.1880103535  W2        20166           0.0000000000
     60498     20166  TIP3      H2            -16.9823666405       25.0911277139       19.3410503535  W2        20166           0.0000000000
     60499     20167  TIP3      OH2             1.4691233595       21.3733077139       20.8282803535  W2        20167           0.0000000000
     60500     20167  TIP3      H1              1.8188233595       20.7196577139       20.2227503535  W2        20167           0.0000000000
     60501     20167  TIP3      H2              1.6160733595       22.2107177139       20.3885403535  W2        20167           0.0000000000
     60502     20168  TIP3      OH2            -0.8415766405       23.3379477139        7.3111503535  W2        20168           0.0000000000
     60503     20168  TIP3      H1             -0.6590766405       22.8890977139        8.1366503535  W2        20168           0.0000000000
     60504     20168  TIP3      H2             -1.4412866405       22.7533877139        6.8476103535  W2        20168           0.0000000000
     60505     20169  TIP3      OH2           -15.3115666405       24.1533177139       11.8429903535  W2        20169           0.0000000000
     60506     20169  TIP3      H1            -14.8664066405       23.3615677139       12.1449603535  W2        20169           0.0000000000
     60507     20169  TIP3      H2            -14.8452666405       24.8698377139       12.2735503535  W2        20169           0.0000000000
     60508     20170  TIP3      OH2           -17.0075366405       27.1526177139       12.9120103535  W2        20170           0.0000000000
     60509     20170  TIP3      H1            -16.5155566405       26.9316677139       12.1212103535  W2        20170           0.0000000000
     60510     20170  TIP3      H2            -16.6454466405       27.9929577139       13.1929603535  W2        20170           0.0000000000
     60511     20171  TIP3      OH2             0.9888433595       23.4827677139       19.1774103535  W2        20171           0.0000000000
     60512     20171  TIP3      H1              0.0714133595       23.7534777139       19.1417603535  W2        20171           0.0000000000
     60513     20171  TIP3      H2              1.1117833595       22.9476077139       18.3933803535  W2        20171           0.0000000000
     60514     20172  TIP3      OH2             1.0250433595       23.4057577139        3.8391803535  W2        20172           0.0000000000
     60515     20172  TIP3      H1              1.4373033595       22.6843277139        3.3639803535  W2        20172           0.0000000000
     60516     20172  TIP3      H2              1.7066933595       24.0752177139        3.8976103535  W2        20172           0.0000000000
     60517     20173  TIP3      OH2           -16.6938866405       23.4105277139        6.9662503535  W2        20173           0.0000000000
     60518     20173  TIP3      H1            -17.6190466405       23.6191877139        6.8368003535  W2        20173           0.0000000000
     60519     20173  TIP3      H2            -16.2398966405       23.8946077139        6.2764803535  W2        20173           0.0000000000
     60520     20174  TIP3      OH2            -1.9231666405       38.3946977139        8.9119903535  W2        20174           0.0000000000
     60521     20174  TIP3      H1             -1.2708766405       38.0469077139        8.3039003535  W2        20174           0.0000000000
     60522     20174  TIP3      H2             -1.4127866405       38.8830177139        9.5579603535  W2        20174           0.0000000000
     60523     20175  TIP3      OH2           -16.7303466405       22.1484277139       15.3105003535  W2        20175           0.0000000000
     60524     20175  TIP3      H1            -17.3952966405       21.9024577139       15.9535903535  W2        20175           0.0000000000
     60525     20175  TIP3      H2            -17.1732166405       22.7704677139       14.7333003535  W2        20175           0.0000000000
     60526     20176  TIP3      OH2           -14.5384166405       35.3238377139       19.4550803535  W2        20176           0.0000000000
     60527     20176  TIP3      H1            -15.3591666405       35.4984877139       18.9945503535  W2        20176           0.0000000000
     60528     20176  TIP3      H2            -14.7906366405       35.2503077139       20.3755203535  W2        20176           0.0000000000
     60529     20177  TIP3      OH2           -11.5841266405       36.2979577139       15.7134803535  W2        20177           0.0000000000
     60530     20177  TIP3      H1            -12.0090166405       37.1078077139       15.4309403535  W2        20177           0.0000000000
     60531     20177  TIP3      H2            -10.6798466405       36.3833677139       15.4114603535  W2        20177           0.0000000000
     60532     20178  TIP3      OH2            -7.2729866405       37.6969577139       18.6728503535  W2        20178           0.0000000000
     60533     20178  TIP3      H1             -7.0882366405       37.3635677139       19.5508803535  W2        20178           0.0000000000
     60534     20178  TIP3      H2             -6.4265366405       38.0068177139       18.3507703535  W2        20178           0.0000000000
     60535     20179  TIP3      OH2            -4.9279466405       38.9828477139       17.9169903535  W2        20179           0.0000000000
     60536     20179  TIP3      H1             -4.2510566405       38.3500777139       17.6769103535  W2        20179           0.0000000000
     60537     20179  TIP3      H2             -4.6060666405       39.3838977139       18.7243203535  W2        20179           0.0000000000
     60538     20180  TIP3      OH2            -0.0105666405       21.5723977139       16.9964903535  W2        20180           0.0000000000
     60539     20180  TIP3      H1             -0.8232166405       21.8974277139       16.6089603535  W2        20180           0.0000000000
     60540     20180  TIP3      H2              0.2222833595       20.8122477139       16.4634003535  W2        20180           0.0000000000
     60541     20181  TIP3      OH2           -14.1824566405       39.5543477139       15.7610103535  W2        20181           0.0000000000
     60542     20181  TIP3      H1            -14.9028166405       39.9944477139       15.3097803535  W2        20181           0.0000000000
     60543     20181  TIP3      H2            -14.5480566405       39.3038177139       16.6094103535  W2        20181           0.0000000000
     60544     20182  TIP3      OH2           -11.7151966405       39.1547377139       14.7907303535  W2        20182           0.0000000000
     60545     20182  TIP3      H1            -12.5799766405       39.2265877139       15.1947403535  W2        20182           0.0000000000
     60546     20182  TIP3      H2            -11.7702966405       39.7014677139       14.0069803535  W2        20182           0.0000000000
     60547     20183  TIP3      OH2            -7.0046366405       39.0426277139       13.9663303535  W2        20183           0.0000000000
     60548     20183  TIP3      H1             -7.4612366405       39.5715977139       13.3121703535  W2        20183           0.0000000000
     60549     20183  TIP3      H2             -6.8418366405       39.6457677139       14.6915603535  W2        20183           0.0000000000
     60550     20184  TIP3      OH2            -4.6770066405       37.9205877139       14.9113603535  W2        20184           0.0000000000
     60551     20184  TIP3      H1             -5.5816366405       38.0856077139       14.6455703535  W2        20184           0.0000000000
     60552     20184  TIP3      H2             -4.2481466405       38.7738077139       14.8457003535  W2        20184           0.0000000000
     60553     20185  TIP3      OH2            -2.0728166405       39.4904977139       15.2061403535  W2        20185           0.0000000000
     60554     20185  TIP3      H1             -2.2546166405       40.4063877139       14.9956303535  W2        20185           0.0000000000
     60555     20185  TIP3      H2             -1.8960366405       39.0802077139       14.3596003535  W2        20185           0.0000000000
     60556     20186  TIP3      OH2           -14.7676466405       38.1775977139       12.6711903535  W2        20186           0.0000000000
     60557     20186  TIP3      H1            -14.7860466405       37.7521077139       13.5284203535  W2        20186           0.0000000000
     60558     20186  TIP3      H2            -13.9628566405       37.8590977139       12.2624103535  W2        20186           0.0000000000
     60559     20187  TIP3      OH2           -12.6263366405       36.8874677139       11.3261803535  W2        20187           0.0000000000
     60560     20187  TIP3      H1            -12.8452666405       35.9712077139       11.4957803535  W2        20187           0.0000000000
     60561     20187  TIP3      H2            -11.8021166405       37.0275077139       11.7923203535  W2        20187           0.0000000000
     60562     20188  TIP3      OH2           -10.0890866405       37.3573977139       12.1749803535  W2        20188           0.0000000000
     60563     20188  TIP3      H1             -9.8765166405       36.4692977139       11.8880703535  W2        20188           0.0000000000
     60564     20188  TIP3      H2            -10.0245766405       37.3231677139       13.1293803535  W2        20188           0.0000000000
     60565     20189  TIP3      OH2            -6.5807166405       23.0214577139       11.3193103535  W2        20189           0.0000000000
     60566     20189  TIP3      H1             -7.2550366405       22.3920177139       11.5748903535  W2        20189           0.0000000000
     60567     20189  TIP3      H2             -6.0167966405       22.5373477139       10.7161003535  W2        20189           0.0000000000
     60568     20190  TIP3      OH2            -1.4379966405       21.1288577139       11.4320203535  W2        20190           0.0000000000
     60569     20190  TIP3      H1             -0.8342366405       21.6763977139       10.9301203535  W2        20190           0.0000000000
     60570     20190  TIP3      H2             -2.3077966405       21.4478977139       11.1914303535  W2        20190           0.0000000000
     60571     20191  TIP3      OH2             0.2890433595       22.2677277139        9.7651103535  W2        20191           0.0000000000
     60572     20191  TIP3      H1              0.9007933595       21.7532977139        9.2384703535  W2        20191           0.0000000000
     60573     20191  TIP3      H2              0.6713833595       23.1449377139        9.7885503535  W2        20191           0.0000000000
     60574     20192  TIP3      OH2           -14.2539666405       21.6554877139        9.1413003535  W2        20192           0.0000000000
     60575     20192  TIP3      H1            -15.0309866405       21.4209777139        8.6338903535  W2        20192           0.0000000000
     60576     20192  TIP3      H2            -13.7236066405       20.8586977139        9.1501003535  W2        20192           0.0000000000
     60577     20193  TIP3      OH2           -15.4176266405       21.4532977139        4.9449103535  W2        20193           0.0000000000
     60578     20193  TIP3      H1            -14.9785566405       22.0643477139        4.3532603535  W2        20193           0.0000000000
     60579     20193  TIP3      H2            -16.0513866405       21.9917077139        5.4189103535  W2        20193           0.0000000000
     60580     20194  TIP3      OH2            -9.6747066405       21.5821977139        8.9546103535  W2        20194           0.0000000000
     60581     20194  TIP3      H1             -8.8003666405       21.9706277139        8.9250403535  W2        20194           0.0000000000
     60582     20194  TIP3      H2             -9.8106266405       21.3669777139        9.8773303535  W2        20194           0.0000000000
     60583     20195  TIP3      OH2            -4.1178666405       21.6121777139       10.6037803535  W2        20195           0.0000000000
     60584     20195  TIP3      H1             -4.0417066405       21.7073377139        9.6543803535  W2        20195           0.0000000000
     60585     20195  TIP3      H2             -4.3929466405       20.7044677139       10.7326903535  W2        20195           0.0000000000
     60586     20196  TIP3      OH2            -2.7646066405       21.6379577139        6.2962803535  W2        20196           0.0000000000
     60587     20196  TIP3      H1             -3.4674966405       22.2528777139        6.0864203535  W2        20196           0.0000000000
     60588     20196  TIP3      H2             -3.2094666405       20.8006277139        6.4273703535  W2        20196           0.0000000000
     60589     20197  TIP3      OH2           -15.5166766405       37.4015177139        5.8424203535  W2        20197           0.0000000000
     60590     20197  TIP3      H1            -16.2016866405       37.3634077139        5.1749303535  W2        20197           0.0000000000
     60591     20197  TIP3      H2            -15.5129566405       38.3142777139        6.1306303535  W2        20197           0.0000000000
     60592     20198  TIP3      OH2           -13.5567166405       23.3694477139        3.3873203535  W2        20198           0.0000000000
     60593     20198  TIP3      H1            -13.0653766405       22.7396877139        2.8598703535  W2        20198           0.0000000000
     60594     20198  TIP3      H2            -12.9330866405       23.6653877139        4.0504403535  W2        20198           0.0000000000
     60595     20199  TIP3      OH2            -8.5307066405       23.6625977139        5.8443703535  W2        20199           0.0000000000
     60596     20199  TIP3      H1             -8.3525766405       23.0159177139        6.5272303535  W2        20199           0.0000000000
     60597     20199  TIP3      H2             -8.5840866405       24.4963677139        6.3114803535  W2        20199           0.0000000000
     60598     20200  TIP3      OH2            -6.6523266405       38.6110077139        4.2400403535  W2        20200           0.0000000000
     60599     20200  TIP3      H1             -5.7863066405       38.9777477139        4.0618603535  W2        20200           0.0000000000
     60600     20200  TIP3      H2             -6.8990466405       38.1718077139        3.4261203535  W2        20200           0.0000000000
     60601     20201  TIP3      OH2             0.0566333595       38.1740377139        6.9191503535  W2        20201           0.0000000000
     60602     20201  TIP3      H1             -0.1376566405       37.4262477139        6.3541103535  W2        20201           0.0000000000
     60603     20201  TIP3      H2              0.0176433595       38.9320477139        6.3359403535  W2        20201           0.0000000000
     60604     20202  TIP3      OH2           -14.2961666405       22.1696777139       18.6589203535  W2        20202           0.0000000000
     60605     20202  TIP3      H1            -14.6623466405       21.4039377139       19.1013903535  W2        20202           0.0000000000
     60606     20202  TIP3      H2            -13.3833166405       22.1986977139       18.9454303535  W2        20202           0.0000000000
     60607     20203  TIP3      OH2           -12.3230866405       21.5201177139       20.1946303535  W2        20203           0.0000000000
     60608     20203  TIP3      H1            -11.4247266405       21.2461377139       20.0099703535  W2        20203           0.0000000000
     60609     20203  TIP3      H2            -12.7097766405       20.7777177139       20.6588903535  W2        20203           0.0000000000
     60610     20204  TIP3      OH2           -13.6985566405       38.3215977139        2.8676303535  W2        20204           0.0000000000
     60611     20204  TIP3      H1            -13.9660966405       38.6078877139        3.7409403535  W2        20204           0.0000000000
     60612     20204  TIP3      H2            -12.9272966405       37.7755177139        3.0198803535  W2        20204           0.0000000000
     60613     20205  TIP3      OH2            -3.9018566405       20.8526477139       20.3769103535  W2        20205           0.0000000000
     60614     20205  TIP3      H1             -3.8251366405       20.4267177139       21.2306803535  W2        20205           0.0000000000
     60615     20205  TIP3      H2             -3.0081966405       20.8661177139       20.0342603535  W2        20205           0.0000000000
     60616     20206  TIP3      OH2            -0.7257466405       36.9252777139       19.0693303535  W2        20206           0.0000000000
     60617     20206  TIP3      H1             -1.5075566405       36.7390777139       18.5493903535  W2        20206           0.0000000000
     60618     20206  TIP3      H2             -0.7977566405       37.8547077139       19.2865803535  W2        20206           0.0000000000
     60619     20207  TIP3      OH2            13.6802933595       30.8117177139        9.1000503535  W2        20207           0.0000000000
     60620     20207  TIP3      H1             13.7694033595       31.7555377139        8.9677603535  W2        20207           0.0000000000
     60621     20207  TIP3      H2             13.0420533595       30.5363577139        8.4419903535  W2        20207           0.0000000000
     60622     20208  TIP3      OH2            12.6134233595       30.0667877139       12.5188703535  W2        20208           0.0000000000
     60623     20208  TIP3      H1             12.5751733595       29.4204177139       13.2238303535  W2        20208           0.0000000000
     60624     20208  TIP3      H2             12.2910733595       29.6002277139       11.7477403535  W2        20208           0.0000000000
     60625     20209  TIP3      OH2             4.9819233595       29.6809977139       14.1118603535  W2        20209           0.0000000000
     60626     20209  TIP3      H1              5.0231333595       29.0553277139       14.8351003535  W2        20209           0.0000000000
     60627     20209  TIP3      H2              5.6846933595       30.3048577139       14.2939003535  W2        20209           0.0000000000
     60628     20210  TIP3      OH2            16.3194433595       33.0058277139       10.8203803535  W2        20210           0.0000000000
     60629     20210  TIP3      H1             15.8787133595       32.2854277139       11.2709403535  W2        20210           0.0000000000
     60630     20210  TIP3      H2             16.3064133595       33.7265477139       11.4501503535  W2        20210           0.0000000000
     60631     20211  TIP3      OH2             5.9052333595       34.1308877139       12.6467703535  W2        20211           0.0000000000
     60632     20211  TIP3      H1              5.5357533595       33.3289377139       12.2772003535  W2        20211           0.0000000000
     60633     20211  TIP3      H2              6.8463433595       33.9623777139       12.6931103535  W2        20211           0.0000000000
     60634     20212  TIP3      OH2             2.5152833595       27.7911477139        8.0396503535  W2        20212           0.0000000000
     60635     20212  TIP3      H1              2.0676233595       28.6370177139        8.0213003535  W2        20212           0.0000000000
     60636     20212  TIP3      H2              1.9544033595       27.2115677139        7.5241603535  W2        20212           0.0000000000
     60637     20213  TIP3      OH2             3.2258933595       29.9531077139       10.1654503535  W2        20213           0.0000000000
     60638     20213  TIP3      H1              3.4392433595       29.1832677139       10.6927503535  W2        20213           0.0000000000
     60639     20213  TIP3      H2              3.9636533595       30.0427777139        9.5622103535  W2        20213           0.0000000000
     60640     20214  TIP3      OH2            13.4309933595       38.1099977139       11.0324203535  W2        20214           0.0000000000
     60641     20214  TIP3      H1             14.0506333595       37.4334677139       10.7593403535  W2        20214           0.0000000000
     60642     20214  TIP3      H2             13.2227333595       37.8920777139       11.9409103535  W2        20214           0.0000000000
     60643     20215  TIP3      OH2            11.0028633595       32.4989277139       12.9249703535  W2        20215           0.0000000000
     60644     20215  TIP3      H1             11.3066533595       31.8130677139       12.3303803535  W2        20215           0.0000000000
     60645     20215  TIP3      H2             11.7242633595       32.6177977139       13.5427703535  W2        20215           0.0000000000
     60646     20216  TIP3      OH2            19.6658433595       24.1004577139       13.7855903535  W2        20216           0.0000000000
     60647     20216  TIP3      H1             19.7150633595       24.7105777139       14.5215003535  W2        20216           0.0000000000
     60648     20216  TIP3      H2             20.0913533595       24.5615477139       13.0627003535  W2        20216           0.0000000000
     60649     20217  TIP3      OH2            14.1435633595       26.8931677139       13.2524503535  W2        20217           0.0000000000
     60650     20217  TIP3      H1             14.2861533595       25.9468677139       13.2726103535  W2        20217           0.0000000000
     60651     20217  TIP3      H2             14.0374633595       27.1001477139       12.3239403535  W2        20217           0.0000000000
     60652     20218  TIP3      OH2             7.2983933595       24.9948077139       10.5249303535  W2        20218           0.0000000000
     60653     20218  TIP3      H1              7.3415033595       25.8546577139       10.1065603535  W2        20218           0.0000000000
     60654     20218  TIP3      H2              6.8408033595       24.4422777139        9.8912503535  W2        20218           0.0000000000
     60655     20219  TIP3      OH2            15.0206633595       25.1253677139        8.9257603535  W2        20219           0.0000000000
     60656     20219  TIP3      H1             15.6670933595       24.7966877139        9.5505203535  W2        20219           0.0000000000
     60657     20219  TIP3      H2             15.5306033595       25.6432677139        8.3029003535  W2        20219           0.0000000000
     60658     20220  TIP3      OH2             3.9185433595       27.3913877139       11.2870703535  W2        20220           0.0000000000
     60659     20220  TIP3      H1              4.5722033595       26.8415577139       11.7190803535  W2        20220           0.0000000000
     60660     20220  TIP3      H2              3.9424733595       27.1172877139       10.3702703535  W2        20220           0.0000000000
     60661     20221  TIP3      OH2             9.0749933595       28.9415177139       10.5022203535  W2        20221           0.0000000000
     60662     20221  TIP3      H1              9.6910933595       28.4150577139       11.0116203535  W2        20221           0.0000000000
     60663     20221  TIP3      H2              8.4888733595       28.3013877139       10.0985803535  W2        20221           0.0000000000
     60664     20222  TIP3      OH2            20.0573033595       25.5783777139       16.0215703535  W2        20222           0.0000000000
     60665     20222  TIP3      H1             19.3687633595       26.2364477139       15.9262303535  W2        20222           0.0000000000
     60666     20222  TIP3      H2             20.0727633595       25.3811677139       16.9581103535  W2        20222           0.0000000000
     60667     20223  TIP3      OH2             6.1085833595       23.9126477139       14.5990103535  W2        20223           0.0000000000
     60668     20223  TIP3      H1              5.8897533595       24.4427077139       13.8326103535  W2        20223           0.0000000000
     60669     20223  TIP3      H2              5.4406733595       24.1391977139       15.2461503535  W2        20223           0.0000000000
     60670     20224  TIP3      OH2            13.4775633595       33.4127577139        8.1429203535  W2        20224           0.0000000000
     60671     20224  TIP3      H1             13.1820733595       33.0899877139        7.2916103535  W2        20224           0.0000000000
     60672     20224  TIP3      H2             13.1533433595       34.3124277139        8.1841803535  W2        20224           0.0000000000
     60673     20225  TIP3      OH2             8.6777233595       31.5882177139       14.8863803535  W2        20225           0.0000000000
     60674     20225  TIP3      H1              7.9376333595       32.1863677139       14.9899003535  W2        20225           0.0000000000
     60675     20225  TIP3      H2              9.3916733595       32.1421777139       14.5707403535  W2        20225           0.0000000000
     60676     20226  TIP3      OH2            16.7845033595       24.4162977139       10.9063503535  W2        20226           0.0000000000
     60677     20226  TIP3      H1             16.5693033595       23.6506377139       11.4389503535  W2        20226           0.0000000000
     60678     20226  TIP3      H2             17.4402433595       24.8887577139       11.4192003535  W2        20226           0.0000000000
     60679     20227  TIP3      OH2             5.7023133595       25.8048277139       12.5512303535  W2        20227           0.0000000000
     60680     20227  TIP3      H1              6.3159433595       26.4375877139       12.9244703535  W2        20227           0.0000000000
     60681     20227  TIP3      H2              6.2143833595       25.3323277139       11.8949203535  W2        20227           0.0000000000
     60682     20228  TIP3      OH2             7.0851533595       33.5525177139       15.6735303535  W2        20228           0.0000000000
     60683     20228  TIP3      H1              7.0799133595       34.4318677139       15.2954603535  W2        20228           0.0000000000
     60684     20228  TIP3      H2              6.2315633595       33.4689277139       16.0985203535  W2        20228           0.0000000000
     60685     20229  TIP3      OH2             3.2062433595       33.2233077139        6.4554603535  W2        20229           0.0000000000
     60686     20229  TIP3      H1              2.9343333595       33.4524077139        5.5667503535  W2        20229           0.0000000000
     60687     20229  TIP3      H2              3.2518133595       34.0611877139        6.9159903535  W2        20229           0.0000000000
     60688     20230  TIP3      OH2            16.8312133595       34.8448977139       13.1683103535  W2        20230           0.0000000000
     60689     20230  TIP3      H1             15.8895833595       34.9032877139       13.3300003535  W2        20230           0.0000000000
     60690     20230  TIP3      H2             17.1078233595       35.7509477139       13.0312803535  W2        20230           0.0000000000
     60691     20231  TIP3      OH2            17.1319133595       23.1314277139       14.5857003535  W2        20231           0.0000000000
     60692     20231  TIP3      H1             16.3958333595       23.7421377139       14.5478303535  W2        20231           0.0000000000
     60693     20231  TIP3      H2             17.8153133595       23.5463277139       14.0593403535  W2        20231           0.0000000000
     60694     20232  TIP3      OH2            10.1350533595       21.2181577139       12.0515003535  W2        20232           0.0000000000
     60695     20232  TIP3      H1             10.0174733595       20.2697577139       11.9973303535  W2        20232           0.0000000000
     60696     20232  TIP3      H2              9.2800633595       21.5507677139       12.3246103535  W2        20232           0.0000000000
     60697     20233  TIP3      OH2            15.0833333595       36.6262477139        9.7934703535  W2        20233           0.0000000000
     60698     20233  TIP3      H1             15.5085633595       35.9190377139        9.3084303535  W2        20233           0.0000000000
     60699     20233  TIP3      H2             15.4003333595       37.4275177139        9.3766903535  W2        20233           0.0000000000
     60700     20234  TIP3      OH2            16.2429833595       34.5270977139        8.3021303535  W2        20234           0.0000000000
     60701     20234  TIP3      H1             15.9854633595       33.8371077139        7.6907203535  W2        20234           0.0000000000
     60702     20234  TIP3      H2             16.3140633595       34.0842177139        9.1477203535  W2        20234           0.0000000000
     60703     20235  TIP3      OH2            17.9290033595       33.0937677139       16.7794803535  W2        20235           0.0000000000
     60704     20235  TIP3      H1             18.0686333595       32.5020177139       16.0401803535  W2        20235           0.0000000000
     60705     20235  TIP3      H2             18.0962833595       33.9663577139       16.4233603535  W2        20235           0.0000000000
     60706     20236  TIP3      OH2            12.4015433595       30.0557177139        6.5520803535  W2        20236           0.0000000000
     60707     20236  TIP3      H1             11.6900933595       30.5906877139        6.2001303535  W2        20236           0.0000000000
     60708     20236  TIP3      H2             13.0925033595       30.1109277139        5.8919703535  W2        20236           0.0000000000
     60709     20237  TIP3      OH2            12.4554633595       28.5131477139        3.5905803535  W2        20237           0.0000000000
     60710     20237  TIP3      H1             13.1564533595       28.5358377139        4.2419803535  W2        20237           0.0000000000
     60711     20237  TIP3      H2             12.7577533595       27.8851177139        2.9345103535  W2        20237           0.0000000000
     60712     20238  TIP3      OH2            19.7709333595       29.4335677139       14.8455203535  W2        20238           0.0000000000
     60713     20238  TIP3      H1             19.1183433595       30.1281277139       14.9346103535  W2        20238           0.0000000000
     60714     20238  TIP3      H2             20.2359633595       29.6436577139       14.0356803535  W2        20238           0.0000000000
     60715     20239  TIP3      OH2            15.8073133595       30.2650477139        7.5036703535  W2        20239           0.0000000000
     60716     20239  TIP3      H1             15.0754133595       30.4934177139        8.0767303535  W2        20239           0.0000000000
     60717     20239  TIP3      H2             16.2545333595       29.5513177139        7.9584203535  W2        20239           0.0000000000
     60718     20240  TIP3      OH2            15.7046633595       28.4393077139       16.5713703535  W2        20240           0.0000000000
     60719     20240  TIP3      H1             15.7845733595       29.2027477139       17.1432203535  W2        20240           0.0000000000
     60720     20240  TIP3      H2             15.1034333595       28.7185477139       15.8808803535  W2        20240           0.0000000000
     60721     20241  TIP3      OH2             7.4526833595       30.8956677139        9.3861703535  W2        20241           0.0000000000
     60722     20241  TIP3      H1              7.1222033595       30.5250077139        8.5678703535  W2        20241           0.0000000000
     60723     20241  TIP3      H2              8.0410933595       30.2250677139        9.7330003535  W2        20241           0.0000000000
     60724     20242  TIP3      OH2             8.8194333595       34.3237277139       12.0673903535  W2        20242           0.0000000000
     60725     20242  TIP3      H1              8.7245633595       33.7450377139       11.3108503535  W2        20242           0.0000000000
     60726     20242  TIP3      H2              9.5487933595       33.9522977139       12.5636703535  W2        20242           0.0000000000
     60727     20243  TIP3      OH2             7.8192333595       29.6642277139       13.0196703535  W2        20243           0.0000000000
     60728     20243  TIP3      H1              8.3844833595       29.7856477139       12.2567903535  W2        20243           0.0000000000
     60729     20243  TIP3      H2              8.1381233595       30.3017277139       13.6585203535  W2        20243           0.0000000000
     60730     20244  TIP3      OH2            14.1284533595       35.1674177139       13.7537203535  W2        20244           0.0000000000
     60731     20244  TIP3      H1             13.8881133595       35.8297277139       14.4016403535  W2        20244           0.0000000000
     60732     20244  TIP3      H2             13.9302733595       34.3329377139       14.1786803535  W2        20244           0.0000000000
     60733     20245  TIP3      OH2             8.6993033595       34.0634977139       17.7368603535  W2        20245           0.0000000000
     60734     20245  TIP3      H1              8.3880533595       34.8458177139       18.1921803535  W2        20245           0.0000000000
     60735     20245  TIP3      H2              8.0493233595       33.9104077139       17.0510603535  W2        20245           0.0000000000
     60736     20246  TIP3      OH2            14.6782633595       29.4273377139        5.1887903535  W2        20246           0.0000000000
     60737     20246  TIP3      H1             15.2578133595       29.5773677139        5.9356803535  W2        20246           0.0000000000
     60738     20246  TIP3      H2             15.0922633595       29.8980777139        4.4654303535  W2        20246           0.0000000000
     60739     20247  TIP3      OH2             5.6192933595       30.2616077139       16.9654303535  W2        20247           0.0000000000
     60740     20247  TIP3      H1              5.6896133595       30.9122877139       17.6639303535  W2        20247           0.0000000000
     60741     20247  TIP3      H2              4.7285133595       30.3643577139       16.6305203535  W2        20247           0.0000000000
     60742     20248  TIP3      OH2            12.4047533595       36.1641877139        8.6241003535  W2        20248           0.0000000000
     60743     20248  TIP3      H1             12.8785133595       36.4598177139        9.4015203535  W2        20248           0.0000000000
     60744     20248  TIP3      H2             11.8416833595       36.9023477139        8.3910603535  W2        20248           0.0000000000
     60745     20249  TIP3      OH2             6.9388933595       36.1349977139       18.5002403535  W2        20249           0.0000000000
     60746     20249  TIP3      H1              6.9464233595       35.9989677139       17.5527903535  W2        20249           0.0000000000
     60747     20249  TIP3      H2              6.0229333595       36.0178077139       18.7522403535  W2        20249           0.0000000000
     60748     20250  TIP3      OH2            18.3771033595       21.1773777139        5.0017603535  W2        20250           0.0000000000
     60749     20250  TIP3      H1             17.4771733595       21.3162777139        5.2968203535  W2        20250           0.0000000000
     60750     20250  TIP3      H2             18.6289433595       22.0088377139        4.5999303535  W2        20250           0.0000000000
     60751     20251  TIP3      OH2             6.4429533595       29.9650977139        6.9754503535  W2        20251           0.0000000000
     60752     20251  TIP3      H1              6.1510833595       30.7332677139        6.4845803535  W2        20251           0.0000000000
     60753     20251  TIP3      H2              5.7684733595       29.3057177139        6.8125903535  W2        20251           0.0000000000
     60754     20252  TIP3      OH2            19.5662433595       35.5436177139        3.3781503535  W2        20252           0.0000000000
     60755     20252  TIP3      H1             19.6395933595       36.4826377139        3.5486803535  W2        20252           0.0000000000
     60756     20252  TIP3      H2             20.4717533595       35.2384777139        3.3218803535  W2        20252           0.0000000000
     60757     20253  TIP3      OH2             2.5359633595       32.3280177139       15.7904303535  W2        20253           0.0000000000
     60758     20253  TIP3      H1              2.0348033595       32.2999577139       14.9754003535  W2        20253           0.0000000000
     60759     20253  TIP3      H2              2.5413333595       31.4223377139       16.1001603535  W2        20253           0.0000000000
     60760     20254  TIP3      OH2             2.2862333595       35.1083977139       12.6744503535  W2        20254           0.0000000000
     60761     20254  TIP3      H1              3.2322933595       34.9640977139       12.6554003535  W2        20254           0.0000000000
     60762     20254  TIP3      H2              2.1738633595       35.8926777139       13.2115703535  W2        20254           0.0000000000
     60763     20255  TIP3      OH2            20.4840833595       35.7743677139       18.3568203535  W2        20255           0.0000000000
     60764     20255  TIP3      H1             20.4347633595       34.8191777139       18.3195803535  W2        20255           0.0000000000
     60765     20255  TIP3      H2             19.6573133595       36.0418977139       18.7582003535  W2        20255           0.0000000000
     60766     20256  TIP3      OH2            11.4624833595       35.3482877139       17.2329603535  W2        20256           0.0000000000
     60767     20256  TIP3      H1             11.5499433595       36.1747477139       17.7078703535  W2        20256           0.0000000000
     60768     20256  TIP3      H2             10.5989933595       35.0186677139       17.4818903535  W2        20256           0.0000000000
     60769     20257  TIP3      OH2            11.8770633595       39.1206577139        7.0390203535  W2        20257           0.0000000000
     60770     20257  TIP3      H1             11.8016633595       38.9993777139        6.0925403535  W2        20257           0.0000000000
     60771     20257  TIP3      H2             11.9099333595       40.0699277139        7.1574803535  W2        20257           0.0000000000
     60772     20258  TIP3      OH2             5.5304433595       37.9093577139        8.8199203535  W2        20258           0.0000000000
     60773     20258  TIP3      H1              5.6824833595       37.5613977139        9.6985703535  W2        20258           0.0000000000
     60774     20258  TIP3      H2              4.6794833595       37.5530877139        8.5646403535  W2        20258           0.0000000000
     60775     20259  TIP3      OH2            14.9786633595       38.2746777139        4.0412603535  W2        20259           0.0000000000
     60776     20259  TIP3      H1             15.3535033595       37.5302877139        3.5705203535  W2        20259           0.0000000000
     60777     20259  TIP3      H2             14.9830333595       38.0047377139        4.9595903535  W2        20259           0.0000000000
     60778     20260  TIP3      OH2            14.6474733595       38.2003877139        6.7904803535  W2        20260           0.0000000000
     60779     20260  TIP3      H1             13.7124533595       38.3005777139        6.9691803535  W2        20260           0.0000000000
     60780     20260  TIP3      H2             14.9276633595       37.4909877139        7.3688003535  W2        20260           0.0000000000
     60781     20261  TIP3      OH2            17.6360633595       27.2676177139       18.8370403535  W2        20261           0.0000000000
     60782     20261  TIP3      H1             17.2287433595       27.7481777139       18.1163703535  W2        20261           0.0000000000
     60783     20261  TIP3      H2             17.6766333595       26.3622177139       18.5291203535  W2        20261           0.0000000000
     60784     20262  TIP3      OH2             4.7850133595       33.6515577139       16.8337103535  W2        20262           0.0000000000
     60785     20262  TIP3      H1              5.0011433595       33.2901177139       17.6932903535  W2        20262           0.0000000000
     60786     20262  TIP3      H2              3.9294833595       33.2769377139       16.6240603535  W2        20262           0.0000000000
     60787     20263  TIP3      OH2             7.4038133595       22.1216077139       12.8291303535  W2        20263           0.0000000000
     60788     20263  TIP3      H1              6.5421833595       22.0344277139       12.4214203535  W2        20263           0.0000000000
     60789     20263  TIP3      H2              7.3813833595       22.9776177139       13.2568903535  W2        20263           0.0000000000
     60790     20264  TIP3      OH2            12.0665933595       21.8436477139       16.2038303535  W2        20264           0.0000000000
     60791     20264  TIP3      H1             12.4869033595       21.4283577139       16.9568903535  W2        20264           0.0000000000
     60792     20264  TIP3      H2             11.1335533595       21.6649777139       16.3210303535  W2        20264           0.0000000000
     60793     20265  TIP3      OH2            15.3930833595       25.5991677139       17.0572803535  W2        20265           0.0000000000
     60794     20265  TIP3      H1             14.8790333595       25.4733877139       17.8548803535  W2        20265           0.0000000000
     60795     20265  TIP3      H2             15.2375533595       26.5114777139       16.8129003535  W2        20265           0.0000000000
     60796     20266  TIP3      OH2            16.1555733595       30.4601677139        2.8185803535  W2        20266           0.0000000000
     60797     20266  TIP3      H1             16.1976533595       30.2375577139        1.8885803535  W2        20266           0.0000000000
     60798     20266  TIP3      H2             17.0047833595       30.8588777139        3.0085703535  W2        20266           0.0000000000
     60799     20267  TIP3      OH2            11.7283233595       24.3359877139        3.4889103535  W2        20267           0.0000000000
     60800     20267  TIP3      H1             11.4748033595       24.3551477139        4.4117203535  W2        20267           0.0000000000
     60801     20267  TIP3      H2             11.4715333595       23.4645277139        3.1875303535  W2        20267           0.0000000000
     60802     20268  TIP3      OH2             7.4948233595       27.0870577139       13.9241503535  W2        20268           0.0000000000
     60803     20268  TIP3      H1              6.8530333595       27.0467877139       14.6331603535  W2        20268           0.0000000000
     60804     20268  TIP3      H2              7.5320233595       28.0135277139       13.6864503535  W2        20268           0.0000000000
     60805     20269  TIP3      OH2             7.4917333595       27.3080677139        8.8361503535  W2        20269           0.0000000000
     60806     20269  TIP3      H1              6.5990233595       26.9676777139        8.7775303535  W2        20269           0.0000000000
     60807     20269  TIP3      H2              7.9423933595       26.9311577139        8.0804703535  W2        20269           0.0000000000
     60808     20270  TIP3      OH2            13.0272833595       27.7240977139        7.6532303535  W2        20270           0.0000000000
     60809     20270  TIP3      H1             12.6183133595       28.5389577139        7.3617103535  W2        20270           0.0000000000
     60810     20270  TIP3      H2             13.7479033595       27.5841077139        7.0389403535  W2        20270           0.0000000000
     60811     20271  TIP3      OH2            12.1294433595       27.8997377139       19.1413003535  W2        20271           0.0000000000
     60812     20271  TIP3      H1             11.5668233595       27.1948977139       19.4620803535  W2        20271           0.0000000000
     60813     20271  TIP3      H2             12.9557833595       27.7789277139       19.6090603535  W2        20271           0.0000000000
     60814     20272  TIP3      OH2            14.0320533595       27.1701377139       10.4672003535  W2        20272           0.0000000000
     60815     20272  TIP3      H1             13.8365033595       27.7758177139        9.7522603535  W2        20272           0.0000000000
     60816     20272  TIP3      H2             14.2133133595       26.3366577139       10.0328303535  W2        20272           0.0000000000
     60817     20273  TIP3      OH2             5.2448733595       27.4074077139       15.7913503535  W2        20273           0.0000000000
     60818     20273  TIP3      H1              5.2068133595       27.8075677139       16.6600603535  W2        20273           0.0000000000
     60819     20273  TIP3      H2              4.7539833595       26.5906477139       15.8816403535  W2        20273           0.0000000000
     60820     20274  TIP3      OH2             8.6106133595       24.7816377139        2.5899503535  W2        20274           0.0000000000
     60821     20274  TIP3      H1              8.1796833595       24.3366477139        3.3196903535  W2        20274           0.0000000000
     60822     20274  TIP3      H2              7.8924833595       25.1532677139        2.0777003535  W2        20274           0.0000000000
     60823     20275  TIP3      OH2             1.8529533595       24.5235877139        9.6418203535  W2        20275           0.0000000000
     60824     20275  TIP3      H1              2.4837233595       24.4947977139       10.3612103535  W2        20275           0.0000000000
     60825     20275  TIP3      H2              2.3023833595       24.0984577139        8.9114103535  W2        20275           0.0000000000
     60826     20276  TIP3      OH2             3.1271633595       25.2697877139        5.0658603535  W2        20276           0.0000000000
     60827     20276  TIP3      H1              3.6013333595       25.8607777139        4.4809503535  W2        20276           0.0000000000
     60828     20276  TIP3      H2              2.4098033595       25.8000777139        5.4128703535  W2        20276           0.0000000000
     60829     20277  TIP3      OH2            13.2959733595       28.8082677139       15.1384403535  W2        20277           0.0000000000
     60830     20277  TIP3      H1             13.6194533595       28.1772377139       14.4954903535  W2        20277           0.0000000000
     60831     20277  TIP3      H2             12.8559033595       28.2734877139       15.7991803535  W2        20277           0.0000000000
     60832     20278  TIP3      OH2            10.0732633595       24.7358177139        9.9225603535  W2        20278           0.0000000000
     60833     20278  TIP3      H1              9.1623733595       24.7924977139       10.2111603535  W2        20278           0.0000000000
     60834     20278  TIP3      H2             10.5785533595       24.6753677139       10.7332803535  W2        20278           0.0000000000
     60835     20279  TIP3      OH2             4.9016033595       26.3644477139        8.7493203535  W2        20279           0.0000000000
     60836     20279  TIP3      H1              4.0124033595       26.4639977139        8.4092803535  W2        20279           0.0000000000
     60837     20279  TIP3      H2              5.1980933595       25.5227477139        8.4031103535  W2        20279           0.0000000000
     60838     20280  TIP3      OH2             8.5547833595       26.3647077139        6.4057803535  W2        20280           0.0000000000
     60839     20280  TIP3      H1              9.4863333595       26.4937077139        6.5840903535  W2        20280           0.0000000000
     60840     20280  TIP3      H2              8.3398133595       27.0341377139        5.7562503535  W2        20280           0.0000000000
     60841     20281  TIP3      OH2            14.4784533595       23.9704477139       13.1867403535  W2        20281           0.0000000000
     60842     20281  TIP3      H1             13.8016133595       24.1017577139       13.8507103535  W2        20281           0.0000000000
     60843     20281  TIP3      H2             13.9929433595       23.8153977139       12.3765103535  W2        20281           0.0000000000
     60844     20282  TIP3      OH2             7.2288033595       27.5589277139        3.9723903535  W2        20282           0.0000000000
     60845     20282  TIP3      H1              6.6863133595       27.1793077139        3.2811503535  W2        20282           0.0000000000
     60846     20282  TIP3      H2              8.0622933595       27.7533977139        3.5438003535  W2        20282           0.0000000000
     60847     20283  TIP3      OH2            17.7659633595       39.6419877139       19.4635003535  W2        20283           0.0000000000
     60848     20283  TIP3      H1             17.9658333595       40.0661777139       18.6290303535  W2        20283           0.0000000000
     60849     20283  TIP3      H2             18.4213333595       39.9858077139       20.0705403535  W2        20283           0.0000000000
     60850     20284  TIP3      OH2             5.3639433595       32.1161177139       19.0715503535  W2        20284           0.0000000000
     60851     20284  TIP3      H1              6.0961833595       32.3707077139       19.6330003535  W2        20284           0.0000000000
     60852     20284  TIP3      H2              4.5838133595       32.3206577139       19.5870903535  W2        20284           0.0000000000
     60853     20285  TIP3      OH2            11.3932333595       27.5231177139       11.8095203535  W2        20285           0.0000000000
     60854     20285  TIP3      H1             11.9575733595       26.9767777139       11.2624803535  W2        20285           0.0000000000
     60855     20285  TIP3      H2             11.2455733595       27.0013077139       12.5982803535  W2        20285           0.0000000000
     60856     20286  TIP3      OH2             6.3952033595       23.6597277139        8.2280003535  W2        20286           0.0000000000
     60857     20286  TIP3      H1              6.0781533595       22.7572577139        8.1925403535  W2        20286           0.0000000000
     60858     20286  TIP3      H2              7.1766133595       23.6614677139        7.6751603535  W2        20286           0.0000000000
     60859     20287  TIP3      OH2            10.0198233595       25.9117277139       14.2235603535  W2        20287           0.0000000000
     60860     20287  TIP3      H1              9.1843533595       26.3656777139       14.3338003535  W2        20287           0.0000000000
     60861     20287  TIP3      H2             10.5438833595       26.1875777139       14.9755503535  W2        20287           0.0000000000
     60862     20288  TIP3      OH2            10.5640833595       32.1244977139        5.9082003535  W2        20288           0.0000000000
     60863     20288  TIP3      H1              9.8191833595       31.6170277139        5.5859903535  W2        20288           0.0000000000
     60864     20288  TIP3      H2             10.4298033595       32.1732977139        6.8546803535  W2        20288           0.0000000000
     60865     20289  TIP3      OH2            17.7139733595       31.2573177139       14.6949603535  W2        20289           0.0000000000
     60866     20289  TIP3      H1             18.3558533595       31.7139477139       14.1511803535  W2        20289           0.0000000000
     60867     20289  TIP3      H2             16.8836633595       31.3705577139       14.2323703535  W2        20289           0.0000000000
     60868     20290  TIP3      OH2            14.4617633595       24.9384877139        4.1074603535  W2        20290           0.0000000000
     60869     20290  TIP3      H1             13.5231833595       25.0500477139        3.9563403535  W2        20290           0.0000000000
     60870     20290  TIP3      H2             14.7589733595       25.7951777139        4.4140303535  W2        20290           0.0000000000
     60871     20291  TIP3      OH2            12.0832933595       32.3088277139       17.1451103535  W2        20291           0.0000000000
     60872     20291  TIP3      H1             11.7379033595       31.9270677139       17.9520703535  W2        20291           0.0000000000
     60873     20291  TIP3      H2             11.8833033595       33.2421877139       17.2164003535  W2        20291           0.0000000000
     60874     20292  TIP3      OH2            15.1801133595       26.8057577139        5.7682003535  W2        20292           0.0000000000
     60875     20292  TIP3      H1             16.0720133595       26.6682577139        6.0873203535  W2        20292           0.0000000000
     60876     20292  TIP3      H2             15.2364733595       27.5963677139        5.2315503535  W2        20292           0.0000000000
     60877     20293  TIP3      OH2             5.6889133595       31.4194977139       11.6779903535  W2        20293           0.0000000000
     60878     20293  TIP3      H1              6.4336333595       31.4170677139       11.0766403535  W2        20293           0.0000000000
     60879     20293  TIP3      H2              5.7665733595       30.5958777139       12.1595003535  W2        20293           0.0000000000
     60880     20294  TIP3      OH2            12.6894933595       33.5829277139        4.9336603535  W2        20294           0.0000000000
     60881     20294  TIP3      H1             12.3943333595       34.4097177139        5.3151403535  W2        20294           0.0000000000
     60882     20294  TIP3      H2             11.9864933595       32.9636177139        5.1298003535  W2        20294           0.0000000000
     60883     20295  TIP3      OH2             2.6968833595       29.8801877139       16.9928403535  W2        20295           0.0000000000
     60884     20295  TIP3      H1              2.9197433595       29.4621477139       17.8245903535  W2        20295           0.0000000000
     60885     20295  TIP3      H2              2.0948933595       29.2676877139       16.5701203535  W2        20295           0.0000000000
     60886     20296  TIP3      OH2             9.7133733595       29.3971777139       19.2058103535  W2        20296           0.0000000000
     60887     20296  TIP3      H1              9.4174533595       29.2314777139       18.3107203535  W2        20296           0.0000000000
     60888     20296  TIP3      H2             10.6448933595       29.1772077139       19.1952003535  W2        20296           0.0000000000
     60889     20297  TIP3      OH2            14.3336533595       34.7703777139       17.0956103535  W2        20297           0.0000000000
     60890     20297  TIP3      H1             13.4330833595       34.9536377139       16.8280003535  W2        20297           0.0000000000
     60891     20297  TIP3      H2             14.3677633595       35.0293077139       18.0164903535  W2        20297           0.0000000000
     60892     20298  TIP3      OH2            20.0649833595       27.0151677139        5.4628703535  W2        20298           0.0000000000
     60893     20298  TIP3      H1             19.5106133595       26.6189677139        4.7906203535  W2        20298           0.0000000000
     60894     20298  TIP3      H2             20.1653433595       27.9256877139        5.1852003535  W2        20298           0.0000000000
     60895     20299  TIP3      OH2            20.0281833595       32.8153377139       18.3000203535  W2        20299           0.0000000000
     60896     20299  TIP3      H1             19.1770333595       33.0537177139       17.9326603535  W2        20299           0.0000000000
     60897     20299  TIP3      H2             20.6185233595       32.7986577139       17.5467303535  W2        20299           0.0000000000
     60898     20300  TIP3      OH2            18.3601533595       35.8012077139        5.9280803535  W2        20300           0.0000000000
     60899     20300  TIP3      H1             17.9872633595       34.9755877139        6.2371403535  W2        20300           0.0000000000
     60900     20300  TIP3      H2             18.6375033595       35.6181477139        5.0304203535  W2        20300           0.0000000000
     60901     20301  TIP3      OH2            15.5205433595       30.6091577139       12.9492703535  W2        20301           0.0000000000
     60902     20301  TIP3      H1             14.5922333595       30.3773477139       12.9222003535  W2        20301           0.0000000000
     60903     20301  TIP3      H2             15.9716533595       29.8321377139       12.6191503535  W2        20301           0.0000000000
     60904     20302  TIP3      OH2             8.0638533595       34.9373177139        9.0821403535  W2        20302           0.0000000000
     60905     20302  TIP3      H1              8.5910733595       35.7107577139        8.8820203535  W2        20302           0.0000000000
     60906     20302  TIP3      H2              7.1837033595       35.1622377139        8.7805403535  W2        20302           0.0000000000
     60907     20303  TIP3      OH2             3.8186233595       29.7997277139        3.6693803535  W2        20303           0.0000000000
     60908     20303  TIP3      H1              4.4346133595       30.4264477139        4.0488603535  W2        20303           0.0000000000
     60909     20303  TIP3      H2              2.9568833595       30.1157077139        3.9410303535  W2        20303           0.0000000000
     60910     20304  TIP3      OH2             9.4910833595       32.6003077139        8.6585703535  W2        20304           0.0000000000
     60911     20304  TIP3      H1              9.2500833595       33.5257477139        8.7001003535  W2        20304           0.0000000000
     60912     20304  TIP3      H2              8.7504433595       32.1414377139        9.0549603535  W2        20304           0.0000000000
     60913     20305  TIP3      OH2            10.0057433595       36.7496677139       14.9736803535  W2        20305           0.0000000000
     60914     20305  TIP3      H1             10.3682133595       37.6042277139       14.7401203535  W2        20305           0.0000000000
     60915     20305  TIP3      H2             10.5372633595       36.4578277139       15.7143103535  W2        20305           0.0000000000
     60916     20306  TIP3      OH2             8.1741633595       37.6220677139        8.2037903535  W2        20306           0.0000000000
     60917     20306  TIP3      H1              7.2242133595       37.7278077139        8.2551203535  W2        20306           0.0000000000
     60918     20306  TIP3      H2              8.5259733595       38.4428077139        8.5485403535  W2        20306           0.0000000000
     60919     20307  TIP3      OH2            13.5498233595       32.8487377139       14.6742403535  W2        20307           0.0000000000
     60920     20307  TIP3      H1             13.1239533595       32.6209077139       15.5006403535  W2        20307           0.0000000000
     60921     20307  TIP3      H2             14.1304033595       32.1099177139       14.4917703535  W2        20307           0.0000000000
     60922     20308  TIP3      OH2            15.7527133595       33.7777877139        3.7481403535  W2        20308           0.0000000000
     60923     20308  TIP3      H1             16.1060233595       33.3977677139        4.5524903535  W2        20308           0.0000000000
     60924     20308  TIP3      H2             14.8040633595       33.6842677139        3.8350703535  W2        20308           0.0000000000
     60925     20309  TIP3      OH2            16.2082433595       37.4006877139       17.1437203535  W2        20309           0.0000000000
     60926     20309  TIP3      H1             15.6065633595       36.8449777139       16.6483503535  W2        20309           0.0000000000
     60927     20309  TIP3      H2             16.4896133595       38.0676677139       16.5174603535  W2        20309           0.0000000000
     60928     20310  TIP3      OH2            20.2561533595       38.2570377139        3.9491603535  W2        20310           0.0000000000
     60929     20310  TIP3      H1             20.9999433595       38.8430877139        3.8093203535  W2        20310           0.0000000000
     60930     20310  TIP3      H2             19.5619633595       38.8256177139        4.2824003535  W2        20310           0.0000000000
     60931     20311  TIP3      OH2             4.3308333595       24.6334577139       16.5509803535  W2        20311           0.0000000000
     60932     20311  TIP3      H1              3.4380633595       24.9719977139       16.4833803535  W2        20311           0.0000000000
     60933     20311  TIP3      H2              4.2321133595       23.7780677139       16.9690603535  W2        20311           0.0000000000
     60934     20312  TIP3      OH2            16.6186433595       32.4499877139        5.9749303535  W2        20312           0.0000000000
     60935     20312  TIP3      H1             16.3414033595       31.7219177139        6.5310403535  W2        20312           0.0000000000
     60936     20312  TIP3      H2             17.5459433595       32.5691877139        6.1801903535  W2        20312           0.0000000000
     60937     20313  TIP3      OH2             3.9820333595       36.4378977139       14.9859203535  W2        20313           0.0000000000
     60938     20313  TIP3      H1              4.1990633595       35.5061377139       14.9548903535  W2        20313           0.0000000000
     60939     20313  TIP3      H2              4.2283833595       36.7123977139       15.8692003535  W2        20313           0.0000000000
     60940     20314  TIP3      OH2             9.8434933595       34.8893977139        2.1951403535  W2        20314           0.0000000000
     60941     20314  TIP3      H1             10.0824733595       34.1412077139        1.6480303535  W2        20314           0.0000000000
     60942     20314  TIP3      H2              9.5746233595       34.5015677139        3.0279203535  W2        20314           0.0000000000
     60943     20315  TIP3      OH2             8.7805533595       34.4597777139        4.6514003535  W2        20315           0.0000000000
     60944     20315  TIP3      H1              8.9273533595       33.9397577139        5.4414903535  W2        20315           0.0000000000
     60945     20315  TIP3      H2              8.7777233595       35.3665377139        4.9579903535  W2        20315           0.0000000000
     60946     20316  TIP3      OH2             5.2336633595       31.7121077139        5.1619403535  W2        20316           0.0000000000
     60947     20316  TIP3      H1              4.5475933595       32.0643577139        5.7289103535  W2        20316           0.0000000000
     60948     20316  TIP3      H2              5.7564533595       32.4750677139        4.9153703535  W2        20316           0.0000000000
     60949     20317  TIP3      OH2            13.0651733595       24.3744877139       15.4408403535  W2        20317           0.0000000000
     60950     20317  TIP3      H1             13.7639633595       24.4483577139       16.0908103535  W2        20317           0.0000000000
     60951     20317  TIP3      H2             12.6843133595       23.5099877139       15.5951303535  W2        20317           0.0000000000
     60952     20318  TIP3      OH2            13.8496633595       24.0266577139        6.5380703535  W2        20318           0.0000000000
     60953     20318  TIP3      H1             14.0694933595       24.4981977139        5.7346103535  W2        20318           0.0000000000
     60954     20318  TIP3      H2             14.4080633595       24.4209177139        7.2081303535  W2        20318           0.0000000000
     60955     20319  TIP3      OH2            11.5182733595       36.1571377139        5.4008203535  W2        20319           0.0000000000
     60956     20319  TIP3      H1             10.7018833595       36.6541077139        5.4532503535  W2        20319           0.0000000000
     60957     20319  TIP3      H2             12.0479033595       36.6324877139        4.7607003535  W2        20319           0.0000000000
     60958     20320  TIP3      OH2            11.0496533595       25.7545377139        7.3729103535  W2        20320           0.0000000000
     60959     20320  TIP3      H1             11.8619133595       26.2588577139        7.4190803535  W2        20320           0.0000000000
     60960     20320  TIP3      H2             10.8049533595       25.6095077139        8.2868703535  W2        20320           0.0000000000
     60961     20321  TIP3      OH2            11.5852933595       26.7408077139       16.5575703535  W2        20321           0.0000000000
     60962     20321  TIP3      H1             11.7043233595       27.3143477139       17.3146103535  W2        20321           0.0000000000
     60963     20321  TIP3      H2             12.2407533595       26.0527477139       16.6723503535  W2        20321           0.0000000000
     60964     20322  TIP3      OH2            11.9333233595       22.8358377139        8.3110203535  W2        20322           0.0000000000
     60965     20322  TIP3      H1             11.5866733595       23.4528977139        8.9554503535  W2        20322           0.0000000000
     60966     20322  TIP3      H2             12.5920133595       23.3364077139        7.8295703535  W2        20322           0.0000000000
     60967     20323  TIP3      OH2             8.8565833595       37.2008577139        5.3825103535  W2        20323           0.0000000000
     60968     20323  TIP3      H1              9.0174533595       38.0006077139        4.8817703535  W2        20323           0.0000000000
     60969     20323  TIP3      H2              8.6593633595       37.5074577139        6.2675703535  W2        20323           0.0000000000
     60970     20324  TIP3      OH2             7.5910233595       23.8987777139        4.9982703535  W2        20324           0.0000000000
     60971     20324  TIP3      H1              7.5075033595       24.7870877139        5.3449103535  W2        20324           0.0000000000
     60972     20324  TIP3      H2              8.4810533595       23.6334477139        5.2299503535  W2        20324           0.0000000000
     60973     20325  TIP3      OH2            17.7898733595       24.6478377139       17.3925403535  W2        20325           0.0000000000
     60974     20325  TIP3      H1             16.8734533595       24.9100077139       17.3049103535  W2        20325           0.0000000000
     60975     20325  TIP3      H2             18.1253733595       24.6447377139       16.4960703535  W2        20325           0.0000000000
     60976     20326  TIP3      OH2            16.3919733595       28.3979377139       11.4882703535  W2        20326           0.0000000000
     60977     20326  TIP3      H1             15.5944133595       27.9829577139       11.1597703535  W2        20326           0.0000000000
     60978     20326  TIP3      H2             16.8370833595       27.7073077139       11.9793203535  W2        20326           0.0000000000
     60979     20327  TIP3      OH2             5.8495533595       34.3259977139        4.0587203535  W2        20327           0.0000000000
     60980     20327  TIP3      H1              6.4417033595       35.0254777139        4.3349603535  W2        20327           0.0000000000
     60981     20327  TIP3      H2              6.3088533595       33.8929477139        3.3391803535  W2        20327           0.0000000000
     60982     20328  TIP3      OH2             4.1654733595       26.9902977139        3.1746603535  W2        20328           0.0000000000
     60983     20328  TIP3      H1              4.1207333595       27.9296077139        3.3533603535  W2        20328           0.0000000000
     60984     20328  TIP3      H2              3.2777933595       26.7547877139        2.9048703535  W2        20328           0.0000000000
     60985     20329  TIP3      OH2            17.4784333595       37.6541877139       13.1106203535  W2        20329           0.0000000000
     60986     20329  TIP3      H1             17.3228633595       38.3326277139       12.4535503535  W2        20329           0.0000000000
     60987     20329  TIP3      H2             18.4110733595       37.7261177139       13.3136803535  W2        20329           0.0000000000
     60988     20330  TIP3      OH2             4.9736733595       21.7719577139       11.8477603535  W2        20330           0.0000000000
     60989     20330  TIP3      H1              4.7446533595       21.8312077139       10.9202603535  W2        20330           0.0000000000
     60990     20330  TIP3      H2              4.5310133595       20.9805077139       12.1541703535  W2        20330           0.0000000000
     60991     20331  TIP3      OH2             3.9040033595       35.7126677139        8.0083403535  W2        20331           0.0000000000
     60992     20331  TIP3      H1              3.0718633595       36.1849377139        8.0354803535  W2        20331           0.0000000000
     60993     20331  TIP3      H2              4.4498333595       36.2224277139        7.4096503535  W2        20331           0.0000000000
     60994     20332  TIP3      OH2             3.1923733595       38.3250377139       19.3381403535  W2        20332           0.0000000000
     60995     20332  TIP3      H1              3.7325933595       38.1084377139       20.0980603535  W2        20332           0.0000000000
     60996     20332  TIP3      H2              2.7111733595       37.5196377139       19.1483903535  W2        20332           0.0000000000
     60997     20333  TIP3      OH2             7.7897133595       37.2444777139       20.9585603535  W2        20333           0.0000000000
     60998     20333  TIP3      H1              8.5574333595       36.7855577139       21.2994803535  W2        20333           0.0000000000
     60999     20333  TIP3      H2              7.7683333595       37.0184577139       20.0286803535  W2        20333           0.0000000000
     61000     20334  TIP3      OH2            11.8816733595       36.7525377139        2.3337403535  W2        20334           0.0000000000
     61001     20334  TIP3      H1             11.2377733595       36.1213977139        2.6551103535  W2        20334           0.0000000000
     61002     20334  TIP3      H2             12.6435033595       36.2213377139        2.1020903535  W2        20334           0.0000000000
     61003     20335  TIP3      OH2            14.3665833595       35.6245877139       19.6877103535  W2        20335           0.0000000000
     61004     20335  TIP3      H1             14.0155333595       34.7678877139       19.9307503535  W2        20335           0.0000000000
     61005     20335  TIP3      H2             15.0929033595       35.7672577139       20.2946103535  W2        20335           0.0000000000
     61006     20336  TIP3      OH2            16.4859633595       36.5695277139        2.5675403535  W2        20336           0.0000000000
     61007     20336  TIP3      H1             16.7690033595       35.7750477139        3.0202303535  W2        20336           0.0000000000
     61008     20336  TIP3      H2             17.2257533595       36.8026277139        2.0066503535  W2        20336           0.0000000000
     61009     20337  TIP3      OH2             3.0993233595       32.1354477139       20.2925703535  W2        20337           0.0000000000
     61010     20337  TIP3      H1              3.2433733595       31.2335177139       20.0062403535  W2        20337           0.0000000000
     61011     20337  TIP3      H2              2.3270633595       32.4216577139       19.8048003535  W2        20337           0.0000000000
     61012     20338  TIP3      OH2             7.4406933595       32.4790177139        2.4250303535  W2        20338           0.0000000000
     61013     20338  TIP3      H1              7.5051033595       31.6849777139        2.9556703535  W2        20338           0.0000000000
     61014     20338  TIP3      H2              8.0936133595       32.3602977139        1.7352303535  W2        20338           0.0000000000
     61015     20339  TIP3      OH2             9.7549333595       32.1052577139       19.7252103535  W2        20339           0.0000000000
     61016     20339  TIP3      H1              9.4263133595       32.3760677139       18.8679503535  W2        20339           0.0000000000
     61017     20339  TIP3      H2              9.9067533595       31.1642377139       19.6377103535  W2        20339           0.0000000000
     61018     20340  TIP3      OH2            12.7930333595       33.5261877139        2.1608303535  W2        20340           0.0000000000
     61019     20340  TIP3      H1             12.5244433595       33.7063977139        3.0617203535  W2        20340           0.0000000000
     61020     20340  TIP3      H2             12.5865933595       32.6008077139        2.0294103535  W2        20340           0.0000000000
     61021     20341  TIP3      OH2            15.4894533595       32.0209877139       17.1084403535  W2        20341           0.0000000000
     61022     20341  TIP3      H1             16.2349333595       32.6093577139       16.9888403535  W2        20341           0.0000000000
     61023     20341  TIP3      H2             14.7321333595       32.6029577139       17.1717503535  W2        20341           0.0000000000
     61024     20342  TIP3      OH2             3.9319733595       29.3357777139       19.7125003535  W2        20342           0.0000000000
     61025     20342  TIP3      H1              4.3400933595       28.4784377139       19.5915603535  W2        20342           0.0000000000
     61026     20342  TIP3      H2              3.6717333595       29.3499077139       20.6335303535  W2        20342           0.0000000000
     61027     20343  TIP3      OH2             8.5900733595       30.4516377139        4.7308303535  W2        20343           0.0000000000
     61028     20343  TIP3      H1              8.1302733595       29.9674677139        5.4166803535  W2        20343           0.0000000000
     61029     20343  TIP3      H2              8.8449433595       29.7831777139        4.0948803535  W2        20343           0.0000000000
     61030     20344  TIP3      OH2             7.8790033595       28.3443477139       17.0867903535  W2        20344           0.0000000000
     61031     20344  TIP3      H1              7.2606133595       29.0190077139       17.3672603535  W2        20344           0.0000000000
     61032     20344  TIP3      H2              8.2231233595       28.6657377139       16.2534103535  W2        20344           0.0000000000
     61033     20345  TIP3      OH2             9.6611133595       28.6948177139        2.9931503535  W2        20345           0.0000000000
     61034     20345  TIP3      H1              9.4806133595       28.5399377139        2.0659803535  W2        20345           0.0000000000
     61035     20345  TIP3      H2             10.6111633595       28.8026877139        3.0379403535  W2        20345           0.0000000000
     61036     20346  TIP3      OH2            12.8988233595       30.8158777139       20.3642703535  W2        20346           0.0000000000
     61037     20346  TIP3      H1             13.8519433595       30.8997877139       20.3368703535  W2        20346           0.0000000000
     61038     20346  TIP3      H2             12.7382833595       30.1040577139       20.9837603535  W2        20346           0.0000000000
     61039     20347  TIP3      OH2            19.0509433595       31.0492377139        2.4389603535  W2        20347           0.0000000000
     61040     20347  TIP3      H1             18.7774233595       30.6247877139        1.6257903535  W2        20347           0.0000000000
     61041     20347  TIP3      H2             19.0903533595       31.9806877139        2.2220003535  W2        20347           0.0000000000
     61042     20348  TIP3      OH2             8.2183733595       25.6994277139       18.1691003535  W2        20348           0.0000000000
     61043     20348  TIP3      H1              8.3684633595       24.9705577139       17.5670703535  W2        20348           0.0000000000
     61044     20348  TIP3      H2              8.2206133595       26.4765977139       17.6103203535  W2        20348           0.0000000000
     61045     20349  TIP3      OH2             8.6309433595       24.0690077139       15.6618403535  W2        20349           0.0000000000
     61046     20349  TIP3      H1              9.1666933595       24.5206777139       15.0097703535  W2        20349           0.0000000000
     61047     20349  TIP3      H2              7.7789033595       23.9609877139       15.2392503535  W2        20349           0.0000000000
     61048     20350  TIP3      OH2            10.2127833595       29.5086277139       15.9013603535  W2        20350           0.0000000000
     61049     20350  TIP3      H1             10.9632633595       29.3523777139       15.3281403535  W2        20350           0.0000000000
     61050     20350  TIP3      H2              9.8736133595       30.3602877139       15.6259103535  W2        20350           0.0000000000
     61051     20351  TIP3      OH2            14.6284033595       27.3238077139       20.9298903535  W2        20351           0.0000000000
     61052     20351  TIP3      H1             14.8205333595       26.3927477139       20.8183403535  W2        20351           0.0000000000
     61053     20351  TIP3      H2             15.4860333595       27.7487577139       20.9194303535  W2        20351           0.0000000000
     61054     20352  TIP3      OH2            15.9451233595       30.1123277139       19.0071603535  W2        20352           0.0000000000
     61055     20352  TIP3      H1             15.6636233595       30.8217877139       18.4295403535  W2        20352           0.0000000000
     61056     20352  TIP3      H2             16.8875533595       30.0396277139       18.8562803535  W2        20352           0.0000000000
     61057     20353  TIP3      OH2             6.6970033595       26.8977777139       20.0806603535  W2        20353           0.0000000000
     61058     20353  TIP3      H1              5.9299033595       26.3652577139       19.8704203535  W2        20353           0.0000000000
     61059     20353  TIP3      H2              7.3759033595       26.5878177139       19.4812903535  W2        20353           0.0000000000
     61060     20354  TIP3      OH2             9.4364933595       21.5255777139       16.0932003535  W2        20354           0.0000000000
     61061     20354  TIP3      H1              9.3384533595       22.4718977139       15.9878203535  W2        20354           0.0000000000
     61062     20354  TIP3      H2              8.6941133595       21.1529577139       15.6175503535  W2        20354           0.0000000000
     61063     20355  TIP3      OH2            10.7005433595       25.8471177139       19.6570403535  W2        20355           0.0000000000
     61064     20355  TIP3      H1             10.4650833595       25.6277877139       20.5585303535  W2        20355           0.0000000000
     61065     20355  TIP3      H2              9.9172333595       25.6402377139       19.1472903535  W2        20355           0.0000000000
     61066     20356  TIP3      OH2            13.4162033595       24.9744677139       18.7323903535  W2        20356           0.0000000000
     61067     20356  TIP3      H1             12.4687433595       25.0064377139       18.8647203535  W2        20356           0.0000000000
     61068     20356  TIP3      H2             13.7288733595       24.3491777139       19.3862103535  W2        20356           0.0000000000
     61069     20357  TIP3      OH2            15.0503533595       23.6085777139       20.7375803535  W2        20357           0.0000000000
     61070     20357  TIP3      H1             14.9535333595       22.6563077139       20.7317703535  W2        20357           0.0000000000
     61071     20357  TIP3      H2             14.7286633595       23.8772577139       21.5981303535  W2        20357           0.0000000000
     61072     20358  TIP3      OH2             4.8772833595       24.8181577139       19.7851303535  W2        20358           0.0000000000
     61073     20358  TIP3      H1              5.0890233595       24.1117677139       19.1748803535  W2        20358           0.0000000000
     61074     20358  TIP3      H2              4.7660333595       24.3807577139       20.6292503535  W2        20358           0.0000000000
     61075     20359  TIP3      OH2             9.6583033595       20.8193177139       18.7644803535  W2        20359           0.0000000000
     61076     20359  TIP3      H1             10.3701433595       20.1795377139       18.7503903535  W2        20359           0.0000000000
     61077     20359  TIP3      H2              9.5573433595       21.0861477139       17.8507903535  W2        20359           0.0000000000
     61078     20360  TIP3      OH2            10.0120533595       22.5021577139       20.8181103535  W2        20360           0.0000000000
     61079     20360  TIP3      H1              9.8802733595       22.0265377139       19.9979603535  W2        20360           0.0000000000
     61080     20360  TIP3      H2              9.4127933595       23.2465177139       20.7628203535  W2        20360           0.0000000000
     61081     20361  TIP3      OH2             9.5582833595       39.3851877139        3.9945103535  W2        20361           0.0000000000
     61082     20361  TIP3      H1             10.4913533595       39.5430577139        4.1383503535  W2        20361           0.0000000000
     61083     20361  TIP3      H2              9.2941633595       40.0604877139        3.3696603535  W2        20361           0.0000000000
     61084     20362  TIP3      OH2             3.1267733595       34.0215677139        3.4773203535  W2        20362           0.0000000000
     61085     20362  TIP3      H1              4.0406933595       34.1004577139        3.7507103535  W2        20362           0.0000000000
     61086     20362  TIP3      H2              3.1340833595       33.3345277139        2.8108803535  W2        20362           0.0000000000
     61087     20363  TIP3      OH2             1.7758333595       39.4144177139        8.5547103535  W2        20363           0.0000000000
     61088     20363  TIP3      H1              1.1285433595       38.9525877139        8.0218303535  W2        20363           0.0000000000
     61089     20363  TIP3      H2              2.1302933595       38.7427477139        9.1373303535  W2        20363           0.0000000000
     61090     20364  TIP3      OH2             2.6457533595       37.4951177139       10.3593303535  W2        20364           0.0000000000
     61091     20364  TIP3      H1              2.3114333595       36.6148477139       10.5313503535  W2        20364           0.0000000000
     61092     20364  TIP3      H2              2.8679933595       37.8406177139       11.2238903535  W2        20364           0.0000000000
     61093     20365  TIP3      OH2            20.1942333595       38.3047577139       13.3398103535  W2        20365           0.0000000000
     61094     20365  TIP3      H1             20.1729033595       38.4895977139       14.2787503535  W2        20365           0.0000000000
     61095     20365  TIP3      H2             20.8848533595       38.8731577139       12.9989503535  W2        20365           0.0000000000
     61096     20366  TIP3      OH2            19.7575233595       37.8718677139       16.2617203535  W2        20366           0.0000000000
     61097     20366  TIP3      H1             19.2703933595       37.1362777139       15.8904603535  W2        20366           0.0000000000
     61098     20366  TIP3      H2             20.3067933595       37.4782577139       16.9396603535  W2        20366           0.0000000000
     61099     20367  TIP3      OH2            18.2082533595       33.6616777139       20.8997503535  W2        20367           0.0000000000
     61100     20367  TIP3      H1             17.3423633595       33.5566477139       21.2939803535  W2        20367           0.0000000000
     61101     20367  TIP3      H2             18.5848433595       34.4200077139       21.3462203535  W2        20367           0.0000000000
     61102     20368  TIP3      OH2            19.5092233595       31.9180477139        6.4140003535  W2        20368           0.0000000000
     61103     20368  TIP3      H1             20.3593633595       32.3391377139        6.5411603535  W2        20368           0.0000000000
     61104     20368  TIP3      H2             19.5147333595       31.1780577139        7.0211403535  W2        20368           0.0000000000
     61105     20369  TIP3      OH2            19.9037833595       29.9717877139        8.2375703535  W2        20369           0.0000000000
     61106     20369  TIP3      H1             19.1772433595       29.4920477139        8.6353303535  W2        20369           0.0000000000
     61107     20369  TIP3      H2             20.4851133595       30.1772577139        8.9697303535  W2        20369           0.0000000000
     61108     20370  TIP3      OH2            19.6629033595       32.7565377139       13.1853303535  W2        20370           0.0000000000
     61109     20370  TIP3      H1             20.4963233595       32.3785377139       12.9046903535  W2        20370           0.0000000000
     61110     20370  TIP3      H2             19.7749333595       33.6996577139       13.0662403535  W2        20370           0.0000000000
     61111     20371  TIP3      OH2            18.1491333595       35.6342877139       15.4921703535  W2        20371           0.0000000000
     61112     20371  TIP3      H1             17.5016633595       35.9594377139       16.1176903535  W2        20371           0.0000000000
     61113     20371  TIP3      H2             17.6315333595       35.1940577139       14.8180003535  W2        20371           0.0000000000
     61114     20372  TIP3      OH2            20.1720933595       29.8726377139        4.6287003535  W2        20372           0.0000000000
     61115     20372  TIP3      H1             19.6502033595       30.2290477139        3.9097903535  W2        20372           0.0000000000
     61116     20372  TIP3      H2             20.1390133595       30.5474177139        5.3067903535  W2        20372           0.0000000000
     61117     20373  TIP3      OH2            18.5209933595       27.1121977139        3.1794103535  W2        20373           0.0000000000
     61118     20373  TIP3      H1             18.6174333595       27.7788977139        2.4993803535  W2        20373           0.0000000000
     61119     20373  TIP3      H2             18.3809533595       26.2968277139        2.6979603535  W2        20373           0.0000000000
     61120     20374  TIP3      OH2            17.6904633595       28.4924377139        8.8004403535  W2        20374           0.0000000000
     61121     20374  TIP3      H1             17.5403433595       27.5472977139        8.7802203535  W2        20374           0.0000000000
     61122     20374  TIP3      H2             17.3369133595       28.7735777139        9.6443503535  W2        20374           0.0000000000
     61123     20375  TIP3      OH2             2.7257033595       30.5706577139       12.8108203535  W2        20375           0.0000000000
     61124     20375  TIP3      H1              2.9099933595       30.4888277139       11.8751103535  W2        20375           0.0000000000
     61125     20375  TIP3      H2              3.5749933595       30.4463577139       13.2344603535  W2        20375           0.0000000000
     61126     20376  TIP3      OH2            18.5467533595       30.4627677139       18.4392703535  W2        20376           0.0000000000
     61127     20376  TIP3      H1             19.1294833595       29.7279977139       18.6309903535  W2        20376           0.0000000000
     61128     20376  TIP3      H2             19.1106833595       31.2347977139       18.4858503535  W2        20376           0.0000000000
     61129     20377  TIP3      OH2            20.0434633595       28.3653477139       19.1238103535  W2        20377           0.0000000000
     61130     20377  TIP3      H1             19.1801333595       27.9865577139       18.9582803535  W2        20377           0.0000000000
     61131     20377  TIP3      H2             20.6478333595       27.6268277139       19.0493903535  W2        20377           0.0000000000
     61132     20378  TIP3      OH2            17.7683733595       24.5201777139        2.2969603535  W2        20378           0.0000000000
     61133     20378  TIP3      H1             18.3789533595       24.1488577139        2.9337803535  W2        20378           0.0000000000
     61134     20378  TIP3      H2             16.9315233595       24.0988677139        2.4929603535  W2        20378           0.0000000000
     61135     20379  TIP3      OH2            17.4009433595       26.0750177139        7.2629503535  W2        20379           0.0000000000
     61136     20379  TIP3      H1             17.6806533595       25.1680577139        7.3871203535  W2        20379           0.0000000000
     61137     20379  TIP3      H2             18.1601133595       26.5091677139        6.8738703535  W2        20379           0.0000000000
     61138     20380  TIP3      OH2            18.0127733595       26.6567577139       12.6988403535  W2        20380           0.0000000000
     61139     20380  TIP3      H1             18.9455733595       26.8687477139       12.6644403535  W2        20380           0.0000000000
     61140     20380  TIP3      H2             17.7775233595       26.7579677139       13.6211403535  W2        20380           0.0000000000
     61141     20381  TIP3      OH2            18.0419633595       27.3932877139       15.4747803535  W2        20381           0.0000000000
     61142     20381  TIP3      H1             17.1990933595       27.6613277139       15.8407603535  W2        20381           0.0000000000
     61143     20381  TIP3      H2             18.4843933595       28.2154777139       15.2638903535  W2        20381           0.0000000000
     61144     20382  TIP3      OH2             2.3231833595       25.8411577139       18.9517003535  W2        20382           0.0000000000
     61145     20382  TIP3      H1              3.2426733595       25.7189877139       19.1880103535  W2        20382           0.0000000000
     61146     20382  TIP3      H2              1.8736333595       25.0911277139       19.3410503535  W2        20382           0.0000000000
     61147     20383  TIP3      OH2            20.3251233595       21.3733077139       20.8282803535  W2        20383           0.0000000000
     61148     20383  TIP3      H1             20.6748233595       20.7196577139       20.2227503535  W2        20383           0.0000000000
     61149     20383  TIP3      H2             20.4720733595       22.2107177139       20.3885403535  W2        20383           0.0000000000
     61150     20384  TIP3      OH2            18.0144233595       23.3379477139        7.3111503535  W2        20384           0.0000000000
     61151     20384  TIP3      H1             18.1969233595       22.8890977139        8.1366503535  W2        20384           0.0000000000
     61152     20384  TIP3      H2             17.4147133595       22.7533877139        6.8476103535  W2        20384           0.0000000000
     61153     20385  TIP3      OH2             3.5444333595       24.1533177139       11.8429903535  W2        20385           0.0000000000
     61154     20385  TIP3      H1              3.9895933595       23.3615677139       12.1449603535  W2        20385           0.0000000000
     61155     20385  TIP3      H2              4.0107333595       24.8698377139       12.2735503535  W2        20385           0.0000000000
     61156     20386  TIP3      OH2             1.8484633595       27.1526177139       12.9120103535  W2        20386           0.0000000000
     61157     20386  TIP3      H1              2.3404433595       26.9316677139       12.1212103535  W2        20386           0.0000000000
     61158     20386  TIP3      H2              2.2105533595       27.9929577139       13.1929603535  W2        20386           0.0000000000
     61159     20387  TIP3      OH2            19.8448433595       23.4827677139       19.1774103535  W2        20387           0.0000000000
     61160     20387  TIP3      H1             18.9274133595       23.7534777139       19.1417603535  W2        20387           0.0000000000
     61161     20387  TIP3      H2             19.9677833595       22.9476077139       18.3933803535  W2        20387           0.0000000000
     61162     20388  TIP3      OH2            19.8810433595       23.4057577139        3.8391803535  W2        20388           0.0000000000
     61163     20388  TIP3      H1             20.2933033595       22.6843277139        3.3639803535  W2        20388           0.0000000000
     61164     20388  TIP3      H2             20.5626933595       24.0752177139        3.8976103535  W2        20388           0.0000000000
     61165     20389  TIP3      OH2             2.1621133595       23.4105277139        6.9662503535  W2        20389           0.0000000000
     61166     20389  TIP3      H1              1.2369533595       23.6191877139        6.8368003535  W2        20389           0.0000000000
     61167     20389  TIP3      H2              2.6161033595       23.8946077139        6.2764803535  W2        20389           0.0000000000
     61168     20390  TIP3      OH2            16.9328333595       38.3946977139        8.9119903535  W2        20390           0.0000000000
     61169     20390  TIP3      H1             17.5851233595       38.0469077139        8.3039003535  W2        20390           0.0000000000
     61170     20390  TIP3      H2             17.4432133595       38.8830177139        9.5579603535  W2        20390           0.0000000000
     61171     20391  TIP3      OH2             2.1256533595       22.1484277139       15.3105003535  W2        20391           0.0000000000
     61172     20391  TIP3      H1              1.4607033595       21.9024577139       15.9535903535  W2        20391           0.0000000000
     61173     20391  TIP3      H2              1.6827833595       22.7704677139       14.7333003535  W2        20391           0.0000000000
     61174     20392  TIP3      OH2             4.3175833595       35.3238377139       19.4550803535  W2        20392           0.0000000000
     61175     20392  TIP3      H1              3.4968333595       35.4984877139       18.9945503535  W2        20392           0.0000000000
     61176     20392  TIP3      H2              4.0653633595       35.2503077139       20.3755203535  W2        20392           0.0000000000
     61177     20393  TIP3      OH2             7.2718733595       36.2979577139       15.7134803535  W2        20393           0.0000000000
     61178     20393  TIP3      H1              6.8469833595       37.1078077139       15.4309403535  W2        20393           0.0000000000
     61179     20393  TIP3      H2              8.1761533595       36.3833677139       15.4114603535  W2        20393           0.0000000000
     61180     20394  TIP3      OH2            11.5830133595       37.6969577139       18.6728503535  W2        20394           0.0000000000
     61181     20394  TIP3      H1             11.7677633595       37.3635677139       19.5508803535  W2        20394           0.0000000000
     61182     20394  TIP3      H2             12.4294633595       38.0068177139       18.3507703535  W2        20394           0.0000000000
     61183     20395  TIP3      OH2            13.9280533595       38.9828477139       17.9169903535  W2        20395           0.0000000000
     61184     20395  TIP3      H1             14.6049433595       38.3500777139       17.6769103535  W2        20395           0.0000000000
     61185     20395  TIP3      H2             14.2499333595       39.3838977139       18.7243203535  W2        20395           0.0000000000
     61186     20396  TIP3      OH2            18.8454333595       21.5723977139       16.9964903535  W2        20396           0.0000000000
     61187     20396  TIP3      H1             18.0327833595       21.8974277139       16.6089603535  W2        20396           0.0000000000
     61188     20396  TIP3      H2             19.0782833595       20.8122477139       16.4634003535  W2        20396           0.0000000000
     61189     20397  TIP3      OH2             4.6735433595       39.5543477139       15.7610103535  W2        20397           0.0000000000
     61190     20397  TIP3      H1              3.9531833595       39.9944477139       15.3097803535  W2        20397           0.0000000000
     61191     20397  TIP3      H2              4.3079433595       39.3038177139       16.6094103535  W2        20397           0.0000000000
     61192     20398  TIP3      OH2             7.1408033595       39.1547377139       14.7907303535  W2        20398           0.0000000000
     61193     20398  TIP3      H1              6.2760233595       39.2265877139       15.1947403535  W2        20398           0.0000000000
     61194     20398  TIP3      H2              7.0857033595       39.7014677139       14.0069803535  W2        20398           0.0000000000
     61195     20399  TIP3      OH2            11.8513633595       39.0426277139       13.9663303535  W2        20399           0.0000000000
     61196     20399  TIP3      H1             11.3947633595       39.5715977139       13.3121703535  W2        20399           0.0000000000
     61197     20399  TIP3      H2             12.0141633595       39.6457677139       14.6915603535  W2        20399           0.0000000000
     61198     20400  TIP3      OH2            14.1789933595       37.9205877139       14.9113603535  W2        20400           0.0000000000
     61199     20400  TIP3      H1             13.2743633595       38.0856077139       14.6455703535  W2        20400           0.0000000000
     61200     20400  TIP3      H2             14.6078533595       38.7738077139       14.8457003535  W2        20400           0.0000000000
     61201     20401  TIP3      OH2            16.7831833595       39.4904977139       15.2061403535  W2        20401           0.0000000000
     61202     20401  TIP3      H1             16.6013833595       40.4063877139       14.9956303535  W2        20401           0.0000000000
     61203     20401  TIP3      H2             16.9599633595       39.0802077139       14.3596003535  W2        20401           0.0000000000
     61204     20402  TIP3      OH2             4.0883533595       38.1775977139       12.6711903535  W2        20402           0.0000000000
     61205     20402  TIP3      H1              4.0699533595       37.7521077139       13.5284203535  W2        20402           0.0000000000
     61206     20402  TIP3      H2              4.8931433595       37.8590977139       12.2624103535  W2        20402           0.0000000000
     61207     20403  TIP3      OH2             6.2296633595       36.8874677139       11.3261803535  W2        20403           0.0000000000
     61208     20403  TIP3      H1              6.0107333595       35.9712077139       11.4957803535  W2        20403           0.0000000000
     61209     20403  TIP3      H2              7.0538833595       37.0275077139       11.7923203535  W2        20403           0.0000000000
     61210     20404  TIP3      OH2             8.7669133595       37.3573977139       12.1749803535  W2        20404           0.0000000000
     61211     20404  TIP3      H1              8.9794833595       36.4692977139       11.8880703535  W2        20404           0.0000000000
     61212     20404  TIP3      H2              8.8314233595       37.3231677139       13.1293803535  W2        20404           0.0000000000
     61213     20405  TIP3      OH2            12.2752833595       23.0214577139       11.3193103535  W2        20405           0.0000000000
     61214     20405  TIP3      H1             11.6009633595       22.3920177139       11.5748903535  W2        20405           0.0000000000
     61215     20405  TIP3      H2             12.8392033595       22.5373477139       10.7161003535  W2        20405           0.0000000000
     61216     20406  TIP3      OH2            17.4180033595       21.1288577139       11.4320203535  W2        20406           0.0000000000
     61217     20406  TIP3      H1             18.0217633595       21.6763977139       10.9301203535  W2        20406           0.0000000000
     61218     20406  TIP3      H2             16.5482033595       21.4478977139       11.1914303535  W2        20406           0.0000000000
     61219     20407  TIP3      OH2            19.1450433595       22.2677277139        9.7651103535  W2        20407           0.0000000000
     61220     20407  TIP3      H1             19.7567933595       21.7532977139        9.2384703535  W2        20407           0.0000000000
     61221     20407  TIP3      H2             19.5273833595       23.1449377139        9.7885503535  W2        20407           0.0000000000
     61222     20408  TIP3      OH2             4.6020333595       21.6554877139        9.1413003535  W2        20408           0.0000000000
     61223     20408  TIP3      H1              3.8250133595       21.4209777139        8.6338903535  W2        20408           0.0000000000
     61224     20408  TIP3      H2              5.1323933595       20.8586977139        9.1501003535  W2        20408           0.0000000000
     61225     20409  TIP3      OH2             3.4383733595       21.4532977139        4.9449103535  W2        20409           0.0000000000
     61226     20409  TIP3      H1              3.8774433595       22.0643477139        4.3532603535  W2        20409           0.0000000000
     61227     20409  TIP3      H2              2.8046133595       21.9917077139        5.4189103535  W2        20409           0.0000000000
     61228     20410  TIP3      OH2             9.1812933595       21.5821977139        8.9546103535  W2        20410           0.0000000000
     61229     20410  TIP3      H1             10.0556333595       21.9706277139        8.9250403535  W2        20410           0.0000000000
     61230     20410  TIP3      H2              9.0453733595       21.3669777139        9.8773303535  W2        20410           0.0000000000
     61231     20411  TIP3      OH2            14.7381333595       21.6121777139       10.6037803535  W2        20411           0.0000000000
     61232     20411  TIP3      H1             14.8142933595       21.7073377139        9.6543803535  W2        20411           0.0000000000
     61233     20411  TIP3      H2             14.4630533595       20.7044677139       10.7326903535  W2        20411           0.0000000000
     61234     20412  TIP3      OH2            16.0913933595       21.6379577139        6.2962803535  W2        20412           0.0000000000
     61235     20412  TIP3      H1             15.3885033595       22.2528777139        6.0864203535  W2        20412           0.0000000000
     61236     20412  TIP3      H2             15.6465333595       20.8006277139        6.4273703535  W2        20412           0.0000000000
     61237     20413  TIP3      OH2             3.3393233595       37.4015177139        5.8424203535  W2        20413           0.0000000000
     61238     20413  TIP3      H1              2.6543133595       37.3634077139        5.1749303535  W2        20413           0.0000000000
     61239     20413  TIP3      H2              3.3430433595       38.3142777139        6.1306303535  W2        20413           0.0000000000
     61240     20414  TIP3      OH2             5.2992833595       23.3694477139        3.3873203535  W2        20414           0.0000000000
     61241     20414  TIP3      H1              5.7906233595       22.7396877139        2.8598703535  W2        20414           0.0000000000
     61242     20414  TIP3      H2              5.9229133595       23.6653877139        4.0504403535  W2        20414           0.0000000000
     61243     20415  TIP3      OH2            10.3252933595       23.6625977139        5.8443703535  W2        20415           0.0000000000
     61244     20415  TIP3      H1             10.5034233595       23.0159177139        6.5272303535  W2        20415           0.0000000000
     61245     20415  TIP3      H2             10.2719133595       24.4963677139        6.3114803535  W2        20415           0.0000000000
     61246     20416  TIP3      OH2            12.2036733595       38.6110077139        4.2400403535  W2        20416           0.0000000000
     61247     20416  TIP3      H1             13.0696933595       38.9777477139        4.0618603535  W2        20416           0.0000000000
     61248     20416  TIP3      H2             11.9569533595       38.1718077139        3.4261203535  W2        20416           0.0000000000
     61249     20417  TIP3      OH2            18.9126333595       38.1740377139        6.9191503535  W2        20417           0.0000000000
     61250     20417  TIP3      H1             18.7183433595       37.4262477139        6.3541103535  W2        20417           0.0000000000
     61251     20417  TIP3      H2             18.8736433595       38.9320477139        6.3359403535  W2        20417           0.0000000000
     61252     20418  TIP3      OH2             4.5598333595       22.1696777139       18.6589203535  W2        20418           0.0000000000
     61253     20418  TIP3      H1              4.1936533595       21.4039377139       19.1013903535  W2        20418           0.0000000000
     61254     20418  TIP3      H2              5.4726833595       22.1986977139       18.9454303535  W2        20418           0.0000000000
     61255     20419  TIP3      OH2             6.5329133595       21.5201177139       20.1946303535  W2        20419           0.0000000000
     61256     20419  TIP3      H1              7.4312733595       21.2461377139       20.0099703535  W2        20419           0.0000000000
     61257     20419  TIP3      H2              6.1462233595       20.7777177139       20.6588903535  W2        20419           0.0000000000
     61258     20420  TIP3      OH2             5.1574433595       38.3215977139        2.8676303535  W2        20420           0.0000000000
     61259     20420  TIP3      H1              4.8899033595       38.6078877139        3.7409403535  W2        20420           0.0000000000
     61260     20420  TIP3      H2              5.9287033595       37.7755177139        3.0198803535  W2        20420           0.0000000000
     61261     20421  TIP3      OH2            14.9541433595       20.8526477139       20.3769103535  W2        20421           0.0000000000
     61262     20421  TIP3      H1             15.0308633595       20.4267177139       21.2306803535  W2        20421           0.0000000000
     61263     20421  TIP3      H2             15.8478033595       20.8661177139       20.0342603535  W2        20421           0.0000000000
     61264     20422  TIP3      OH2            18.1302533595       36.9252777139       19.0693303535  W2        20422           0.0000000000
     61265     20422  TIP3      H1             17.3484433595       36.7390777139       18.5493903535  W2        20422           0.0000000000
     61266     20422  TIP3      H2             18.0582433595       37.8547077139       19.2865803535  W2        20422           0.0000000000
     61267     20423  TIP3      OH2            32.5362933595       30.8117177139        9.1000503535  W2        20423           0.0000000000
     61268     20423  TIP3      H1             32.6254033595       31.7555377139        8.9677603535  W2        20423           0.0000000000
     61269     20423  TIP3      H2             31.8980533595       30.5363577139        8.4419903535  W2        20423           0.0000000000
     61270     20424  TIP3      OH2            31.4694233595       30.0667877139       12.5188703535  W2        20424           0.0000000000
     61271     20424  TIP3      H1             31.4311733595       29.4204177139       13.2238303535  W2        20424           0.0000000000
     61272     20424  TIP3      H2             31.1470733595       29.6002277139       11.7477403535  W2        20424           0.0000000000
     61273     20425  TIP3      OH2            23.8379233595       29.6809977139       14.1118603535  W2        20425           0.0000000000
     61274     20425  TIP3      H1             23.8791333595       29.0553277139       14.8351003535  W2        20425           0.0000000000
     61275     20425  TIP3      H2             24.5406933595       30.3048577139       14.2939003535  W2        20425           0.0000000000
     61276     20426  TIP3      OH2            35.1754433595       33.0058277139       10.8203803535  W2        20426           0.0000000000
     61277     20426  TIP3      H1             34.7347133595       32.2854277139       11.2709403535  W2        20426           0.0000000000
     61278     20426  TIP3      H2             35.1624133595       33.7265477139       11.4501503535  W2        20426           0.0000000000
     61279     20427  TIP3      OH2            24.7612333595       34.1308877139       12.6467703535  W2        20427           0.0000000000
     61280     20427  TIP3      H1             24.3917533595       33.3289377139       12.2772003535  W2        20427           0.0000000000
     61281     20427  TIP3      H2             25.7023433595       33.9623777139       12.6931103535  W2        20427           0.0000000000
     61282     20428  TIP3      OH2            21.3712833595       27.7911477139        8.0396503535  W2        20428           0.0000000000
     61283     20428  TIP3      H1             20.9236233595       28.6370177139        8.0213003535  W2        20428           0.0000000000
     61284     20428  TIP3      H2             20.8104033595       27.2115677139        7.5241603535  W2        20428           0.0000000000
     61285     20429  TIP3      OH2            22.0818933595       29.9531077139       10.1654503535  W2        20429           0.0000000000
     61286     20429  TIP3      H1             22.2952433595       29.1832677139       10.6927503535  W2        20429           0.0000000000
     61287     20429  TIP3      H2             22.8196533595       30.0427777139        9.5622103535  W2        20429           0.0000000000
     61288     20430  TIP3      OH2            32.2869933595       38.1099977139       11.0324203535  W2        20430           0.0000000000
     61289     20430  TIP3      H1             32.9066333595       37.4334677139       10.7593403535  W2        20430           0.0000000000
     61290     20430  TIP3      H2             32.0787333595       37.8920777139       11.9409103535  W2        20430           0.0000000000
     61291     20431  TIP3      OH2            29.8588633595       32.4989277139       12.9249703535  W2        20431           0.0000000000
     61292     20431  TIP3      H1             30.1626533595       31.8130677139       12.3303803535  W2        20431           0.0000000000
     61293     20431  TIP3      H2             30.5802633595       32.6177977139       13.5427703535  W2        20431           0.0000000000
     61294     20432  TIP3      OH2            38.5218433595       24.1004577139       13.7855903535  W2        20432           0.0000000000
     61295     20432  TIP3      H1             38.5710633595       24.7105777139       14.5215003535  W2        20432           0.0000000000
     61296     20432  TIP3      H2             38.9473533595       24.5615477139       13.0627003535  W2        20432           0.0000000000
     61297     20433  TIP3      OH2            32.9995633595       26.8931677139       13.2524503535  W2        20433           0.0000000000
     61298     20433  TIP3      H1             33.1421533595       25.9468677139       13.2726103535  W2        20433           0.0000000000
     61299     20433  TIP3      H2             32.8934633595       27.1001477139       12.3239403535  W2        20433           0.0000000000
     61300     20434  TIP3      OH2            26.1543933595       24.9948077139       10.5249303535  W2        20434           0.0000000000
     61301     20434  TIP3      H1             26.1975033595       25.8546577139       10.1065603535  W2        20434           0.0000000000
     61302     20434  TIP3      H2             25.6968033595       24.4422777139        9.8912503535  W2        20434           0.0000000000
     61303     20435  TIP3      OH2            33.8766633595       25.1253677139        8.9257603535  W2        20435           0.0000000000
     61304     20435  TIP3      H1             34.5230933595       24.7966877139        9.5505203535  W2        20435           0.0000000000
     61305     20435  TIP3      H2             34.3866033595       25.6432677139        8.3029003535  W2        20435           0.0000000000
     61306     20436  TIP3      OH2            22.7745433595       27.3913877139       11.2870703535  W2        20436           0.0000000000
     61307     20436  TIP3      H1             23.4282033595       26.8415577139       11.7190803535  W2        20436           0.0000000000
     61308     20436  TIP3      H2             22.7984733595       27.1172877139       10.3702703535  W2        20436           0.0000000000
     61309     20437  TIP3      OH2            27.9309933595       28.9415177139       10.5022203535  W2        20437           0.0000000000
     61310     20437  TIP3      H1             28.5470933595       28.4150577139       11.0116203535  W2        20437           0.0000000000
     61311     20437  TIP3      H2             27.3448733595       28.3013877139       10.0985803535  W2        20437           0.0000000000
     61312     20438  TIP3      OH2            38.9133033595       25.5783777139       16.0215703535  W2        20438           0.0000000000
     61313     20438  TIP3      H1             38.2247633595       26.2364477139       15.9262303535  W2        20438           0.0000000000
     61314     20438  TIP3      H2             38.9287633595       25.3811677139       16.9581103535  W2        20438           0.0000000000
     61315     20439  TIP3      OH2            24.9645833595       23.9126477139       14.5990103535  W2        20439           0.0000000000
     61316     20439  TIP3      H1             24.7457533595       24.4427077139       13.8326103535  W2        20439           0.0000000000
     61317     20439  TIP3      H2             24.2966733595       24.1391977139       15.2461503535  W2        20439           0.0000000000
     61318     20440  TIP3      OH2            32.3335633595       33.4127577139        8.1429203535  W2        20440           0.0000000000
     61319     20440  TIP3      H1             32.0380733595       33.0899877139        7.2916103535  W2        20440           0.0000000000
     61320     20440  TIP3      H2             32.0093433595       34.3124277139        8.1841803535  W2        20440           0.0000000000
     61321     20441  TIP3      OH2            27.5337233595       31.5882177139       14.8863803535  W2        20441           0.0000000000
     61322     20441  TIP3      H1             26.7936333595       32.1863677139       14.9899003535  W2        20441           0.0000000000
     61323     20441  TIP3      H2             28.2476733595       32.1421777139       14.5707403535  W2        20441           0.0000000000
     61324     20442  TIP3      OH2            35.6405033595       24.4162977139       10.9063503535  W2        20442           0.0000000000
     61325     20442  TIP3      H1             35.4253033595       23.6506377139       11.4389503535  W2        20442           0.0000000000
     61326     20442  TIP3      H2             36.2962433595       24.8887577139       11.4192003535  W2        20442           0.0000000000
     61327     20443  TIP3      OH2            24.5583133595       25.8048277139       12.5512303535  W2        20443           0.0000000000
     61328     20443  TIP3      H1             25.1719433595       26.4375877139       12.9244703535  W2        20443           0.0000000000
     61329     20443  TIP3      H2             25.0703833595       25.3323277139       11.8949203535  W2        20443           0.0000000000
     61330     20444  TIP3      OH2            25.9411533595       33.5525177139       15.6735303535  W2        20444           0.0000000000
     61331     20444  TIP3      H1             25.9359133595       34.4318677139       15.2954603535  W2        20444           0.0000000000
     61332     20444  TIP3      H2             25.0875633595       33.4689277139       16.0985203535  W2        20444           0.0000000000
     61333     20445  TIP3      OH2            22.0622433595       33.2233077139        6.4554603535  W2        20445           0.0000000000
     61334     20445  TIP3      H1             21.7903333595       33.4524077139        5.5667503535  W2        20445           0.0000000000
     61335     20445  TIP3      H2             22.1078133595       34.0611877139        6.9159903535  W2        20445           0.0000000000
     61336     20446  TIP3      OH2            35.6872133595       34.8448977139       13.1683103535  W2        20446           0.0000000000
     61337     20446  TIP3      H1             34.7455833595       34.9032877139       13.3300003535  W2        20446           0.0000000000
     61338     20446  TIP3      H2             35.9638233595       35.7509477139       13.0312803535  W2        20446           0.0000000000
     61339     20447  TIP3      OH2            35.9879133595       23.1314277139       14.5857003535  W2        20447           0.0000000000
     61340     20447  TIP3      H1             35.2518333595       23.7421377139       14.5478303535  W2        20447           0.0000000000
     61341     20447  TIP3      H2             36.6713133595       23.5463277139       14.0593403535  W2        20447           0.0000000000
     61342     20448  TIP3      OH2            28.9910533595       21.2181577139       12.0515003535  W2        20448           0.0000000000
     61343     20448  TIP3      H1             28.8734733595       20.2697577139       11.9973303535  W2        20448           0.0000000000
     61344     20448  TIP3      H2             28.1360633595       21.5507677139       12.3246103535  W2        20448           0.0000000000
     61345     20449  TIP3      OH2            33.9393333595       36.6262477139        9.7934703535  W2        20449           0.0000000000
     61346     20449  TIP3      H1             34.3645633595       35.9190377139        9.3084303535  W2        20449           0.0000000000
     61347     20449  TIP3      H2             34.2563333595       37.4275177139        9.3766903535  W2        20449           0.0000000000
     61348     20450  TIP3      OH2            35.0989833595       34.5270977139        8.3021303535  W2        20450           0.0000000000
     61349     20450  TIP3      H1             34.8414633595       33.8371077139        7.6907203535  W2        20450           0.0000000000
     61350     20450  TIP3      H2             35.1700633595       34.0842177139        9.1477203535  W2        20450           0.0000000000
     61351     20451  TIP3      OH2            36.7850033595       33.0937677139       16.7794803535  W2        20451           0.0000000000
     61352     20451  TIP3      H1             36.9246333595       32.5020177139       16.0401803535  W2        20451           0.0000000000
     61353     20451  TIP3      H2             36.9522833595       33.9663577139       16.4233603535  W2        20451           0.0000000000
     61354     20452  TIP3      OH2            31.2575433595       30.0557177139        6.5520803535  W2        20452           0.0000000000
     61355     20452  TIP3      H1             30.5460933595       30.5906877139        6.2001303535  W2        20452           0.0000000000
     61356     20452  TIP3      H2             31.9485033595       30.1109277139        5.8919703535  W2        20452           0.0000000000
     61357     20453  TIP3      OH2            31.3114633595       28.5131477139        3.5905803535  W2        20453           0.0000000000
     61358     20453  TIP3      H1             32.0124533595       28.5358377139        4.2419803535  W2        20453           0.0000000000
     61359     20453  TIP3      H2             31.6137533595       27.8851177139        2.9345103535  W2        20453           0.0000000000
     61360     20454  TIP3      OH2            38.6269333595       29.4335677139       14.8455203535  W2        20454           0.0000000000
     61361     20454  TIP3      H1             37.9743433595       30.1281277139       14.9346103535  W2        20454           0.0000000000
     61362     20454  TIP3      H2             39.0919633595       29.6436577139       14.0356803535  W2        20454           0.0000000000
     61363     20455  TIP3      OH2            34.6633133595       30.2650477139        7.5036703535  W2        20455           0.0000000000
     61364     20455  TIP3      H1             33.9314133595       30.4934177139        8.0767303535  W2        20455           0.0000000000
     61365     20455  TIP3      H2             35.1105333595       29.5513177139        7.9584203535  W2        20455           0.0000000000
     61366     20456  TIP3      OH2            34.5606633595       28.4393077139       16.5713703535  W2        20456           0.0000000000
     61367     20456  TIP3      H1             34.6405733595       29.2027477139       17.1432203535  W2        20456           0.0000000000
     61368     20456  TIP3      H2             33.9594333595       28.7185477139       15.8808803535  W2        20456           0.0000000000
     61369     20457  TIP3      OH2            26.3086833595       30.8956677139        9.3861703535  W2        20457           0.0000000000
     61370     20457  TIP3      H1             25.9782033595       30.5250077139        8.5678703535  W2        20457           0.0000000000
     61371     20457  TIP3      H2             26.8970933595       30.2250677139        9.7330003535  W2        20457           0.0000000000
     61372     20458  TIP3      OH2            27.6754333595       34.3237277139       12.0673903535  W2        20458           0.0000000000
     61373     20458  TIP3      H1             27.5805633595       33.7450377139       11.3108503535  W2        20458           0.0000000000
     61374     20458  TIP3      H2             28.4047933595       33.9522977139       12.5636703535  W2        20458           0.0000000000
     61375     20459  TIP3      OH2            26.6752333595       29.6642277139       13.0196703535  W2        20459           0.0000000000
     61376     20459  TIP3      H1             27.2404833595       29.7856477139       12.2567903535  W2        20459           0.0000000000
     61377     20459  TIP3      H2             26.9941233595       30.3017277139       13.6585203535  W2        20459           0.0000000000
     61378     20460  TIP3      OH2            32.9844533595       35.1674177139       13.7537203535  W2        20460           0.0000000000
     61379     20460  TIP3      H1             32.7441133595       35.8297277139       14.4016403535  W2        20460           0.0000000000
     61380     20460  TIP3      H2             32.7862733595       34.3329377139       14.1786803535  W2        20460           0.0000000000
     61381     20461  TIP3      OH2            27.5553033595       34.0634977139       17.7368603535  W2        20461           0.0000000000
     61382     20461  TIP3      H1             27.2440533595       34.8458177139       18.1921803535  W2        20461           0.0000000000
     61383     20461  TIP3      H2             26.9053233595       33.9104077139       17.0510603535  W2        20461           0.0000000000
     61384     20462  TIP3      OH2            33.5342633595       29.4273377139        5.1887903535  W2        20462           0.0000000000
     61385     20462  TIP3      H1             34.1138133595       29.5773677139        5.9356803535  W2        20462           0.0000000000
     61386     20462  TIP3      H2             33.9482633595       29.8980777139        4.4654303535  W2        20462           0.0000000000
     61387     20463  TIP3      OH2            24.4752933595       30.2616077139       16.9654303535  W2        20463           0.0000000000
     61388     20463  TIP3      H1             24.5456133595       30.9122877139       17.6639303535  W2        20463           0.0000000000
     61389     20463  TIP3      H2             23.5845133595       30.3643577139       16.6305203535  W2        20463           0.0000000000
     61390     20464  TIP3      OH2            31.2607533595       36.1641877139        8.6241003535  W2        20464           0.0000000000
     61391     20464  TIP3      H1             31.7345133595       36.4598177139        9.4015203535  W2        20464           0.0000000000
     61392     20464  TIP3      H2             30.6976833595       36.9023477139        8.3910603535  W2        20464           0.0000000000
     61393     20465  TIP3      OH2            25.7948933595       36.1349977139       18.5002403535  W2        20465           0.0000000000
     61394     20465  TIP3      H1             25.8024233595       35.9989677139       17.5527903535  W2        20465           0.0000000000
     61395     20465  TIP3      H2             24.8789333595       36.0178077139       18.7522403535  W2        20465           0.0000000000
     61396     20466  TIP3      OH2            37.2331033595       21.1773777139        5.0017603535  W2        20466           0.0000000000
     61397     20466  TIP3      H1             36.3331733595       21.3162777139        5.2968203535  W2        20466           0.0000000000
     61398     20466  TIP3      H2             37.4849433595       22.0088377139        4.5999303535  W2        20466           0.0000000000
     61399     20467  TIP3      OH2            25.2989533595       29.9650977139        6.9754503535  W2        20467           0.0000000000
     61400     20467  TIP3      H1             25.0070833595       30.7332677139        6.4845803535  W2        20467           0.0000000000
     61401     20467  TIP3      H2             24.6244733595       29.3057177139        6.8125903535  W2        20467           0.0000000000
     61402     20468  TIP3      OH2            38.4222433595       35.5436177139        3.3781503535  W2        20468           0.0000000000
     61403     20468  TIP3      H1             38.4955933595       36.4826377139        3.5486803535  W2        20468           0.0000000000
     61404     20468  TIP3      H2             39.3277533595       35.2384777139        3.3218803535  W2        20468           0.0000000000
     61405     20469  TIP3      OH2            21.3919633595       32.3280177139       15.7904303535  W2        20469           0.0000000000
     61406     20469  TIP3      H1             20.8908033595       32.2999577139       14.9754003535  W2        20469           0.0000000000
     61407     20469  TIP3      H2             21.3973333595       31.4223377139       16.1001603535  W2        20469           0.0000000000
     61408     20470  TIP3      OH2            21.1422333595       35.1083977139       12.6744503535  W2        20470           0.0000000000
     61409     20470  TIP3      H1             22.0882933595       34.9640977139       12.6554003535  W2        20470           0.0000000000
     61410     20470  TIP3      H2             21.0298633595       35.8926777139       13.2115703535  W2        20470           0.0000000000
     61411     20471  TIP3      OH2            39.3400833595       35.7743677139       18.3568203535  W2        20471           0.0000000000
     61412     20471  TIP3      H1             39.2907633595       34.8191777139       18.3195803535  W2        20471           0.0000000000
     61413     20471  TIP3      H2             38.5133133595       36.0418977139       18.7582003535  W2        20471           0.0000000000
     61414     20472  TIP3      OH2            30.3184833595       35.3482877139       17.2329603535  W2        20472           0.0000000000
     61415     20472  TIP3      H1             30.4059433595       36.1747477139       17.7078703535  W2        20472           0.0000000000
     61416     20472  TIP3      H2             29.4549933595       35.0186677139       17.4818903535  W2        20472           0.0000000000
     61417     20473  TIP3      OH2            30.7330633595       39.1206577139        7.0390203535  W2        20473           0.0000000000
     61418     20473  TIP3      H1             30.6576633595       38.9993777139        6.0925403535  W2        20473           0.0000000000
     61419     20473  TIP3      H2             30.7659333595       40.0699277139        7.1574803535  W2        20473           0.0000000000
     61420     20474  TIP3      OH2            24.3864433595       37.9093577139        8.8199203535  W2        20474           0.0000000000
     61421     20474  TIP3      H1             24.5384833595       37.5613977139        9.6985703535  W2        20474           0.0000000000
     61422     20474  TIP3      H2             23.5354833595       37.5530877139        8.5646403535  W2        20474           0.0000000000
     61423     20475  TIP3      OH2            33.8346633595       38.2746777139        4.0412603535  W2        20475           0.0000000000
     61424     20475  TIP3      H1             34.2095033595       37.5302877139        3.5705203535  W2        20475           0.0000000000
     61425     20475  TIP3      H2             33.8390333595       38.0047377139        4.9595903535  W2        20475           0.0000000000
     61426     20476  TIP3      OH2            33.5034733595       38.2003877139        6.7904803535  W2        20476           0.0000000000
     61427     20476  TIP3      H1             32.5684533595       38.3005777139        6.9691803535  W2        20476           0.0000000000
     61428     20476  TIP3      H2             33.7836633595       37.4909877139        7.3688003535  W2        20476           0.0000000000
     61429     20477  TIP3      OH2            36.4920633595       27.2676177139       18.8370403535  W2        20477           0.0000000000
     61430     20477  TIP3      H1             36.0847433595       27.7481777139       18.1163703535  W2        20477           0.0000000000
     61431     20477  TIP3      H2             36.5326333595       26.3622177139       18.5291203535  W2        20477           0.0000000000
     61432     20478  TIP3      OH2            23.6410133595       33.6515577139       16.8337103535  W2        20478           0.0000000000
     61433     20478  TIP3      H1             23.8571433595       33.2901177139       17.6932903535  W2        20478           0.0000000000
     61434     20478  TIP3      H2             22.7854833595       33.2769377139       16.6240603535  W2        20478           0.0000000000
     61435     20479  TIP3      OH2            26.2598133595       22.1216077139       12.8291303535  W2        20479           0.0000000000
     61436     20479  TIP3      H1             25.3981833595       22.0344277139       12.4214203535  W2        20479           0.0000000000
     61437     20479  TIP3      H2             26.2373833595       22.9776177139       13.2568903535  W2        20479           0.0000000000
     61438     20480  TIP3      OH2            30.9225933595       21.8436477139       16.2038303535  W2        20480           0.0000000000
     61439     20480  TIP3      H1             31.3429033595       21.4283577139       16.9568903535  W2        20480           0.0000000000
     61440     20480  TIP3      H2             29.9895533595       21.6649777139       16.3210303535  W2        20480           0.0000000000
     61441     20481  TIP3      OH2            34.2490833595       25.5991677139       17.0572803535  W2        20481           0.0000000000
     61442     20481  TIP3      H1             33.7350333595       25.4733877139       17.8548803535  W2        20481           0.0000000000
     61443     20481  TIP3      H2             34.0935533595       26.5114777139       16.8129003535  W2        20481           0.0000000000
     61444     20482  TIP3      OH2            35.0115733595       30.4601677139        2.8185803535  W2        20482           0.0000000000
     61445     20482  TIP3      H1             35.0536533595       30.2375577139        1.8885803535  W2        20482           0.0000000000
     61446     20482  TIP3      H2             35.8607833595       30.8588777139        3.0085703535  W2        20482           0.0000000000
     61447     20483  TIP3      OH2            30.5843233595       24.3359877139        3.4889103535  W2        20483           0.0000000000
     61448     20483  TIP3      H1             30.3308033595       24.3551477139        4.4117203535  W2        20483           0.0000000000
     61449     20483  TIP3      H2             30.3275333595       23.4645277139        3.1875303535  W2        20483           0.0000000000
     61450     20484  TIP3      OH2            26.3508233595       27.0870577139       13.9241503535  W2        20484           0.0000000000
     61451     20484  TIP3      H1             25.7090333595       27.0467877139       14.6331603535  W2        20484           0.0000000000
     61452     20484  TIP3      H2             26.3880233595       28.0135277139       13.6864503535  W2        20484           0.0000000000
     61453     20485  TIP3      OH2            26.3477333595       27.3080677139        8.8361503535  W2        20485           0.0000000000
     61454     20485  TIP3      H1             25.4550233595       26.9676777139        8.7775303535  W2        20485           0.0000000000
     61455     20485  TIP3      H2             26.7983933595       26.9311577139        8.0804703535  W2        20485           0.0000000000
     61456     20486  TIP3      OH2            31.8832833595       27.7240977139        7.6532303535  W2        20486           0.0000000000
     61457     20486  TIP3      H1             31.4743133595       28.5389577139        7.3617103535  W2        20486           0.0000000000
     61458     20486  TIP3      H2             32.6039033595       27.5841077139        7.0389403535  W2        20486           0.0000000000
     61459     20487  TIP3      OH2            30.9854433595       27.8997377139       19.1413003535  W2        20487           0.0000000000
     61460     20487  TIP3      H1             30.4228233595       27.1948977139       19.4620803535  W2        20487           0.0000000000
     61461     20487  TIP3      H2             31.8117833595       27.7789277139       19.6090603535  W2        20487           0.0000000000
     61462     20488  TIP3      OH2            32.8880533595       27.1701377139       10.4672003535  W2        20488           0.0000000000
     61463     20488  TIP3      H1             32.6925033595       27.7758177139        9.7522603535  W2        20488           0.0000000000
     61464     20488  TIP3      H2             33.0693133595       26.3366577139       10.0328303535  W2        20488           0.0000000000
     61465     20489  TIP3      OH2            24.1008733595       27.4074077139       15.7913503535  W2        20489           0.0000000000
     61466     20489  TIP3      H1             24.0628133595       27.8075677139       16.6600603535  W2        20489           0.0000000000
     61467     20489  TIP3      H2             23.6099833595       26.5906477139       15.8816403535  W2        20489           0.0000000000
     61468     20490  TIP3      OH2            27.4666133595       24.7816377139        2.5899503535  W2        20490           0.0000000000
     61469     20490  TIP3      H1             27.0356833595       24.3366477139        3.3196903535  W2        20490           0.0000000000
     61470     20490  TIP3      H2             26.7484833595       25.1532677139        2.0777003535  W2        20490           0.0000000000
     61471     20491  TIP3      OH2            20.7089533595       24.5235877139        9.6418203535  W2        20491           0.0000000000
     61472     20491  TIP3      H1             21.3397233595       24.4947977139       10.3612103535  W2        20491           0.0000000000
     61473     20491  TIP3      H2             21.1583833595       24.0984577139        8.9114103535  W2        20491           0.0000000000
     61474     20492  TIP3      OH2            21.9831633595       25.2697877139        5.0658603535  W2        20492           0.0000000000
     61475     20492  TIP3      H1             22.4573333595       25.8607777139        4.4809503535  W2        20492           0.0000000000
     61476     20492  TIP3      H2             21.2658033595       25.8000777139        5.4128703535  W2        20492           0.0000000000
     61477     20493  TIP3      OH2            32.1519733595       28.8082677139       15.1384403535  W2        20493           0.0000000000
     61478     20493  TIP3      H1             32.4754533595       28.1772377139       14.4954903535  W2        20493           0.0000000000
     61479     20493  TIP3      H2             31.7119033595       28.2734877139       15.7991803535  W2        20493           0.0000000000
     61480     20494  TIP3      OH2            28.9292633595       24.7358177139        9.9225603535  W2        20494           0.0000000000
     61481     20494  TIP3      H1             28.0183733595       24.7924977139       10.2111603535  W2        20494           0.0000000000
     61482     20494  TIP3      H2             29.4345533595       24.6753677139       10.7332803535  W2        20494           0.0000000000
     61483     20495  TIP3      OH2            23.7576033595       26.3644477139        8.7493203535  W2        20495           0.0000000000
     61484     20495  TIP3      H1             22.8684033595       26.4639977139        8.4092803535  W2        20495           0.0000000000
     61485     20495  TIP3      H2             24.0540933595       25.5227477139        8.4031103535  W2        20495           0.0000000000
     61486     20496  TIP3      OH2            27.4107833595       26.3647077139        6.4057803535  W2        20496           0.0000000000
     61487     20496  TIP3      H1             28.3423333595       26.4937077139        6.5840903535  W2        20496           0.0000000000
     61488     20496  TIP3      H2             27.1958133595       27.0341377139        5.7562503535  W2        20496           0.0000000000
     61489     20497  TIP3      OH2            33.3344533595       23.9704477139       13.1867403535  W2        20497           0.0000000000
     61490     20497  TIP3      H1             32.6576133595       24.1017577139       13.8507103535  W2        20497           0.0000000000
     61491     20497  TIP3      H2             32.8489433595       23.8153977139       12.3765103535  W2        20497           0.0000000000
     61492     20498  TIP3      OH2            26.0848033595       27.5589277139        3.9723903535  W2        20498           0.0000000000
     61493     20498  TIP3      H1             25.5423133595       27.1793077139        3.2811503535  W2        20498           0.0000000000
     61494     20498  TIP3      H2             26.9182933595       27.7533977139        3.5438003535  W2        20498           0.0000000000
     61495     20499  TIP3      OH2            36.6219633595       39.6419877139       19.4635003535  W2        20499           0.0000000000
     61496     20499  TIP3      H1             36.8218333595       40.0661777139       18.6290303535  W2        20499           0.0000000000
     61497     20499  TIP3      H2             37.2773333595       39.9858077139       20.0705403535  W2        20499           0.0000000000
     61498     20500  TIP3      OH2            24.2199433595       32.1161177139       19.0715503535  W2        20500           0.0000000000
     61499     20500  TIP3      H1             24.9521833595       32.3707077139       19.6330003535  W2        20500           0.0000000000
     61500     20500  TIP3      H2             23.4398133595       32.3206577139       19.5870903535  W2        20500           0.0000000000
     61501     20501  TIP3      OH2            30.2492333595       27.5231177139       11.8095203535  W2        20501           0.0000000000
     61502     20501  TIP3      H1             30.8135733595       26.9767777139       11.2624803535  W2        20501           0.0000000000
     61503     20501  TIP3      H2             30.1015733595       27.0013077139       12.5982803535  W2        20501           0.0000000000
     61504     20502  TIP3      OH2            25.2512033595       23.6597277139        8.2280003535  W2        20502           0.0000000000
     61505     20502  TIP3      H1             24.9341533595       22.7572577139        8.1925403535  W2        20502           0.0000000000
     61506     20502  TIP3      H2             26.0326133595       23.6614677139        7.6751603535  W2        20502           0.0000000000
     61507     20503  TIP3      OH2            28.8758233595       25.9117277139       14.2235603535  W2        20503           0.0000000000
     61508     20503  TIP3      H1             28.0403533595       26.3656777139       14.3338003535  W2        20503           0.0000000000
     61509     20503  TIP3      H2             29.3998833595       26.1875777139       14.9755503535  W2        20503           0.0000000000
     61510     20504  TIP3      OH2            29.4200833595       32.1244977139        5.9082003535  W2        20504           0.0000000000
     61511     20504  TIP3      H1             28.6751833595       31.6170277139        5.5859903535  W2        20504           0.0000000000
     61512     20504  TIP3      H2             29.2858033595       32.1732977139        6.8546803535  W2        20504           0.0000000000
     61513     20505  TIP3      OH2            36.5699733595       31.2573177139       14.6949603535  W2        20505           0.0000000000
     61514     20505  TIP3      H1             37.2118533595       31.7139477139       14.1511803535  W2        20505           0.0000000000
     61515     20505  TIP3      H2             35.7396633595       31.3705577139       14.2323703535  W2        20505           0.0000000000
     61516     20506  TIP3      OH2            33.3177633595       24.9384877139        4.1074603535  W2        20506           0.0000000000
     61517     20506  TIP3      H1             32.3791833595       25.0500477139        3.9563403535  W2        20506           0.0000000000
     61518     20506  TIP3      H2             33.6149733595       25.7951777139        4.4140303535  W2        20506           0.0000000000
     61519     20507  TIP3      OH2            30.9392933595       32.3088277139       17.1451103535  W2        20507           0.0000000000
     61520     20507  TIP3      H1             30.5939033595       31.9270677139       17.9520703535  W2        20507           0.0000000000
     61521     20507  TIP3      H2             30.7393033595       33.2421877139       17.2164003535  W2        20507           0.0000000000
     61522     20508  TIP3      OH2            34.0361133595       26.8057577139        5.7682003535  W2        20508           0.0000000000
     61523     20508  TIP3      H1             34.9280133595       26.6682577139        6.0873203535  W2        20508           0.0000000000
     61524     20508  TIP3      H2             34.0924733595       27.5963677139        5.2315503535  W2        20508           0.0000000000
     61525     20509  TIP3      OH2            24.5449133595       31.4194977139       11.6779903535  W2        20509           0.0000000000
     61526     20509  TIP3      H1             25.2896333595       31.4170677139       11.0766403535  W2        20509           0.0000000000
     61527     20509  TIP3      H2             24.6225733595       30.5958777139       12.1595003535  W2        20509           0.0000000000
     61528     20510  TIP3      OH2            31.5454933595       33.5829277139        4.9336603535  W2        20510           0.0000000000
     61529     20510  TIP3      H1             31.2503333595       34.4097177139        5.3151403535  W2        20510           0.0000000000
     61530     20510  TIP3      H2             30.8424933595       32.9636177139        5.1298003535  W2        20510           0.0000000000
     61531     20511  TIP3      OH2            21.5528833595       29.8801877139       16.9928403535  W2        20511           0.0000000000
     61532     20511  TIP3      H1             21.7757433595       29.4621477139       17.8245903535  W2        20511           0.0000000000
     61533     20511  TIP3      H2             20.9508933595       29.2676877139       16.5701203535  W2        20511           0.0000000000
     61534     20512  TIP3      OH2            28.5693733595       29.3971777139       19.2058103535  W2        20512           0.0000000000
     61535     20512  TIP3      H1             28.2734533595       29.2314777139       18.3107203535  W2        20512           0.0000000000
     61536     20512  TIP3      H2             29.5008933595       29.1772077139       19.1952003535  W2        20512           0.0000000000
     61537     20513  TIP3      OH2            33.1896533595       34.7703777139       17.0956103535  W2        20513           0.0000000000
     61538     20513  TIP3      H1             32.2890833595       34.9536377139       16.8280003535  W2        20513           0.0000000000
     61539     20513  TIP3      H2             33.2237633595       35.0293077139       18.0164903535  W2        20513           0.0000000000
     61540     20514  TIP3      OH2            38.9209833595       27.0151677139        5.4628703535  W2        20514           0.0000000000
     61541     20514  TIP3      H1             38.3666133595       26.6189677139        4.7906203535  W2        20514           0.0000000000
     61542     20514  TIP3      H2             39.0213433595       27.9256877139        5.1852003535  W2        20514           0.0000000000
     61543     20515  TIP3      OH2            38.8841833595       32.8153377139       18.3000203535  W2        20515           0.0000000000
     61544     20515  TIP3      H1             38.0330333595       33.0537177139       17.9326603535  W2        20515           0.0000000000
     61545     20515  TIP3      H2             39.4745233595       32.7986577139       17.5467303535  W2        20515           0.0000000000
     61546     20516  TIP3      OH2            37.2161533595       35.8012077139        5.9280803535  W2        20516           0.0000000000
     61547     20516  TIP3      H1             36.8432633595       34.9755877139        6.2371403535  W2        20516           0.0000000000
     61548     20516  TIP3      H2             37.4935033595       35.6181477139        5.0304203535  W2        20516           0.0000000000
     61549     20517  TIP3      OH2            34.3765433595       30.6091577139       12.9492703535  W2        20517           0.0000000000
     61550     20517  TIP3      H1             33.4482333595       30.3773477139       12.9222003535  W2        20517           0.0000000000
     61551     20517  TIP3      H2             34.8276533595       29.8321377139       12.6191503535  W2        20517           0.0000000000
     61552     20518  TIP3      OH2            26.9198533595       34.9373177139        9.0821403535  W2        20518           0.0000000000
     61553     20518  TIP3      H1             27.4470733595       35.7107577139        8.8820203535  W2        20518           0.0000000000
     61554     20518  TIP3      H2             26.0397033595       35.1622377139        8.7805403535  W2        20518           0.0000000000
     61555     20519  TIP3      OH2            22.6746233595       29.7997277139        3.6693803535  W2        20519           0.0000000000
     61556     20519  TIP3      H1             23.2906133595       30.4264477139        4.0488603535  W2        20519           0.0000000000
     61557     20519  TIP3      H2             21.8128833595       30.1157077139        3.9410303535  W2        20519           0.0000000000
     61558     20520  TIP3      OH2            28.3470833595       32.6003077139        8.6585703535  W2        20520           0.0000000000
     61559     20520  TIP3      H1             28.1060833595       33.5257477139        8.7001003535  W2        20520           0.0000000000
     61560     20520  TIP3      H2             27.6064433595       32.1414377139        9.0549603535  W2        20520           0.0000000000
     61561     20521  TIP3      OH2            28.8617433595       36.7496677139       14.9736803535  W2        20521           0.0000000000
     61562     20521  TIP3      H1             29.2242133595       37.6042277139       14.7401203535  W2        20521           0.0000000000
     61563     20521  TIP3      H2             29.3932633595       36.4578277139       15.7143103535  W2        20521           0.0000000000
     61564     20522  TIP3      OH2            27.0301633595       37.6220677139        8.2037903535  W2        20522           0.0000000000
     61565     20522  TIP3      H1             26.0802133595       37.7278077139        8.2551203535  W2        20522           0.0000000000
     61566     20522  TIP3      H2             27.3819733595       38.4428077139        8.5485403535  W2        20522           0.0000000000
     61567     20523  TIP3      OH2            32.4058233595       32.8487377139       14.6742403535  W2        20523           0.0000000000
     61568     20523  TIP3      H1             31.9799533595       32.6209077139       15.5006403535  W2        20523           0.0000000000
     61569     20523  TIP3      H2             32.9864033595       32.1099177139       14.4917703535  W2        20523           0.0000000000
     61570     20524  TIP3      OH2            34.6087133595       33.7777877139        3.7481403535  W2        20524           0.0000000000
     61571     20524  TIP3      H1             34.9620233595       33.3977677139        4.5524903535  W2        20524           0.0000000000
     61572     20524  TIP3      H2             33.6600633595       33.6842677139        3.8350703535  W2        20524           0.0000000000
     61573     20525  TIP3      OH2            35.0642433595       37.4006877139       17.1437203535  W2        20525           0.0000000000
     61574     20525  TIP3      H1             34.4625633595       36.8449777139       16.6483503535  W2        20525           0.0000000000
     61575     20525  TIP3      H2             35.3456133595       38.0676677139       16.5174603535  W2        20525           0.0000000000
     61576     20526  TIP3      OH2            39.1121533595       38.2570377139        3.9491603535  W2        20526           0.0000000000
     61577     20526  TIP3      H1             39.8559433595       38.8430877139        3.8093203535  W2        20526           0.0000000000
     61578     20526  TIP3      H2             38.4179633595       38.8256177139        4.2824003535  W2        20526           0.0000000000
     61579     20527  TIP3      OH2            23.1868333595       24.6334577139       16.5509803535  W2        20527           0.0000000000
     61580     20527  TIP3      H1             22.2940633595       24.9719977139       16.4833803535  W2        20527           0.0000000000
     61581     20527  TIP3      H2             23.0881133595       23.7780677139       16.9690603535  W2        20527           0.0000000000
     61582     20528  TIP3      OH2            35.4746433595       32.4499877139        5.9749303535  W2        20528           0.0000000000
     61583     20528  TIP3      H1             35.1974033595       31.7219177139        6.5310403535  W2        20528           0.0000000000
     61584     20528  TIP3      H2             36.4019433595       32.5691877139        6.1801903535  W2        20528           0.0000000000
     61585     20529  TIP3      OH2            22.8380333595       36.4378977139       14.9859203535  W2        20529           0.0000000000
     61586     20529  TIP3      H1             23.0550633595       35.5061377139       14.9548903535  W2        20529           0.0000000000
     61587     20529  TIP3      H2             23.0843833595       36.7123977139       15.8692003535  W2        20529           0.0000000000
     61588     20530  TIP3      OH2            28.6994933595       34.8893977139        2.1951403535  W2        20530           0.0000000000
     61589     20530  TIP3      H1             28.9384733595       34.1412077139        1.6480303535  W2        20530           0.0000000000
     61590     20530  TIP3      H2             28.4306233595       34.5015677139        3.0279203535  W2        20530           0.0000000000
     61591     20531  TIP3      OH2            27.6365533595       34.4597777139        4.6514003535  W2        20531           0.0000000000
     61592     20531  TIP3      H1             27.7833533595       33.9397577139        5.4414903535  W2        20531           0.0000000000
     61593     20531  TIP3      H2             27.6337233595       35.3665377139        4.9579903535  W2        20531           0.0000000000
     61594     20532  TIP3      OH2            24.0896633595       31.7121077139        5.1619403535  W2        20532           0.0000000000
     61595     20532  TIP3      H1             23.4035933595       32.0643577139        5.7289103535  W2        20532           0.0000000000
     61596     20532  TIP3      H2             24.6124533595       32.4750677139        4.9153703535  W2        20532           0.0000000000
     61597     20533  TIP3      OH2            31.9211733595       24.3744877139       15.4408403535  W2        20533           0.0000000000
     61598     20533  TIP3      H1             32.6199633595       24.4483577139       16.0908103535  W2        20533           0.0000000000
     61599     20533  TIP3      H2             31.5403133595       23.5099877139       15.5951303535  W2        20533           0.0000000000
     61600     20534  TIP3      OH2            32.7056633595       24.0266577139        6.5380703535  W2        20534           0.0000000000
     61601     20534  TIP3      H1             32.9254933595       24.4981977139        5.7346103535  W2        20534           0.0000000000
     61602     20534  TIP3      H2             33.2640633595       24.4209177139        7.2081303535  W2        20534           0.0000000000
     61603     20535  TIP3      OH2            30.3742733595       36.1571377139        5.4008203535  W2        20535           0.0000000000
     61604     20535  TIP3      H1             29.5578833595       36.6541077139        5.4532503535  W2        20535           0.0000000000
     61605     20535  TIP3      H2             30.9039033595       36.6324877139        4.7607003535  W2        20535           0.0000000000
     61606     20536  TIP3      OH2            29.9056533595       25.7545377139        7.3729103535  W2        20536           0.0000000000
     61607     20536  TIP3      H1             30.7179133595       26.2588577139        7.4190803535  W2        20536           0.0000000000
     61608     20536  TIP3      H2             29.6609533595       25.6095077139        8.2868703535  W2        20536           0.0000000000
     61609     20537  TIP3      OH2            30.4412933595       26.7408077139       16.5575703535  W2        20537           0.0000000000
     61610     20537  TIP3      H1             30.5603233595       27.3143477139       17.3146103535  W2        20537           0.0000000000
     61611     20537  TIP3      H2             31.0967533595       26.0527477139       16.6723503535  W2        20537           0.0000000000
     61612     20538  TIP3      OH2            30.7893233595       22.8358377139        8.3110203535  W2        20538           0.0000000000
     61613     20538  TIP3      H1             30.4426733595       23.4528977139        8.9554503535  W2        20538           0.0000000000
     61614     20538  TIP3      H2             31.4480133595       23.3364077139        7.8295703535  W2        20538           0.0000000000
     61615     20539  TIP3      OH2            27.7125833595       37.2008577139        5.3825103535  W2        20539           0.0000000000
     61616     20539  TIP3      H1             27.8734533595       38.0006077139        4.8817703535  W2        20539           0.0000000000
     61617     20539  TIP3      H2             27.5153633595       37.5074577139        6.2675703535  W2        20539           0.0000000000
     61618     20540  TIP3      OH2            26.4470233595       23.8987777139        4.9982703535  W2        20540           0.0000000000
     61619     20540  TIP3      H1             26.3635033595       24.7870877139        5.3449103535  W2        20540           0.0000000000
     61620     20540  TIP3      H2             27.3370533595       23.6334477139        5.2299503535  W2        20540           0.0000000000
     61621     20541  TIP3      OH2            36.6458733595       24.6478377139       17.3925403535  W2        20541           0.0000000000
     61622     20541  TIP3      H1             35.7294533595       24.9100077139       17.3049103535  W2        20541           0.0000000000
     61623     20541  TIP3      H2             36.9813733595       24.6447377139       16.4960703535  W2        20541           0.0000000000
     61624     20542  TIP3      OH2            35.2479733595       28.3979377139       11.4882703535  W2        20542           0.0000000000
     61625     20542  TIP3      H1             34.4504133595       27.9829577139       11.1597703535  W2        20542           0.0000000000
     61626     20542  TIP3      H2             35.6930833595       27.7073077139       11.9793203535  W2        20542           0.0000000000
     61627     20543  TIP3      OH2            24.7055533595       34.3259977139        4.0587203535  W2        20543           0.0000000000
     61628     20543  TIP3      H1             25.2977033595       35.0254777139        4.3349603535  W2        20543           0.0000000000
     61629     20543  TIP3      H2             25.1648533595       33.8929477139        3.3391803535  W2        20543           0.0000000000
     61630     20544  TIP3      OH2            23.0214733595       26.9902977139        3.1746603535  W2        20544           0.0000000000
     61631     20544  TIP3      H1             22.9767333595       27.9296077139        3.3533603535  W2        20544           0.0000000000
     61632     20544  TIP3      H2             22.1337933595       26.7547877139        2.9048703535  W2        20544           0.0000000000
     61633     20545  TIP3      OH2            36.3344333595       37.6541877139       13.1106203535  W2        20545           0.0000000000
     61634     20545  TIP3      H1             36.1788633595       38.3326277139       12.4535503535  W2        20545           0.0000000000
     61635     20545  TIP3      H2             37.2670733595       37.7261177139       13.3136803535  W2        20545           0.0000000000
     61636     20546  TIP3      OH2            23.8296733595       21.7719577139       11.8477603535  W2        20546           0.0000000000
     61637     20546  TIP3      H1             23.6006533595       21.8312077139       10.9202603535  W2        20546           0.0000000000
     61638     20546  TIP3      H2             23.3870133595       20.9805077139       12.1541703535  W2        20546           0.0000000000
     61639     20547  TIP3      OH2            22.7600033595       35.7126677139        8.0083403535  W2        20547           0.0000000000
     61640     20547  TIP3      H1             21.9278633595       36.1849377139        8.0354803535  W2        20547           0.0000000000
     61641     20547  TIP3      H2             23.3058333595       36.2224277139        7.4096503535  W2        20547           0.0000000000
     61642     20548  TIP3      OH2            22.0483733595       38.3250377139       19.3381403535  W2        20548           0.0000000000
     61643     20548  TIP3      H1             22.5885933595       38.1084377139       20.0980603535  W2        20548           0.0000000000
     61644     20548  TIP3      H2             21.5671733595       37.5196377139       19.1483903535  W2        20548           0.0000000000
     61645     20549  TIP3      OH2            26.6457133595       37.2444777139       20.9585603535  W2        20549           0.0000000000
     61646     20549  TIP3      H1             27.4134333595       36.7855577139       21.2994803535  W2        20549           0.0000000000
     61647     20549  TIP3      H2             26.6243333595       37.0184577139       20.0286803535  W2        20549           0.0000000000
     61648     20550  TIP3      OH2            30.7376733595       36.7525377139        2.3337403535  W2        20550           0.0000000000
     61649     20550  TIP3      H1             30.0937733595       36.1213977139        2.6551103535  W2        20550           0.0000000000
     61650     20550  TIP3      H2             31.4995033595       36.2213377139        2.1020903535  W2        20550           0.0000000000
     61651     20551  TIP3      OH2            33.2225833595       35.6245877139       19.6877103535  W2        20551           0.0000000000
     61652     20551  TIP3      H1             32.8715333595       34.7678877139       19.9307503535  W2        20551           0.0000000000
     61653     20551  TIP3      H2             33.9489033595       35.7672577139       20.2946103535  W2        20551           0.0000000000
     61654     20552  TIP3      OH2            35.3419633595       36.5695277139        2.5675403535  W2        20552           0.0000000000
     61655     20552  TIP3      H1             35.6250033595       35.7750477139        3.0202303535  W2        20552           0.0000000000
     61656     20552  TIP3      H2             36.0817533595       36.8026277139        2.0066503535  W2        20552           0.0000000000
     61657     20553  TIP3      OH2            21.9553233595       32.1354477139       20.2925703535  W2        20553           0.0000000000
     61658     20553  TIP3      H1             22.0993733595       31.2335177139       20.0062403535  W2        20553           0.0000000000
     61659     20553  TIP3      H2             21.1830633595       32.4216577139       19.8048003535  W2        20553           0.0000000000
     61660     20554  TIP3      OH2            26.2966933595       32.4790177139        2.4250303535  W2        20554           0.0000000000
     61661     20554  TIP3      H1             26.3611033595       31.6849777139        2.9556703535  W2        20554           0.0000000000
     61662     20554  TIP3      H2             26.9496133595       32.3602977139        1.7352303535  W2        20554           0.0000000000
     61663     20555  TIP3      OH2            28.6109333595       32.1052577139       19.7252103535  W2        20555           0.0000000000
     61664     20555  TIP3      H1             28.2823133595       32.3760677139       18.8679503535  W2        20555           0.0000000000
     61665     20555  TIP3      H2             28.7627533595       31.1642377139       19.6377103535  W2        20555           0.0000000000
     61666     20556  TIP3      OH2            31.6490333595       33.5261877139        2.1608303535  W2        20556           0.0000000000
     61667     20556  TIP3      H1             31.3804433595       33.7063977139        3.0617203535  W2        20556           0.0000000000
     61668     20556  TIP3      H2             31.4425933595       32.6008077139        2.0294103535  W2        20556           0.0000000000
     61669     20557  TIP3      OH2            34.3454533595       32.0209877139       17.1084403535  W2        20557           0.0000000000
     61670     20557  TIP3      H1             35.0909333595       32.6093577139       16.9888403535  W2        20557           0.0000000000
     61671     20557  TIP3      H2             33.5881333595       32.6029577139       17.1717503535  W2        20557           0.0000000000
     61672     20558  TIP3      OH2            22.7879733595       29.3357777139       19.7125003535  W2        20558           0.0000000000
     61673     20558  TIP3      H1             23.1960933595       28.4784377139       19.5915603535  W2        20558           0.0000000000
     61674     20558  TIP3      H2             22.5277333595       29.3499077139       20.6335303535  W2        20558           0.0000000000
     61675     20559  TIP3      OH2            27.4460733595       30.4516377139        4.7308303535  W2        20559           0.0000000000
     61676     20559  TIP3      H1             26.9862733595       29.9674677139        5.4166803535  W2        20559           0.0000000000
     61677     20559  TIP3      H2             27.7009433595       29.7831777139        4.0948803535  W2        20559           0.0000000000
     61678     20560  TIP3      OH2            26.7350033595       28.3443477139       17.0867903535  W2        20560           0.0000000000
     61679     20560  TIP3      H1             26.1166133595       29.0190077139       17.3672603535  W2        20560           0.0000000000
     61680     20560  TIP3      H2             27.0791233595       28.6657377139       16.2534103535  W2        20560           0.0000000000
     61681     20561  TIP3      OH2            28.5171133595       28.6948177139        2.9931503535  W2        20561           0.0000000000
     61682     20561  TIP3      H1             28.3366133595       28.5399377139        2.0659803535  W2        20561           0.0000000000
     61683     20561  TIP3      H2             29.4671633595       28.8026877139        3.0379403535  W2        20561           0.0000000000
     61684     20562  TIP3      OH2            31.7548233595       30.8158777139       20.3642703535  W2        20562           0.0000000000
     61685     20562  TIP3      H1             32.7079433595       30.8997877139       20.3368703535  W2        20562           0.0000000000
     61686     20562  TIP3      H2             31.5942833595       30.1040577139       20.9837603535  W2        20562           0.0000000000
     61687     20563  TIP3      OH2            37.9069433595       31.0492377139        2.4389603535  W2        20563           0.0000000000
     61688     20563  TIP3      H1             37.6334233595       30.6247877139        1.6257903535  W2        20563           0.0000000000
     61689     20563  TIP3      H2             37.9463533595       31.9806877139        2.2220003535  W2        20563           0.0000000000
     61690     20564  TIP3      OH2            27.0743733595       25.6994277139       18.1691003535  W2        20564           0.0000000000
     61691     20564  TIP3      H1             27.2244633595       24.9705577139       17.5670703535  W2        20564           0.0000000000
     61692     20564  TIP3      H2             27.0766133595       26.4765977139       17.6103203535  W2        20564           0.0000000000
     61693     20565  TIP3      OH2            27.4869433595       24.0690077139       15.6618403535  W2        20565           0.0000000000
     61694     20565  TIP3      H1             28.0226933595       24.5206777139       15.0097703535  W2        20565           0.0000000000
     61695     20565  TIP3      H2             26.6349033595       23.9609877139       15.2392503535  W2        20565           0.0000000000
     61696     20566  TIP3      OH2            29.0687833595       29.5086277139       15.9013603535  W2        20566           0.0000000000
     61697     20566  TIP3      H1             29.8192633595       29.3523777139       15.3281403535  W2        20566           0.0000000000
     61698     20566  TIP3      H2             28.7296133595       30.3602877139       15.6259103535  W2        20566           0.0000000000
     61699     20567  TIP3      OH2            33.4844033595       27.3238077139       20.9298903535  W2        20567           0.0000000000
     61700     20567  TIP3      H1             33.6765333595       26.3927477139       20.8183403535  W2        20567           0.0000000000
     61701     20567  TIP3      H2             34.3420333595       27.7487577139       20.9194303535  W2        20567           0.0000000000
     61702     20568  TIP3      OH2            34.8011233595       30.1123277139       19.0071603535  W2        20568           0.0000000000
     61703     20568  TIP3      H1             34.5196233595       30.8217877139       18.4295403535  W2        20568           0.0000000000
     61704     20568  TIP3      H2             35.7435533595       30.0396277139       18.8562803535  W2        20568           0.0000000000
     61705     20569  TIP3      OH2            25.5530033595       26.8977777139       20.0806603535  W2        20569           0.0000000000
     61706     20569  TIP3      H1             24.7859033595       26.3652577139       19.8704203535  W2        20569           0.0000000000
     61707     20569  TIP3      H2             26.2319033595       26.5878177139       19.4812903535  W2        20569           0.0000000000
     61708     20570  TIP3      OH2            28.2924933595       21.5255777139       16.0932003535  W2        20570           0.0000000000
     61709     20570  TIP3      H1             28.1944533595       22.4718977139       15.9878203535  W2        20570           0.0000000000
     61710     20570  TIP3      H2             27.5501133595       21.1529577139       15.6175503535  W2        20570           0.0000000000
     61711     20571  TIP3      OH2            29.5565433595       25.8471177139       19.6570403535  W2        20571           0.0000000000
     61712     20571  TIP3      H1             29.3210833595       25.6277877139       20.5585303535  W2        20571           0.0000000000
     61713     20571  TIP3      H2             28.7732333595       25.6402377139       19.1472903535  W2        20571           0.0000000000
     61714     20572  TIP3      OH2            32.2722033595       24.9744677139       18.7323903535  W2        20572           0.0000000000
     61715     20572  TIP3      H1             31.3247433595       25.0064377139       18.8647203535  W2        20572           0.0000000000
     61716     20572  TIP3      H2             32.5848733595       24.3491777139       19.3862103535  W2        20572           0.0000000000
     61717     20573  TIP3      OH2            33.9063533595       23.6085777139       20.7375803535  W2        20573           0.0000000000
     61718     20573  TIP3      H1             33.8095333595       22.6563077139       20.7317703535  W2        20573           0.0000000000
     61719     20573  TIP3      H2             33.5846633595       23.8772577139       21.5981303535  W2        20573           0.0000000000
     61720     20574  TIP3      OH2            23.7332833595       24.8181577139       19.7851303535  W2        20574           0.0000000000
     61721     20574  TIP3      H1             23.9450233595       24.1117677139       19.1748803535  W2        20574           0.0000000000
     61722     20574  TIP3      H2             23.6220333595       24.3807577139       20.6292503535  W2        20574           0.0000000000
     61723     20575  TIP3      OH2            28.5143033595       20.8193177139       18.7644803535  W2        20575           0.0000000000
     61724     20575  TIP3      H1             29.2261433595       20.1795377139       18.7503903535  W2        20575           0.0000000000
     61725     20575  TIP3      H2             28.4133433595       21.0861477139       17.8507903535  W2        20575           0.0000000000
     61726     20576  TIP3      OH2            28.8680533595       22.5021577139       20.8181103535  W2        20576           0.0000000000
     61727     20576  TIP3      H1             28.7362733595       22.0265377139       19.9979603535  W2        20576           0.0000000000
     61728     20576  TIP3      H2             28.2687933595       23.2465177139       20.7628203535  W2        20576           0.0000000000
     61729     20577  TIP3      OH2            28.4142833595       39.3851877139        3.9945103535  W2        20577           0.0000000000
     61730     20577  TIP3      H1             29.3473533595       39.5430577139        4.1383503535  W2        20577           0.0000000000
     61731     20577  TIP3      H2             28.1501633595       40.0604877139        3.3696603535  W2        20577           0.0000000000
     61732     20578  TIP3      OH2            21.9827733595       34.0215677139        3.4773203535  W2        20578           0.0000000000
     61733     20578  TIP3      H1             22.8966933595       34.1004577139        3.7507103535  W2        20578           0.0000000000
     61734     20578  TIP3      H2             21.9900833595       33.3345277139        2.8108803535  W2        20578           0.0000000000
     61735     20579  TIP3      OH2            20.6318333595       39.4144177139        8.5547103535  W2        20579           0.0000000000
     61736     20579  TIP3      H1             19.9845433595       38.9525877139        8.0218303535  W2        20579           0.0000000000
     61737     20579  TIP3      H2             20.9862933595       38.7427477139        9.1373303535  W2        20579           0.0000000000
     61738     20580  TIP3      OH2            21.5017533595       37.4951177139       10.3593303535  W2        20580           0.0000000000
     61739     20580  TIP3      H1             21.1674333595       36.6148477139       10.5313503535  W2        20580           0.0000000000
     61740     20580  TIP3      H2             21.7239933595       37.8406177139       11.2238903535  W2        20580           0.0000000000
     61741     20581  TIP3      OH2            39.0502333595       38.3047577139       13.3398103535  W2        20581           0.0000000000
     61742     20581  TIP3      H1             39.0289033595       38.4895977139       14.2787503535  W2        20581           0.0000000000
     61743     20581  TIP3      H2             39.7408533595       38.8731577139       12.9989503535  W2        20581           0.0000000000
     61744     20582  TIP3      OH2            38.6135233595       37.8718677139       16.2617203535  W2        20582           0.0000000000
     61745     20582  TIP3      H1             38.1263933595       37.1362777139       15.8904603535  W2        20582           0.0000000000
     61746     20582  TIP3      H2             39.1627933595       37.4782577139       16.9396603535  W2        20582           0.0000000000
     61747     20583  TIP3      OH2            37.0642533595       33.6616777139       20.8997503535  W2        20583           0.0000000000
     61748     20583  TIP3      H1             36.1983633595       33.5566477139       21.2939803535  W2        20583           0.0000000000
     61749     20583  TIP3      H2             37.4408433595       34.4200077139       21.3462203535  W2        20583           0.0000000000
     61750     20584  TIP3      OH2            38.3652233595       31.9180477139        6.4140003535  W2        20584           0.0000000000
     61751     20584  TIP3      H1             39.2153633595       32.3391377139        6.5411603535  W2        20584           0.0000000000
     61752     20584  TIP3      H2             38.3707333595       31.1780577139        7.0211403535  W2        20584           0.0000000000
     61753     20585  TIP3      OH2            38.7597833595       29.9717877139        8.2375703535  W2        20585           0.0000000000
     61754     20585  TIP3      H1             38.0332433595       29.4920477139        8.6353303535  W2        20585           0.0000000000
     61755     20585  TIP3      H2             39.3411133595       30.1772577139        8.9697303535  W2        20585           0.0000000000
     61756     20586  TIP3      OH2            38.5189033595       32.7565377139       13.1853303535  W2        20586           0.0000000000
     61757     20586  TIP3      H1             39.3523233595       32.3785377139       12.9046903535  W2        20586           0.0000000000
     61758     20586  TIP3      H2             38.6309333595       33.6996577139       13.0662403535  W2        20586           0.0000000000
     61759     20587  TIP3      OH2            37.0051333595       35.6342877139       15.4921703535  W2        20587           0.0000000000
     61760     20587  TIP3      H1             36.3576633595       35.9594377139       16.1176903535  W2        20587           0.0000000000
     61761     20587  TIP3      H2             36.4875333595       35.1940577139       14.8180003535  W2        20587           0.0000000000
     61762     20588  TIP3      OH2            39.0280933595       29.8726377139        4.6287003535  W2        20588           0.0000000000
     61763     20588  TIP3      H1             38.5062033595       30.2290477139        3.9097903535  W2        20588           0.0000000000
     61764     20588  TIP3      H2             38.9950133595       30.5474177139        5.3067903535  W2        20588           0.0000000000
     61765     20589  TIP3      OH2            37.3769933595       27.1121977139        3.1794103535  W2        20589           0.0000000000
     61766     20589  TIP3      H1             37.4734333595       27.7788977139        2.4993803535  W2        20589           0.0000000000
     61767     20589  TIP3      H2             37.2369533595       26.2968277139        2.6979603535  W2        20589           0.0000000000
     61768     20590  TIP3      OH2            36.5464633595       28.4924377139        8.8004403535  W2        20590           0.0000000000
     61769     20590  TIP3      H1             36.3963433595       27.5472977139        8.7802203535  W2        20590           0.0000000000
     61770     20590  TIP3      H2             36.1929133595       28.7735777139        9.6443503535  W2        20590           0.0000000000
     61771     20591  TIP3      OH2            21.5817033595       30.5706577139       12.8108203535  W2        20591           0.0000000000
     61772     20591  TIP3      H1             21.7659933595       30.4888277139       11.8751103535  W2        20591           0.0000000000
     61773     20591  TIP3      H2             22.4309933595       30.4463577139       13.2344603535  W2        20591           0.0000000000
     61774     20592  TIP3      OH2            37.4027533595       30.4627677139       18.4392703535  W2        20592           0.0000000000
     61775     20592  TIP3      H1             37.9854833595       29.7279977139       18.6309903535  W2        20592           0.0000000000
     61776     20592  TIP3      H2             37.9666833595       31.2347977139       18.4858503535  W2        20592           0.0000000000
     61777     20593  TIP3      OH2            38.8994633595       28.3653477139       19.1238103535  W2        20593           0.0000000000
     61778     20593  TIP3      H1             38.0361333595       27.9865577139       18.9582803535  W2        20593           0.0000000000
     61779     20593  TIP3      H2             39.5038333595       27.6268277139       19.0493903535  W2        20593           0.0000000000
     61780     20594  TIP3      OH2            36.6243733595       24.5201777139        2.2969603535  W2        20594           0.0000000000
     61781     20594  TIP3      H1             37.2349533595       24.1488577139        2.9337803535  W2        20594           0.0000000000
     61782     20594  TIP3      H2             35.7875233595       24.0988677139        2.4929603535  W2        20594           0.0000000000
     61783     20595  TIP3      OH2            36.2569433595       26.0750177139        7.2629503535  W2        20595           0.0000000000
     61784     20595  TIP3      H1             36.5366533595       25.1680577139        7.3871203535  W2        20595           0.0000000000
     61785     20595  TIP3      H2             37.0161133595       26.5091677139        6.8738703535  W2        20595           0.0000000000
     61786     20596  TIP3      OH2            36.8687733595       26.6567577139       12.6988403535  W2        20596           0.0000000000
     61787     20596  TIP3      H1             37.8015733595       26.8687477139       12.6644403535  W2        20596           0.0000000000
     61788     20596  TIP3      H2             36.6335233595       26.7579677139       13.6211403535  W2        20596           0.0000000000
     61789     20597  TIP3      OH2            36.8979633595       27.3932877139       15.4747803535  W2        20597           0.0000000000
     61790     20597  TIP3      H1             36.0550933595       27.6613277139       15.8407603535  W2        20597           0.0000000000
     61791     20597  TIP3      H2             37.3403933595       28.2154777139       15.2638903535  W2        20597           0.0000000000
     61792     20598  TIP3      OH2            21.1791833595       25.8411577139       18.9517003535  W2        20598           0.0000000000
     61793     20598  TIP3      H1             22.0986733595       25.7189877139       19.1880103535  W2        20598           0.0000000000
     61794     20598  TIP3      H2             20.7296333595       25.0911277139       19.3410503535  W2        20598           0.0000000000
     61795     20599  TIP3      OH2            39.1811233595       21.3733077139       20.8282803535  W2        20599           0.0000000000
     61796     20599  TIP3      H1             39.5308233595       20.7196577139       20.2227503535  W2        20599           0.0000000000
     61797     20599  TIP3      H2             39.3280733595       22.2107177139       20.3885403535  W2        20599           0.0000000000
     61798     20600  TIP3      OH2            36.8704233595       23.3379477139        7.3111503535  W2        20600           0.0000000000
     61799     20600  TIP3      H1             37.0529233595       22.8890977139        8.1366503535  W2        20600           0.0000000000
     61800     20600  TIP3      H2             36.2707133595       22.7533877139        6.8476103535  W2        20600           0.0000000000
     61801     20601  TIP3      OH2            22.4004333595       24.1533177139       11.8429903535  W2        20601           0.0000000000
     61802     20601  TIP3      H1             22.8455933595       23.3615677139       12.1449603535  W2        20601           0.0000000000
     61803     20601  TIP3      H2             22.8667333595       24.8698377139       12.2735503535  W2        20601           0.0000000000
     61804     20602  TIP3      OH2            20.7044633595       27.1526177139       12.9120103535  W2        20602           0.0000000000
     61805     20602  TIP3      H1             21.1964433595       26.9316677139       12.1212103535  W2        20602           0.0000000000
     61806     20602  TIP3      H2             21.0665533595       27.9929577139       13.1929603535  W2        20602           0.0000000000
     61807     20603  TIP3      OH2            38.7008433595       23.4827677139       19.1774103535  W2        20603           0.0000000000
     61808     20603  TIP3      H1             37.7834133595       23.7534777139       19.1417603535  W2        20603           0.0000000000
     61809     20603  TIP3      H2             38.8237833595       22.9476077139       18.3933803535  W2        20603           0.0000000000
     61810     20604  TIP3      OH2            38.7370433595       23.4057577139        3.8391803535  W2        20604           0.0000000000
     61811     20604  TIP3      H1             39.1493033595       22.6843277139        3.3639803535  W2        20604           0.0000000000
     61812     20604  TIP3      H2             39.4186933595       24.0752177139        3.8976103535  W2        20604           0.0000000000
     61813     20605  TIP3      OH2            21.0181133595       23.4105277139        6.9662503535  W2        20605           0.0000000000
     61814     20605  TIP3      H1             20.0929533595       23.6191877139        6.8368003535  W2        20605           0.0000000000
     61815     20605  TIP3      H2             21.4721033595       23.8946077139        6.2764803535  W2        20605           0.0000000000
     61816     20606  TIP3      OH2            35.7888333595       38.3946977139        8.9119903535  W2        20606           0.0000000000
     61817     20606  TIP3      H1             36.4411233595       38.0469077139        8.3039003535  W2        20606           0.0000000000
     61818     20606  TIP3      H2             36.2992133595       38.8830177139        9.5579603535  W2        20606           0.0000000000
     61819     20607  TIP3      OH2            20.9816533595       22.1484277139       15.3105003535  W2        20607           0.0000000000
     61820     20607  TIP3      H1             20.3167033595       21.9024577139       15.9535903535  W2        20607           0.0000000000
     61821     20607  TIP3      H2             20.5387833595       22.7704677139       14.7333003535  W2        20607           0.0000000000
     61822     20608  TIP3      OH2            23.1735833595       35.3238377139       19.4550803535  W2        20608           0.0000000000
     61823     20608  TIP3      H1             22.3528333595       35.4984877139       18.9945503535  W2        20608           0.0000000000
     61824     20608  TIP3      H2             22.9213633595       35.2503077139       20.3755203535  W2        20608           0.0000000000
     61825     20609  TIP3      OH2            26.1278733595       36.2979577139       15.7134803535  W2        20609           0.0000000000
     61826     20609  TIP3      H1             25.7029833595       37.1078077139       15.4309403535  W2        20609           0.0000000000
     61827     20609  TIP3      H2             27.0321533595       36.3833677139       15.4114603535  W2        20609           0.0000000000
     61828     20610  TIP3      OH2            30.4390133595       37.6969577139       18.6728503535  W2        20610           0.0000000000
     61829     20610  TIP3      H1             30.6237633595       37.3635677139       19.5508803535  W2        20610           0.0000000000
     61830     20610  TIP3      H2             31.2854633595       38.0068177139       18.3507703535  W2        20610           0.0000000000
     61831     20611  TIP3      OH2            32.7840533595       38.9828477139       17.9169903535  W2        20611           0.0000000000
     61832     20611  TIP3      H1             33.4609433595       38.3500777139       17.6769103535  W2        20611           0.0000000000
     61833     20611  TIP3      H2             33.1059333595       39.3838977139       18.7243203535  W2        20611           0.0000000000
     61834     20612  TIP3      OH2            37.7014333595       21.5723977139       16.9964903535  W2        20612           0.0000000000
     61835     20612  TIP3      H1             36.8887833595       21.8974277139       16.6089603535  W2        20612           0.0000000000
     61836     20612  TIP3      H2             37.9342833595       20.8122477139       16.4634003535  W2        20612           0.0000000000
     61837     20613  TIP3      OH2            23.5295433595       39.5543477139       15.7610103535  W2        20613           0.0000000000
     61838     20613  TIP3      H1             22.8091833595       39.9944477139       15.3097803535  W2        20613           0.0000000000
     61839     20613  TIP3      H2             23.1639433595       39.3038177139       16.6094103535  W2        20613           0.0000000000
     61840     20614  TIP3      OH2            25.9968033595       39.1547377139       14.7907303535  W2        20614           0.0000000000
     61841     20614  TIP3      H1             25.1320233595       39.2265877139       15.1947403535  W2        20614           0.0000000000
     61842     20614  TIP3      H2             25.9417033595       39.7014677139       14.0069803535  W2        20614           0.0000000000
     61843     20615  TIP3      OH2            30.7073633595       39.0426277139       13.9663303535  W2        20615           0.0000000000
     61844     20615  TIP3      H1             30.2507633595       39.5715977139       13.3121703535  W2        20615           0.0000000000
     61845     20615  TIP3      H2             30.8701633595       39.6457677139       14.6915603535  W2        20615           0.0000000000
     61846     20616  TIP3      OH2            33.0349933595       37.9205877139       14.9113603535  W2        20616           0.0000000000
     61847     20616  TIP3      H1             32.1303633595       38.0856077139       14.6455703535  W2        20616           0.0000000000
     61848     20616  TIP3      H2             33.4638533595       38.7738077139       14.8457003535  W2        20616           0.0000000000
     61849     20617  TIP3      OH2            35.6391833595       39.4904977139       15.2061403535  W2        20617           0.0000000000
     61850     20617  TIP3      H1             35.4573833595       40.4063877139       14.9956303535  W2        20617           0.0000000000
     61851     20617  TIP3      H2             35.8159633595       39.0802077139       14.3596003535  W2        20617           0.0000000000
     61852     20618  TIP3      OH2            22.9443533595       38.1775977139       12.6711903535  W2        20618           0.0000000000
     61853     20618  TIP3      H1             22.9259533595       37.7521077139       13.5284203535  W2        20618           0.0000000000
     61854     20618  TIP3      H2             23.7491433595       37.8590977139       12.2624103535  W2        20618           0.0000000000
     61855     20619  TIP3      OH2            25.0856633595       36.8874677139       11.3261803535  W2        20619           0.0000000000
     61856     20619  TIP3      H1             24.8667333595       35.9712077139       11.4957803535  W2        20619           0.0000000000
     61857     20619  TIP3      H2             25.9098833595       37.0275077139       11.7923203535  W2        20619           0.0000000000
     61858     20620  TIP3      OH2            27.6229133595       37.3573977139       12.1749803535  W2        20620           0.0000000000
     61859     20620  TIP3      H1             27.8354833595       36.4692977139       11.8880703535  W2        20620           0.0000000000
     61860     20620  TIP3      H2             27.6874233595       37.3231677139       13.1293803535  W2        20620           0.0000000000
     61861     20621  TIP3      OH2            31.1312833595       23.0214577139       11.3193103535  W2        20621           0.0000000000
     61862     20621  TIP3      H1             30.4569633595       22.3920177139       11.5748903535  W2        20621           0.0000000000
     61863     20621  TIP3      H2             31.6952033595       22.5373477139       10.7161003535  W2        20621           0.0000000000
     61864     20622  TIP3      OH2            36.2740033595       21.1288577139       11.4320203535  W2        20622           0.0000000000
     61865     20622  TIP3      H1             36.8777633595       21.6763977139       10.9301203535  W2        20622           0.0000000000
     61866     20622  TIP3      H2             35.4042033595       21.4478977139       11.1914303535  W2        20622           0.0000000000
     61867     20623  TIP3      OH2            38.0010433595       22.2677277139        9.7651103535  W2        20623           0.0000000000
     61868     20623  TIP3      H1             38.6127933595       21.7532977139        9.2384703535  W2        20623           0.0000000000
     61869     20623  TIP3      H2             38.3833833595       23.1449377139        9.7885503535  W2        20623           0.0000000000
     61870     20624  TIP3      OH2            23.4580333595       21.6554877139        9.1413003535  W2        20624           0.0000000000
     61871     20624  TIP3      H1             22.6810133595       21.4209777139        8.6338903535  W2        20624           0.0000000000
     61872     20624  TIP3      H2             23.9883933595       20.8586977139        9.1501003535  W2        20624           0.0000000000
     61873     20625  TIP3      OH2            22.2943733595       21.4532977139        4.9449103535  W2        20625           0.0000000000
     61874     20625  TIP3      H1             22.7334433595       22.0643477139        4.3532603535  W2        20625           0.0000000000
     61875     20625  TIP3      H2             21.6606133595       21.9917077139        5.4189103535  W2        20625           0.0000000000
     61876     20626  TIP3      OH2            28.0372933595       21.5821977139        8.9546103535  W2        20626           0.0000000000
     61877     20626  TIP3      H1             28.9116333595       21.9706277139        8.9250403535  W2        20626           0.0000000000
     61878     20626  TIP3      H2             27.9013733595       21.3669777139        9.8773303535  W2        20626           0.0000000000
     61879     20627  TIP3      OH2            33.5941333595       21.6121777139       10.6037803535  W2        20627           0.0000000000
     61880     20627  TIP3      H1             33.6702933595       21.7073377139        9.6543803535  W2        20627           0.0000000000
     61881     20627  TIP3      H2             33.3190533595       20.7044677139       10.7326903535  W2        20627           0.0000000000
     61882     20628  TIP3      OH2            34.9473933595       21.6379577139        6.2962803535  W2        20628           0.0000000000
     61883     20628  TIP3      H1             34.2445033595       22.2528777139        6.0864203535  W2        20628           0.0000000000
     61884     20628  TIP3      H2             34.5025333595       20.8006277139        6.4273703535  W2        20628           0.0000000000
     61885     20629  TIP3      OH2            22.1953233595       37.4015177139        5.8424203535  W2        20629           0.0000000000
     61886     20629  TIP3      H1             21.5103133595       37.3634077139        5.1749303535  W2        20629           0.0000000000
     61887     20629  TIP3      H2             22.1990433595       38.3142777139        6.1306303535  W2        20629           0.0000000000
     61888     20630  TIP3      OH2            24.1552833595       23.3694477139        3.3873203535  W2        20630           0.0000000000
     61889     20630  TIP3      H1             24.6466233595       22.7396877139        2.8598703535  W2        20630           0.0000000000
     61890     20630  TIP3      H2             24.7789133595       23.6653877139        4.0504403535  W2        20630           0.0000000000
     61891     20631  TIP3      OH2            29.1812933595       23.6625977139        5.8443703535  W2        20631           0.0000000000
     61892     20631  TIP3      H1             29.3594233595       23.0159177139        6.5272303535  W2        20631           0.0000000000
     61893     20631  TIP3      H2             29.1279133595       24.4963677139        6.3114803535  W2        20631           0.0000000000
     61894     20632  TIP3      OH2            31.0596733595       38.6110077139        4.2400403535  W2        20632           0.0000000000
     61895     20632  TIP3      H1             31.9256933595       38.9777477139        4.0618603535  W2        20632           0.0000000000
     61896     20632  TIP3      H2             30.8129533595       38.1718077139        3.4261203535  W2        20632           0.0000000000
     61897     20633  TIP3      OH2            37.7686333595       38.1740377139        6.9191503535  W2        20633           0.0000000000
     61898     20633  TIP3      H1             37.5743433595       37.4262477139        6.3541103535  W2        20633           0.0000000000
     61899     20633  TIP3      H2             37.7296433595       38.9320477139        6.3359403535  W2        20633           0.0000000000
     61900     20634  TIP3      OH2            23.4158333595       22.1696777139       18.6589203535  W2        20634           0.0000000000
     61901     20634  TIP3      H1             23.0496533595       21.4039377139       19.1013903535  W2        20634           0.0000000000
     61902     20634  TIP3      H2             24.3286833595       22.1986977139       18.9454303535  W2        20634           0.0000000000
     61903     20635  TIP3      OH2            25.3889133595       21.5201177139       20.1946303535  W2        20635           0.0000000000
     61904     20635  TIP3      H1             26.2872733595       21.2461377139       20.0099703535  W2        20635           0.0000000000
     61905     20635  TIP3      H2             25.0022233595       20.7777177139       20.6588903535  W2        20635           0.0000000000
     61906     20636  TIP3      OH2            24.0134433595       38.3215977139        2.8676303535  W2        20636           0.0000000000
     61907     20636  TIP3      H1             23.7459033595       38.6078877139        3.7409403535  W2        20636           0.0000000000
     61908     20636  TIP3      H2             24.7847033595       37.7755177139        3.0198803535  W2        20636           0.0000000000
     61909     20637  TIP3      OH2            33.8101433595       20.8526477139       20.3769103535  W2        20637           0.0000000000
     61910     20637  TIP3      H1             33.8868633595       20.4267177139       21.2306803535  W2        20637           0.0000000000
     61911     20637  TIP3      H2             34.7038033595       20.8661177139       20.0342603535  W2        20637           0.0000000000
     61912     20638  TIP3      OH2            36.9862533595       36.9252777139       19.0693303535  W2        20638           0.0000000000
     61913     20638  TIP3      H1             36.2044433595       36.7390777139       18.5493903535  W2        20638           0.0000000000
     61914     20638  TIP3      H2             36.9142433595       37.8547077139       19.2865803535  W2        20638           0.0000000000
     61915     20639  TIP3      OH2            51.3922933595       30.8117177139        9.1000503535  W2        20639           0.0000000000
     61916     20639  TIP3      H1             51.4814033595       31.7555377139        8.9677603535  W2        20639           0.0000000000
     61917     20639  TIP3      H2             50.7540533595       30.5363577139        8.4419903535  W2        20639           0.0000000000
     61918     20640  TIP3      OH2            50.3254233595       30.0667877139       12.5188703535  W2        20640           0.0000000000
     61919     20640  TIP3      H1             50.2871733595       29.4204177139       13.2238303535  W2        20640           0.0000000000
     61920     20640  TIP3      H2             50.0030733595       29.6002277139       11.7477403535  W2        20640           0.0000000000
     61921     20641  TIP3      OH2            42.6939233595       29.6809977139       14.1118603535  W2        20641           0.0000000000
     61922     20641  TIP3      H1             42.7351333595       29.0553277139       14.8351003535  W2        20641           0.0000000000
     61923     20641  TIP3      H2             43.3966933595       30.3048577139       14.2939003535  W2        20641           0.0000000000
     61924     20642  TIP3      OH2            54.0314433595       33.0058277139       10.8203803535  W2        20642           0.0000000000
     61925     20642  TIP3      H1             53.5907133595       32.2854277139       11.2709403535  W2        20642           0.0000000000
     61926     20642  TIP3      H2             54.0184133595       33.7265477139       11.4501503535  W2        20642           0.0000000000
     61927     20643  TIP3      OH2            43.6172333595       34.1308877139       12.6467703535  W2        20643           0.0000000000
     61928     20643  TIP3      H1             43.2477533595       33.3289377139       12.2772003535  W2        20643           0.0000000000
     61929     20643  TIP3      H2             44.5583433595       33.9623777139       12.6931103535  W2        20643           0.0000000000
     61930     20644  TIP3      OH2            40.2272833595       27.7911477139        8.0396503535  W2        20644           0.0000000000
     61931     20644  TIP3      H1             39.7796233595       28.6370177139        8.0213003535  W2        20644           0.0000000000
     61932     20644  TIP3      H2             39.6664033595       27.2115677139        7.5241603535  W2        20644           0.0000000000
     61933     20645  TIP3      OH2            40.9378933595       29.9531077139       10.1654503535  W2        20645           0.0000000000
     61934     20645  TIP3      H1             41.1512433595       29.1832677139       10.6927503535  W2        20645           0.0000000000
     61935     20645  TIP3      H2             41.6756533595       30.0427777139        9.5622103535  W2        20645           0.0000000000
     61936     20646  TIP3      OH2            51.1429933595       38.1099977139       11.0324203535  W2        20646           0.0000000000
     61937     20646  TIP3      H1             51.7626333595       37.4334677139       10.7593403535  W2        20646           0.0000000000
     61938     20646  TIP3      H2             50.9347333595       37.8920777139       11.9409103535  W2        20646           0.0000000000
     61939     20647  TIP3      OH2            48.7148633595       32.4989277139       12.9249703535  W2        20647           0.0000000000
     61940     20647  TIP3      H1             49.0186533595       31.8130677139       12.3303803535  W2        20647           0.0000000000
     61941     20647  TIP3      H2             49.4362633595       32.6177977139       13.5427703535  W2        20647           0.0000000000
     61942     20648  TIP3      OH2            51.8555633595       26.8931677139       13.2524503535  W2        20648           0.0000000000
     61943     20648  TIP3      H1             51.9981533595       25.9468677139       13.2726103535  W2        20648           0.0000000000
     61944     20648  TIP3      H2             51.7494633595       27.1001477139       12.3239403535  W2        20648           0.0000000000
     61945     20649  TIP3      OH2            45.0103933595       24.9948077139       10.5249303535  W2        20649           0.0000000000
     61946     20649  TIP3      H1             45.0535033595       25.8546577139       10.1065603535  W2        20649           0.0000000000
     61947     20649  TIP3      H2             44.5528033595       24.4422777139        9.8912503535  W2        20649           0.0000000000
     61948     20650  TIP3      OH2            52.7326633595       25.1253677139        8.9257603535  W2        20650           0.0000000000
     61949     20650  TIP3      H1             53.3790933595       24.7966877139        9.5505203535  W2        20650           0.0000000000
     61950     20650  TIP3      H2             53.2426033595       25.6432677139        8.3029003535  W2        20650           0.0000000000
     61951     20651  TIP3      OH2            41.6305433595       27.3913877139       11.2870703535  W2        20651           0.0000000000
     61952     20651  TIP3      H1             42.2842033595       26.8415577139       11.7190803535  W2        20651           0.0000000000
     61953     20651  TIP3      H2             41.6544733595       27.1172877139       10.3702703535  W2        20651           0.0000000000
     61954     20652  TIP3      OH2            46.7869933595       28.9415177139       10.5022203535  W2        20652           0.0000000000
     61955     20652  TIP3      H1             47.4030933595       28.4150577139       11.0116203535  W2        20652           0.0000000000
     61956     20652  TIP3      H2             46.2008733595       28.3013877139       10.0985803535  W2        20652           0.0000000000
     61957     20653  TIP3      OH2            43.8205833595       23.9126477139       14.5990103535  W2        20653           0.0000000000
     61958     20653  TIP3      H1             43.6017533595       24.4427077139       13.8326103535  W2        20653           0.0000000000
     61959     20653  TIP3      H2             43.1526733595       24.1391977139       15.2461503535  W2        20653           0.0000000000
     61960     20654  TIP3      OH2            51.1895633595       33.4127577139        8.1429203535  W2        20654           0.0000000000
     61961     20654  TIP3      H1             50.8940733595       33.0899877139        7.2916103535  W2        20654           0.0000000000
     61962     20654  TIP3      H2             50.8653433595       34.3124277139        8.1841803535  W2        20654           0.0000000000
     61963     20655  TIP3      OH2            46.3897233595       31.5882177139       14.8863803535  W2        20655           0.0000000000
     61964     20655  TIP3      H1             45.6496333595       32.1863677139       14.9899003535  W2        20655           0.0000000000
     61965     20655  TIP3      H2             47.1036733595       32.1421777139       14.5707403535  W2        20655           0.0000000000
     61966     20656  TIP3      OH2            54.4965033595       24.4162977139       10.9063503535  W2        20656           0.0000000000
     61967     20656  TIP3      H1             54.2813033595       23.6506377139       11.4389503535  W2        20656           0.0000000000
     61968     20656  TIP3      H2             55.1522433595       24.8887577139       11.4192003535  W2        20656           0.0000000000
     61969     20657  TIP3      OH2            43.4143133595       25.8048277139       12.5512303535  W2        20657           0.0000000000
     61970     20657  TIP3      H1             44.0279433595       26.4375877139       12.9244703535  W2        20657           0.0000000000
     61971     20657  TIP3      H2             43.9263833595       25.3323277139       11.8949203535  W2        20657           0.0000000000
     61972     20658  TIP3      OH2            44.7971533595       33.5525177139       15.6735303535  W2        20658           0.0000000000
     61973     20658  TIP3      H1             44.7919133595       34.4318677139       15.2954603535  W2        20658           0.0000000000
     61974     20658  TIP3      H2             43.9435633595       33.4689277139       16.0985203535  W2        20658           0.0000000000
     61975     20659  TIP3      OH2            40.9182433595       33.2233077139        6.4554603535  W2        20659           0.0000000000
     61976     20659  TIP3      H1             40.6463333595       33.4524077139        5.5667503535  W2        20659           0.0000000000
     61977     20659  TIP3      H2             40.9638133595       34.0611877139        6.9159903535  W2        20659           0.0000000000
     61978     20660  TIP3      OH2            54.5432133595       34.8448977139       13.1683103535  W2        20660           0.0000000000
     61979     20660  TIP3      H1             53.6015833595       34.9032877139       13.3300003535  W2        20660           0.0000000000
     61980     20660  TIP3      H2             54.8198233595       35.7509477139       13.0312803535  W2        20660           0.0000000000
     61981     20661  TIP3      OH2            47.8470533595       21.2181577139       12.0515003535  W2        20661           0.0000000000
     61982     20661  TIP3      H1             47.7294733595       20.2697577139       11.9973303535  W2        20661           0.0000000000
     61983     20661  TIP3      H2             46.9920633595       21.5507677139       12.3246103535  W2        20661           0.0000000000
     61984     20662  TIP3      OH2            52.7953333595       36.6262477139        9.7934703535  W2        20662           0.0000000000
     61985     20662  TIP3      H1             53.2205633595       35.9190377139        9.3084303535  W2        20662           0.0000000000
     61986     20662  TIP3      H2             53.1123333595       37.4275177139        9.3766903535  W2        20662           0.0000000000
     61987     20663  TIP3      OH2            53.9549833595       34.5270977139        8.3021303535  W2        20663           0.0000000000
     61988     20663  TIP3      H1             53.6974633595       33.8371077139        7.6907203535  W2        20663           0.0000000000
     61989     20663  TIP3      H2             54.0260633595       34.0842177139        9.1477203535  W2        20663           0.0000000000
     61990     20664  TIP3      OH2            50.1135433595       30.0557177139        6.5520803535  W2        20664           0.0000000000
     61991     20664  TIP3      H1             49.4020933595       30.5906877139        6.2001303535  W2        20664           0.0000000000
     61992     20664  TIP3      H2             50.8045033595       30.1109277139        5.8919703535  W2        20664           0.0000000000
     61993     20665  TIP3      OH2            50.1674633595       28.5131477139        3.5905803535  W2        20665           0.0000000000
     61994     20665  TIP3      H1             50.8684533595       28.5358377139        4.2419803535  W2        20665           0.0000000000
     61995     20665  TIP3      H2             50.4697533595       27.8851177139        2.9345103535  W2        20665           0.0000000000
     61996     20666  TIP3      OH2            53.5193133595       30.2650477139        7.5036703535  W2        20666           0.0000000000
     61997     20666  TIP3      H1             52.7874133595       30.4934177139        8.0767303535  W2        20666           0.0000000000
     61998     20666  TIP3      H2             53.9665333595       29.5513177139        7.9584203535  W2        20666           0.0000000000
     61999     20667  TIP3      OH2            53.4166633595       28.4393077139       16.5713703535  W2        20667           0.0000000000
     62000     20667  TIP3      H1             53.4965733595       29.2027477139       17.1432203535  W2        20667           0.0000000000
     62001     20667  TIP3      H2             52.8154333595       28.7185477139       15.8808803535  W2        20667           0.0000000000
     62002     20668  TIP3      OH2            45.1646833595       30.8956677139        9.3861703535  W2        20668           0.0000000000
     62003     20668  TIP3      H1             44.8342033595       30.5250077139        8.5678703535  W2        20668           0.0000000000
     62004     20668  TIP3      H2             45.7530933595       30.2250677139        9.7330003535  W2        20668           0.0000000000
     62005     20669  TIP3      OH2            46.5314333595       34.3237277139       12.0673903535  W2        20669           0.0000000000
     62006     20669  TIP3      H1             46.4365633595       33.7450377139       11.3108503535  W2        20669           0.0000000000
     62007     20669  TIP3      H2             47.2607933595       33.9522977139       12.5636703535  W2        20669           0.0000000000
     62008     20670  TIP3      OH2            45.5312333595       29.6642277139       13.0196703535  W2        20670           0.0000000000
     62009     20670  TIP3      H1             46.0964833595       29.7856477139       12.2567903535  W2        20670           0.0000000000
     62010     20670  TIP3      H2             45.8501233595       30.3017277139       13.6585203535  W2        20670           0.0000000000
     62011     20671  TIP3      OH2            51.8404533595       35.1674177139       13.7537203535  W2        20671           0.0000000000
     62012     20671  TIP3      H1             51.6001133595       35.8297277139       14.4016403535  W2        20671           0.0000000000
     62013     20671  TIP3      H2             51.6422733595       34.3329377139       14.1786803535  W2        20671           0.0000000000
     62014     20672  TIP3      OH2            46.4113033595       34.0634977139       17.7368603535  W2        20672           0.0000000000
     62015     20672  TIP3      H1             46.1000533595       34.8458177139       18.1921803535  W2        20672           0.0000000000
     62016     20672  TIP3      H2             45.7613233595       33.9104077139       17.0510603535  W2        20672           0.0000000000
     62017     20673  TIP3      OH2            52.3902633595       29.4273377139        5.1887903535  W2        20673           0.0000000000
     62018     20673  TIP3      H1             52.9698133595       29.5773677139        5.9356803535  W2        20673           0.0000000000
     62019     20673  TIP3      H2             52.8042633595       29.8980777139        4.4654303535  W2        20673           0.0000000000
     62020     20674  TIP3      OH2            43.3312933595       30.2616077139       16.9654303535  W2        20674           0.0000000000
     62021     20674  TIP3      H1             43.4016133595       30.9122877139       17.6639303535  W2        20674           0.0000000000
     62022     20674  TIP3      H2             42.4405133595       30.3643577139       16.6305203535  W2        20674           0.0000000000
     62023     20675  TIP3      OH2            50.1167533595       36.1641877139        8.6241003535  W2        20675           0.0000000000
     62024     20675  TIP3      H1             50.5905133595       36.4598177139        9.4015203535  W2        20675           0.0000000000
     62025     20675  TIP3      H2             49.5536833595       36.9023477139        8.3910603535  W2        20675           0.0000000000
     62026     20676  TIP3      OH2            44.6508933595       36.1349977139       18.5002403535  W2        20676           0.0000000000
     62027     20676  TIP3      H1             44.6584233595       35.9989677139       17.5527903535  W2        20676           0.0000000000
     62028     20676  TIP3      H2             43.7349333595       36.0178077139       18.7522403535  W2        20676           0.0000000000
     62029     20677  TIP3      OH2            44.1549533595       29.9650977139        6.9754503535  W2        20677           0.0000000000
     62030     20677  TIP3      H1             43.8630833595       30.7332677139        6.4845803535  W2        20677           0.0000000000
     62031     20677  TIP3      H2             43.4804733595       29.3057177139        6.8125903535  W2        20677           0.0000000000
     62032     20678  TIP3      OH2            40.2479633595       32.3280177139       15.7904303535  W2        20678           0.0000000000
     62033     20678  TIP3      H1             39.7468033595       32.2999577139       14.9754003535  W2        20678           0.0000000000
     62034     20678  TIP3      H2             40.2533333595       31.4223377139       16.1001603535  W2        20678           0.0000000000
     62035     20679  TIP3      OH2            39.9982333595       35.1083977139       12.6744503535  W2        20679           0.0000000000
     62036     20679  TIP3      H1             40.9442933595       34.9640977139       12.6554003535  W2        20679           0.0000000000
     62037     20679  TIP3      H2             39.8858633595       35.8926777139       13.2115703535  W2        20679           0.0000000000
     62038     20680  TIP3      OH2            49.1744833595       35.3482877139       17.2329603535  W2        20680           0.0000000000
     62039     20680  TIP3      H1             49.2619433595       36.1747477139       17.7078703535  W2        20680           0.0000000000
     62040     20680  TIP3      H2             48.3109933595       35.0186677139       17.4818903535  W2        20680           0.0000000000
     62041     20681  TIP3      OH2            49.5890633595       39.1206577139        7.0390203535  W2        20681           0.0000000000
     62042     20681  TIP3      H1             49.5136633595       38.9993777139        6.0925403535  W2        20681           0.0000000000
     62043     20681  TIP3      H2             49.6219333595       40.0699277139        7.1574803535  W2        20681           0.0000000000
     62044     20682  TIP3      OH2            43.2424433595       37.9093577139        8.8199203535  W2        20682           0.0000000000
     62045     20682  TIP3      H1             43.3944833595       37.5613977139        9.6985703535  W2        20682           0.0000000000
     62046     20682  TIP3      H2             42.3914833595       37.5530877139        8.5646403535  W2        20682           0.0000000000
     62047     20683  TIP3      OH2            52.6906633595       38.2746777139        4.0412603535  W2        20683           0.0000000000
     62048     20683  TIP3      H1             53.0655033595       37.5302877139        3.5705203535  W2        20683           0.0000000000
     62049     20683  TIP3      H2             52.6950333595       38.0047377139        4.9595903535  W2        20683           0.0000000000
     62050     20684  TIP3      OH2            52.3594733595       38.2003877139        6.7904803535  W2        20684           0.0000000000
     62051     20684  TIP3      H1             51.4244533595       38.3005777139        6.9691803535  W2        20684           0.0000000000
     62052     20684  TIP3      H2             52.6396633595       37.4909877139        7.3688003535  W2        20684           0.0000000000
     62053     20685  TIP3      OH2            42.4970133595       33.6515577139       16.8337103535  W2        20685           0.0000000000
     62054     20685  TIP3      H1             42.7131433595       33.2901177139       17.6932903535  W2        20685           0.0000000000
     62055     20685  TIP3      H2             41.6414833595       33.2769377139       16.6240603535  W2        20685           0.0000000000
     62056     20686  TIP3      OH2            45.1158133595       22.1216077139       12.8291303535  W2        20686           0.0000000000
     62057     20686  TIP3      H1             44.2541833595       22.0344277139       12.4214203535  W2        20686           0.0000000000
     62058     20686  TIP3      H2             45.0933833595       22.9776177139       13.2568903535  W2        20686           0.0000000000
     62059     20687  TIP3      OH2            49.7785933595       21.8436477139       16.2038303535  W2        20687           0.0000000000
     62060     20687  TIP3      H1             50.1989033595       21.4283577139       16.9568903535  W2        20687           0.0000000000
     62061     20687  TIP3      H2             48.8455533595       21.6649777139       16.3210303535  W2        20687           0.0000000000
     62062     20688  TIP3      OH2            53.1050833595       25.5991677139       17.0572803535  W2        20688           0.0000000000
     62063     20688  TIP3      H1             52.5910333595       25.4733877139       17.8548803535  W2        20688           0.0000000000
     62064     20688  TIP3      H2             52.9495533595       26.5114777139       16.8129003535  W2        20688           0.0000000000
     62065     20689  TIP3      OH2            53.8675733595       30.4601677139        2.8185803535  W2        20689           0.0000000000
     62066     20689  TIP3      H1             53.9096533595       30.2375577139        1.8885803535  W2        20689           0.0000000000
     62067     20689  TIP3      H2             54.7167833595       30.8588777139        3.0085703535  W2        20689           0.0000000000
     62068     20690  TIP3      OH2            49.4403233595       24.3359877139        3.4889103535  W2        20690           0.0000000000
     62069     20690  TIP3      H1             49.1868033595       24.3551477139        4.4117203535  W2        20690           0.0000000000
     62070     20690  TIP3      H2             49.1835333595       23.4645277139        3.1875303535  W2        20690           0.0000000000
     62071     20691  TIP3      OH2            45.2068233595       27.0870577139       13.9241503535  W2        20691           0.0000000000
     62072     20691  TIP3      H1             44.5650333595       27.0467877139       14.6331603535  W2        20691           0.0000000000
     62073     20691  TIP3      H2             45.2440233595       28.0135277139       13.6864503535  W2        20691           0.0000000000
     62074     20692  TIP3      OH2            45.2037333595       27.3080677139        8.8361503535  W2        20692           0.0000000000
     62075     20692  TIP3      H1             44.3110233595       26.9676777139        8.7775303535  W2        20692           0.0000000000
     62076     20692  TIP3      H2             45.6543933595       26.9311577139        8.0804703535  W2        20692           0.0000000000
     62077     20693  TIP3      OH2            50.7392833595       27.7240977139        7.6532303535  W2        20693           0.0000000000
     62078     20693  TIP3      H1             50.3303133595       28.5389577139        7.3617103535  W2        20693           0.0000000000
     62079     20693  TIP3      H2             51.4599033595       27.5841077139        7.0389403535  W2        20693           0.0000000000
     62080     20694  TIP3      OH2            49.8414433595       27.8997377139       19.1413003535  W2        20694           0.0000000000
     62081     20694  TIP3      H1             49.2788233595       27.1948977139       19.4620803535  W2        20694           0.0000000000
     62082     20694  TIP3      H2             50.6677833595       27.7789277139       19.6090603535  W2        20694           0.0000000000
     62083     20695  TIP3      OH2            51.7440533595       27.1701377139       10.4672003535  W2        20695           0.0000000000
     62084     20695  TIP3      H1             51.5485033595       27.7758177139        9.7522603535  W2        20695           0.0000000000
     62085     20695  TIP3      H2             51.9253133595       26.3366577139       10.0328303535  W2        20695           0.0000000000
     62086     20696  TIP3      OH2            42.9568733595       27.4074077139       15.7913503535  W2        20696           0.0000000000
     62087     20696  TIP3      H1             42.9188133595       27.8075677139       16.6600603535  W2        20696           0.0000000000
     62088     20696  TIP3      H2             42.4659833595       26.5906477139       15.8816403535  W2        20696           0.0000000000
     62089     20697  TIP3      OH2            46.3226133595       24.7816377139        2.5899503535  W2        20697           0.0000000000
     62090     20697  TIP3      H1             45.8916833595       24.3366477139        3.3196903535  W2        20697           0.0000000000
     62091     20697  TIP3      H2             45.6044833595       25.1532677139        2.0777003535  W2        20697           0.0000000000
     62092     20698  TIP3      OH2            39.5649533595       24.5235877139        9.6418203535  W2        20698           0.0000000000
     62093     20698  TIP3      H1             40.1957233595       24.4947977139       10.3612103535  W2        20698           0.0000000000
     62094     20698  TIP3      H2             40.0143833595       24.0984577139        8.9114103535  W2        20698           0.0000000000
     62095     20699  TIP3      OH2            40.8391633595       25.2697877139        5.0658603535  W2        20699           0.0000000000
     62096     20699  TIP3      H1             41.3133333595       25.8607777139        4.4809503535  W2        20699           0.0000000000
     62097     20699  TIP3      H2             40.1218033595       25.8000777139        5.4128703535  W2        20699           0.0000000000
     62098     20700  TIP3      OH2            51.0079733595       28.8082677139       15.1384403535  W2        20700           0.0000000000
     62099     20700  TIP3      H1             51.3314533595       28.1772377139       14.4954903535  W2        20700           0.0000000000
     62100     20700  TIP3      H2             50.5679033595       28.2734877139       15.7991803535  W2        20700           0.0000000000
     62101     20701  TIP3      OH2            47.7852633595       24.7358177139        9.9225603535  W2        20701           0.0000000000
     62102     20701  TIP3      H1             46.8743733595       24.7924977139       10.2111603535  W2        20701           0.0000000000
     62103     20701  TIP3      H2             48.2905533595       24.6753677139       10.7332803535  W2        20701           0.0000000000
     62104     20702  TIP3      OH2            42.6136033595       26.3644477139        8.7493203535  W2        20702           0.0000000000
     62105     20702  TIP3      H1             41.7244033595       26.4639977139        8.4092803535  W2        20702           0.0000000000
     62106     20702  TIP3      H2             42.9100933595       25.5227477139        8.4031103535  W2        20702           0.0000000000
     62107     20703  TIP3      OH2            46.2667833595       26.3647077139        6.4057803535  W2        20703           0.0000000000
     62108     20703  TIP3      H1             47.1983333595       26.4937077139        6.5840903535  W2        20703           0.0000000000
     62109     20703  TIP3      H2             46.0518133595       27.0341377139        5.7562503535  W2        20703           0.0000000000
     62110     20704  TIP3      OH2            52.1904533595       23.9704477139       13.1867403535  W2        20704           0.0000000000
     62111     20704  TIP3      H1             51.5136133595       24.1017577139       13.8507103535  W2        20704           0.0000000000
     62112     20704  TIP3      H2             51.7049433595       23.8153977139       12.3765103535  W2        20704           0.0000000000
     62113     20705  TIP3      OH2            44.9408033595       27.5589277139        3.9723903535  W2        20705           0.0000000000
     62114     20705  TIP3      H1             44.3983133595       27.1793077139        3.2811503535  W2        20705           0.0000000000
     62115     20705  TIP3      H2             45.7742933595       27.7533977139        3.5438003535  W2        20705           0.0000000000
     62116     20706  TIP3      OH2            43.0759433595       32.1161177139       19.0715503535  W2        20706           0.0000000000
     62117     20706  TIP3      H1             43.8081833595       32.3707077139       19.6330003535  W2        20706           0.0000000000
     62118     20706  TIP3      H2             42.2958133595       32.3206577139       19.5870903535  W2        20706           0.0000000000
     62119     20707  TIP3      OH2            49.1052333595       27.5231177139       11.8095203535  W2        20707           0.0000000000
     62120     20707  TIP3      H1             49.6695733595       26.9767777139       11.2624803535  W2        20707           0.0000000000
     62121     20707  TIP3      H2             48.9575733595       27.0013077139       12.5982803535  W2        20707           0.0000000000
     62122     20708  TIP3      OH2            44.1072033595       23.6597277139        8.2280003535  W2        20708           0.0000000000
     62123     20708  TIP3      H1             43.7901533595       22.7572577139        8.1925403535  W2        20708           0.0000000000
     62124     20708  TIP3      H2             44.8886133595       23.6614677139        7.6751603535  W2        20708           0.0000000000
     62125     20709  TIP3      OH2            47.7318233595       25.9117277139       14.2235603535  W2        20709           0.0000000000
     62126     20709  TIP3      H1             46.8963533595       26.3656777139       14.3338003535  W2        20709           0.0000000000
     62127     20709  TIP3      H2             48.2558833595       26.1875777139       14.9755503535  W2        20709           0.0000000000
     62128     20710  TIP3      OH2            48.2760833595       32.1244977139        5.9082003535  W2        20710           0.0000000000
     62129     20710  TIP3      H1             47.5311833595       31.6170277139        5.5859903535  W2        20710           0.0000000000
     62130     20710  TIP3      H2             48.1418033595       32.1732977139        6.8546803535  W2        20710           0.0000000000
     62131     20711  TIP3      OH2            52.1737633595       24.9384877139        4.1074603535  W2        20711           0.0000000000
     62132     20711  TIP3      H1             51.2351833595       25.0500477139        3.9563403535  W2        20711           0.0000000000
     62133     20711  TIP3      H2             52.4709733595       25.7951777139        4.4140303535  W2        20711           0.0000000000
     62134     20712  TIP3      OH2            49.7952933595       32.3088277139       17.1451103535  W2        20712           0.0000000000
     62135     20712  TIP3      H1             49.4499033595       31.9270677139       17.9520703535  W2        20712           0.0000000000
     62136     20712  TIP3      H2             49.5953033595       33.2421877139       17.2164003535  W2        20712           0.0000000000
     62137     20713  TIP3      OH2            52.8921133595       26.8057577139        5.7682003535  W2        20713           0.0000000000
     62138     20713  TIP3      H1             53.7840133595       26.6682577139        6.0873203535  W2        20713           0.0000000000
     62139     20713  TIP3      H2             52.9484733595       27.5963677139        5.2315503535  W2        20713           0.0000000000
     62140     20714  TIP3      OH2            43.4009133595       31.4194977139       11.6779903535  W2        20714           0.0000000000
     62141     20714  TIP3      H1             44.1456333595       31.4170677139       11.0766403535  W2        20714           0.0000000000
     62142     20714  TIP3      H2             43.4785733595       30.5958777139       12.1595003535  W2        20714           0.0000000000
     62143     20715  TIP3      OH2            50.4014933595       33.5829277139        4.9336603535  W2        20715           0.0000000000
     62144     20715  TIP3      H1             50.1063333595       34.4097177139        5.3151403535  W2        20715           0.0000000000
     62145     20715  TIP3      H2             49.6984933595       32.9636177139        5.1298003535  W2        20715           0.0000000000
     62146     20716  TIP3      OH2            40.4088833595       29.8801877139       16.9928403535  W2        20716           0.0000000000
     62147     20716  TIP3      H1             40.6317433595       29.4621477139       17.8245903535  W2        20716           0.0000000000
     62148     20716  TIP3      H2             39.8068933595       29.2676877139       16.5701203535  W2        20716           0.0000000000
     62149     20717  TIP3      OH2            47.4253733595       29.3971777139       19.2058103535  W2        20717           0.0000000000
     62150     20717  TIP3      H1             47.1294533595       29.2314777139       18.3107203535  W2        20717           0.0000000000
     62151     20717  TIP3      H2             48.3568933595       29.1772077139       19.1952003535  W2        20717           0.0000000000
     62152     20718  TIP3      OH2            52.0456533595       34.7703777139       17.0956103535  W2        20718           0.0000000000
     62153     20718  TIP3      H1             51.1450833595       34.9536377139       16.8280003535  W2        20718           0.0000000000
     62154     20718  TIP3      H2             52.0797633595       35.0293077139       18.0164903535  W2        20718           0.0000000000
     62155     20719  TIP3      OH2            53.2325433595       30.6091577139       12.9492703535  W2        20719           0.0000000000
     62156     20719  TIP3      H1             52.3042333595       30.3773477139       12.9222003535  W2        20719           0.0000000000
     62157     20719  TIP3      H2             53.6836533595       29.8321377139       12.6191503535  W2        20719           0.0000000000
     62158     20720  TIP3      OH2            45.7758533595       34.9373177139        9.0821403535  W2        20720           0.0000000000
     62159     20720  TIP3      H1             46.3030733595       35.7107577139        8.8820203535  W2        20720           0.0000000000
     62160     20720  TIP3      H2             44.8957033595       35.1622377139        8.7805403535  W2        20720           0.0000000000
     62161     20721  TIP3      OH2            41.5306233595       29.7997277139        3.6693803535  W2        20721           0.0000000000
     62162     20721  TIP3      H1             42.1466133595       30.4264477139        4.0488603535  W2        20721           0.0000000000
     62163     20721  TIP3      H2             40.6688833595       30.1157077139        3.9410303535  W2        20721           0.0000000000
     62164     20722  TIP3      OH2            47.2030833595       32.6003077139        8.6585703535  W2        20722           0.0000000000
     62165     20722  TIP3      H1             46.9620833595       33.5257477139        8.7001003535  W2        20722           0.0000000000
     62166     20722  TIP3      H2             46.4624433595       32.1414377139        9.0549603535  W2        20722           0.0000000000
     62167     20723  TIP3      OH2            47.7177433595       36.7496677139       14.9736803535  W2        20723           0.0000000000
     62168     20723  TIP3      H1             48.0802133595       37.6042277139       14.7401203535  W2        20723           0.0000000000
     62169     20723  TIP3      H2             48.2492633595       36.4578277139       15.7143103535  W2        20723           0.0000000000
     62170     20724  TIP3      OH2            45.8861633595       37.6220677139        8.2037903535  W2        20724           0.0000000000
     62171     20724  TIP3      H1             44.9362133595       37.7278077139        8.2551203535  W2        20724           0.0000000000
     62172     20724  TIP3      H2             46.2379733595       38.4428077139        8.5485403535  W2        20724           0.0000000000
     62173     20725  TIP3      OH2            51.2618233595       32.8487377139       14.6742403535  W2        20725           0.0000000000
     62174     20725  TIP3      H1             50.8359533595       32.6209077139       15.5006403535  W2        20725           0.0000000000
     62175     20725  TIP3      H2             51.8424033595       32.1099177139       14.4917703535  W2        20725           0.0000000000
     62176     20726  TIP3      OH2            53.4647133595       33.7777877139        3.7481403535  W2        20726           0.0000000000
     62177     20726  TIP3      H1             53.8180233595       33.3977677139        4.5524903535  W2        20726           0.0000000000
     62178     20726  TIP3      H2             52.5160633595       33.6842677139        3.8350703535  W2        20726           0.0000000000
     62179     20727  TIP3      OH2            53.9202433595       37.4006877139       17.1437203535  W2        20727           0.0000000000
     62180     20727  TIP3      H1             53.3185633595       36.8449777139       16.6483503535  W2        20727           0.0000000000
     62181     20727  TIP3      H2             54.2016133595       38.0676677139       16.5174603535  W2        20727           0.0000000000
     62182     20728  TIP3      OH2            42.0428333595       24.6334577139       16.5509803535  W2        20728           0.0000000000
     62183     20728  TIP3      H1             41.1500633595       24.9719977139       16.4833803535  W2        20728           0.0000000000
     62184     20728  TIP3      H2             41.9441133595       23.7780677139       16.9690603535  W2        20728           0.0000000000
     62185     20729  TIP3      OH2            54.3306433595       32.4499877139        5.9749303535  W2        20729           0.0000000000
     62186     20729  TIP3      H1             54.0534033595       31.7219177139        6.5310403535  W2        20729           0.0000000000
     62187     20729  TIP3      H2             55.2579433595       32.5691877139        6.1801903535  W2        20729           0.0000000000
     62188     20730  TIP3      OH2            41.6940333595       36.4378977139       14.9859203535  W2        20730           0.0000000000
     62189     20730  TIP3      H1             41.9110633595       35.5061377139       14.9548903535  W2        20730           0.0000000000
     62190     20730  TIP3      H2             41.9403833595       36.7123977139       15.8692003535  W2        20730           0.0000000000
     62191     20731  TIP3      OH2            47.5554933595       34.8893977139        2.1951403535  W2        20731           0.0000000000
     62192     20731  TIP3      H1             47.7944733595       34.1412077139        1.6480303535  W2        20731           0.0000000000
     62193     20731  TIP3      H2             47.2866233595       34.5015677139        3.0279203535  W2        20731           0.0000000000
     62194     20732  TIP3      OH2            46.4925533595       34.4597777139        4.6514003535  W2        20732           0.0000000000
     62195     20732  TIP3      H1             46.6393533595       33.9397577139        5.4414903535  W2        20732           0.0000000000
     62196     20732  TIP3      H2             46.4897233595       35.3665377139        4.9579903535  W2        20732           0.0000000000
     62197     20733  TIP3      OH2            42.9456633595       31.7121077139        5.1619403535  W2        20733           0.0000000000
     62198     20733  TIP3      H1             42.2595933595       32.0643577139        5.7289103535  W2        20733           0.0000000000
     62199     20733  TIP3      H2             43.4684533595       32.4750677139        4.9153703535  W2        20733           0.0000000000
     62200     20734  TIP3      OH2            50.7771733595       24.3744877139       15.4408403535  W2        20734           0.0000000000
     62201     20734  TIP3      H1             51.4759633595       24.4483577139       16.0908103535  W2        20734           0.0000000000
     62202     20734  TIP3      H2             50.3963133595       23.5099877139       15.5951303535  W2        20734           0.0000000000
     62203     20735  TIP3      OH2            51.5616633595       24.0266577139        6.5380703535  W2        20735           0.0000000000
     62204     20735  TIP3      H1             51.7814933595       24.4981977139        5.7346103535  W2        20735           0.0000000000
     62205     20735  TIP3      H2             52.1200633595       24.4209177139        7.2081303535  W2        20735           0.0000000000
     62206     20736  TIP3      OH2            49.2302733595       36.1571377139        5.4008203535  W2        20736           0.0000000000
     62207     20736  TIP3      H1             48.4138833595       36.6541077139        5.4532503535  W2        20736           0.0000000000
     62208     20736  TIP3      H2             49.7599033595       36.6324877139        4.7607003535  W2        20736           0.0000000000
     62209     20737  TIP3      OH2            48.7616533595       25.7545377139        7.3729103535  W2        20737           0.0000000000
     62210     20737  TIP3      H1             49.5739133595       26.2588577139        7.4190803535  W2        20737           0.0000000000
     62211     20737  TIP3      H2             48.5169533595       25.6095077139        8.2868703535  W2        20737           0.0000000000
     62212     20738  TIP3      OH2            49.2972933595       26.7408077139       16.5575703535  W2        20738           0.0000000000
     62213     20738  TIP3      H1             49.4163233595       27.3143477139       17.3146103535  W2        20738           0.0000000000
     62214     20738  TIP3      H2             49.9527533595       26.0527477139       16.6723503535  W2        20738           0.0000000000
     62215     20739  TIP3      OH2            49.6453233595       22.8358377139        8.3110203535  W2        20739           0.0000000000
     62216     20739  TIP3      H1             49.2986733595       23.4528977139        8.9554503535  W2        20739           0.0000000000
     62217     20739  TIP3      H2             50.3040133595       23.3364077139        7.8295703535  W2        20739           0.0000000000
     62218     20740  TIP3      OH2            46.5685833595       37.2008577139        5.3825103535  W2        20740           0.0000000000
     62219     20740  TIP3      H1             46.7294533595       38.0006077139        4.8817703535  W2        20740           0.0000000000
     62220     20740  TIP3      H2             46.3713633595       37.5074577139        6.2675703535  W2        20740           0.0000000000
     62221     20741  TIP3      OH2            45.3030233595       23.8987777139        4.9982703535  W2        20741           0.0000000000
     62222     20741  TIP3      H1             45.2195033595       24.7870877139        5.3449103535  W2        20741           0.0000000000
     62223     20741  TIP3      H2             46.1930533595       23.6334477139        5.2299503535  W2        20741           0.0000000000
     62224     20742  TIP3      OH2            54.1039733595       28.3979377139       11.4882703535  W2        20742           0.0000000000
     62225     20742  TIP3      H1             53.3064133595       27.9829577139       11.1597703535  W2        20742           0.0000000000
     62226     20742  TIP3      H2             54.5490833595       27.7073077139       11.9793203535  W2        20742           0.0000000000
     62227     20743  TIP3      OH2            43.5615533595       34.3259977139        4.0587203535  W2        20743           0.0000000000
     62228     20743  TIP3      H1             44.1537033595       35.0254777139        4.3349603535  W2        20743           0.0000000000
     62229     20743  TIP3      H2             44.0208533595       33.8929477139        3.3391803535  W2        20743           0.0000000000
     62230     20744  TIP3      OH2            41.8774733595       26.9902977139        3.1746603535  W2        20744           0.0000000000
     62231     20744  TIP3      H1             41.8327333595       27.9296077139        3.3533603535  W2        20744           0.0000000000
     62232     20744  TIP3      H2             40.9897933595       26.7547877139        2.9048703535  W2        20744           0.0000000000
     62233     20745  TIP3      OH2            42.6856733595       21.7719577139       11.8477603535  W2        20745           0.0000000000
     62234     20745  TIP3      H1             42.4566533595       21.8312077139       10.9202603535  W2        20745           0.0000000000
     62235     20745  TIP3      H2             42.2430133595       20.9805077139       12.1541703535  W2        20745           0.0000000000
     62236     20746  TIP3      OH2            41.6160033595       35.7126677139        8.0083403535  W2        20746           0.0000000000
     62237     20746  TIP3      H1             40.7838633595       36.1849377139        8.0354803535  W2        20746           0.0000000000
     62238     20746  TIP3      H2             42.1618333595       36.2224277139        7.4096503535  W2        20746           0.0000000000
     62239     20747  TIP3      OH2            40.9043733595       38.3250377139       19.3381403535  W2        20747           0.0000000000
     62240     20747  TIP3      H1             41.4445933595       38.1084377139       20.0980603535  W2        20747           0.0000000000
     62241     20747  TIP3      H2             40.4231733595       37.5196377139       19.1483903535  W2        20747           0.0000000000
     62242     20748  TIP3      OH2            45.5017133595       37.2444777139       20.9585603535  W2        20748           0.0000000000
     62243     20748  TIP3      H1             46.2694333595       36.7855577139       21.2994803535  W2        20748           0.0000000000
     62244     20748  TIP3      H2             45.4803333595       37.0184577139       20.0286803535  W2        20748           0.0000000000
     62245     20749  TIP3      OH2            49.5936733595       36.7525377139        2.3337403535  W2        20749           0.0000000000
     62246     20749  TIP3      H1             48.9497733595       36.1213977139        2.6551103535  W2        20749           0.0000000000
     62247     20749  TIP3      H2             50.3555033595       36.2213377139        2.1020903535  W2        20749           0.0000000000
     62248     20750  TIP3      OH2            52.0785833595       35.6245877139       19.6877103535  W2        20750           0.0000000000
     62249     20750  TIP3      H1             51.7275333595       34.7678877139       19.9307503535  W2        20750           0.0000000000
     62250     20750  TIP3      H2             52.8049033595       35.7672577139       20.2946103535  W2        20750           0.0000000000
     62251     20751  TIP3      OH2            54.1979633595       36.5695277139        2.5675403535  W2        20751           0.0000000000
     62252     20751  TIP3      H1             54.4810033595       35.7750477139        3.0202303535  W2        20751           0.0000000000
     62253     20751  TIP3      H2             54.9377533595       36.8026277139        2.0066503535  W2        20751           0.0000000000
     62254     20752  TIP3      OH2            40.8113233595       32.1354477139       20.2925703535  W2        20752           0.0000000000
     62255     20752  TIP3      H1             40.9553733595       31.2335177139       20.0062403535  W2        20752           0.0000000000
     62256     20752  TIP3      H2             40.0390633595       32.4216577139       19.8048003535  W2        20752           0.0000000000
     62257     20753  TIP3      OH2            45.1526933595       32.4790177139        2.4250303535  W2        20753           0.0000000000
     62258     20753  TIP3      H1             45.2171033595       31.6849777139        2.9556703535  W2        20753           0.0000000000
     62259     20753  TIP3      H2             45.8056133595       32.3602977139        1.7352303535  W2        20753           0.0000000000
     62260     20754  TIP3      OH2            47.4669333595       32.1052577139       19.7252103535  W2        20754           0.0000000000
     62261     20754  TIP3      H1             47.1383133595       32.3760677139       18.8679503535  W2        20754           0.0000000000
     62262     20754  TIP3      H2             47.6187533595       31.1642377139       19.6377103535  W2        20754           0.0000000000
     62263     20755  TIP3      OH2            50.5050333595       33.5261877139        2.1608303535  W2        20755           0.0000000000
     62264     20755  TIP3      H1             50.2364433595       33.7063977139        3.0617203535  W2        20755           0.0000000000
     62265     20755  TIP3      H2             50.2985933595       32.6008077139        2.0294103535  W2        20755           0.0000000000
     62266     20756  TIP3      OH2            53.2014533595       32.0209877139       17.1084403535  W2        20756           0.0000000000
     62267     20756  TIP3      H1             53.9469333595       32.6093577139       16.9888403535  W2        20756           0.0000000000
     62268     20756  TIP3      H2             52.4441333595       32.6029577139       17.1717503535  W2        20756           0.0000000000
     62269     20757  TIP3      OH2            41.6439733595       29.3357777139       19.7125003535  W2        20757           0.0000000000
     62270     20757  TIP3      H1             42.0520933595       28.4784377139       19.5915603535  W2        20757           0.0000000000
     62271     20757  TIP3      H2             41.3837333595       29.3499077139       20.6335303535  W2        20757           0.0000000000
     62272     20758  TIP3      OH2            46.3020733595       30.4516377139        4.7308303535  W2        20758           0.0000000000
     62273     20758  TIP3      H1             45.8422733595       29.9674677139        5.4166803535  W2        20758           0.0000000000
     62274     20758  TIP3      H2             46.5569433595       29.7831777139        4.0948803535  W2        20758           0.0000000000
     62275     20759  TIP3      OH2            45.5910033595       28.3443477139       17.0867903535  W2        20759           0.0000000000
     62276     20759  TIP3      H1             44.9726133595       29.0190077139       17.3672603535  W2        20759           0.0000000000
     62277     20759  TIP3      H2             45.9351233595       28.6657377139       16.2534103535  W2        20759           0.0000000000
     62278     20760  TIP3      OH2            47.3731133595       28.6948177139        2.9931503535  W2        20760           0.0000000000
     62279     20760  TIP3      H1             47.1926133595       28.5399377139        2.0659803535  W2        20760           0.0000000000
     62280     20760  TIP3      H2             48.3231633595       28.8026877139        3.0379403535  W2        20760           0.0000000000
     62281     20761  TIP3      OH2            50.6108233595       30.8158777139       20.3642703535  W2        20761           0.0000000000
     62282     20761  TIP3      H1             51.5639433595       30.8997877139       20.3368703535  W2        20761           0.0000000000
     62283     20761  TIP3      H2             50.4502833595       30.1040577139       20.9837603535  W2        20761           0.0000000000
     62284     20762  TIP3      OH2            45.9303733595       25.6994277139       18.1691003535  W2        20762           0.0000000000
     62285     20762  TIP3      H1             46.0804633595       24.9705577139       17.5670703535  W2        20762           0.0000000000
     62286     20762  TIP3      H2             45.9326133595       26.4765977139       17.6103203535  W2        20762           0.0000000000
     62287     20763  TIP3      OH2            46.3429433595       24.0690077139       15.6618403535  W2        20763           0.0000000000
     62288     20763  TIP3      H1             46.8786933595       24.5206777139       15.0097703535  W2        20763           0.0000000000
     62289     20763  TIP3      H2             45.4909033595       23.9609877139       15.2392503535  W2        20763           0.0000000000
     62290     20764  TIP3      OH2            47.9247833595       29.5086277139       15.9013603535  W2        20764           0.0000000000
     62291     20764  TIP3      H1             48.6752633595       29.3523777139       15.3281403535  W2        20764           0.0000000000
     62292     20764  TIP3      H2             47.5856133595       30.3602877139       15.6259103535  W2        20764           0.0000000000
     62293     20765  TIP3      OH2            52.3404033595       27.3238077139       20.9298903535  W2        20765           0.0000000000
     62294     20765  TIP3      H1             52.5325333595       26.3927477139       20.8183403535  W2        20765           0.0000000000
     62295     20765  TIP3      H2             53.1980333595       27.7487577139       20.9194303535  W2        20765           0.0000000000
     62296     20766  TIP3      OH2            53.6571233595       30.1123277139       19.0071603535  W2        20766           0.0000000000
     62297     20766  TIP3      H1             53.3756233595       30.8217877139       18.4295403535  W2        20766           0.0000000000
     62298     20766  TIP3      H2             54.5995533595       30.0396277139       18.8562803535  W2        20766           0.0000000000
     62299     20767  TIP3      OH2            44.4090033595       26.8977777139       20.0806603535  W2        20767           0.0000000000
     62300     20767  TIP3      H1             43.6419033595       26.3652577139       19.8704203535  W2        20767           0.0000000000
     62301     20767  TIP3      H2             45.0879033595       26.5878177139       19.4812903535  W2        20767           0.0000000000
     62302     20768  TIP3      OH2            47.1484933595       21.5255777139       16.0932003535  W2        20768           0.0000000000
     62303     20768  TIP3      H1             47.0504533595       22.4718977139       15.9878203535  W2        20768           0.0000000000
     62304     20768  TIP3      H2             46.4061133595       21.1529577139       15.6175503535  W2        20768           0.0000000000
     62305     20769  TIP3      OH2            48.4125433595       25.8471177139       19.6570403535  W2        20769           0.0000000000
     62306     20769  TIP3      H1             48.1770833595       25.6277877139       20.5585303535  W2        20769           0.0000000000
     62307     20769  TIP3      H2             47.6292333595       25.6402377139       19.1472903535  W2        20769           0.0000000000
     62308     20770  TIP3      OH2            51.1282033595       24.9744677139       18.7323903535  W2        20770           0.0000000000
     62309     20770  TIP3      H1             50.1807433595       25.0064377139       18.8647203535  W2        20770           0.0000000000
     62310     20770  TIP3      H2             51.4408733595       24.3491777139       19.3862103535  W2        20770           0.0000000000
     62311     20771  TIP3      OH2            52.7623533595       23.6085777139       20.7375803535  W2        20771           0.0000000000
     62312     20771  TIP3      H1             52.6655333595       22.6563077139       20.7317703535  W2        20771           0.0000000000
     62313     20771  TIP3      H2             52.4406633595       23.8772577139       21.5981303535  W2        20771           0.0000000000
     62314     20772  TIP3      OH2            42.5892833595       24.8181577139       19.7851303535  W2        20772           0.0000000000
     62315     20772  TIP3      H1             42.8010233595       24.1117677139       19.1748803535  W2        20772           0.0000000000
     62316     20772  TIP3      H2             42.4780333595       24.3807577139       20.6292503535  W2        20772           0.0000000000
     62317     20773  TIP3      OH2            47.3703033595       20.8193177139       18.7644803535  W2        20773           0.0000000000
     62318     20773  TIP3      H1             48.0821433595       20.1795377139       18.7503903535  W2        20773           0.0000000000
     62319     20773  TIP3      H2             47.2693433595       21.0861477139       17.8507903535  W2        20773           0.0000000000
     62320     20774  TIP3      OH2            47.7240533595       22.5021577139       20.8181103535  W2        20774           0.0000000000
     62321     20774  TIP3      H1             47.5922733595       22.0265377139       19.9979603535  W2        20774           0.0000000000
     62322     20774  TIP3      H2             47.1247933595       23.2465177139       20.7628203535  W2        20774           0.0000000000
     62323     20775  TIP3      OH2            47.2702833595       39.3851877139        3.9945103535  W2        20775           0.0000000000
     62324     20775  TIP3      H1             48.2033533595       39.5430577139        4.1383503535  W2        20775           0.0000000000
     62325     20775  TIP3      H2             47.0061633595       40.0604877139        3.3696603535  W2        20775           0.0000000000
     62326     20776  TIP3      OH2            40.8387733595       34.0215677139        3.4773203535  W2        20776           0.0000000000
     62327     20776  TIP3      H1             41.7526933595       34.1004577139        3.7507103535  W2        20776           0.0000000000
     62328     20776  TIP3      H2             40.8460833595       33.3345277139        2.8108803535  W2        20776           0.0000000000
     62329     20777  TIP3      OH2            39.4878333595       39.4144177139        8.5547103535  W2        20777           0.0000000000
     62330     20777  TIP3      H1             38.8405433595       38.9525877139        8.0218303535  W2        20777           0.0000000000
     62331     20777  TIP3      H2             39.8422933595       38.7427477139        9.1373303535  W2        20777           0.0000000000
     62332     20778  TIP3      OH2            40.3577533595       37.4951177139       10.3593303535  W2        20778           0.0000000000
     62333     20778  TIP3      H1             40.0234333595       36.6148477139       10.5313503535  W2        20778           0.0000000000
     62334     20778  TIP3      H2             40.5799933595       37.8406177139       11.2238903535  W2        20778           0.0000000000
     62335     20779  TIP3      OH2            40.4377033595       30.5706577139       12.8108203535  W2        20779           0.0000000000
     62336     20779  TIP3      H1             40.6219933595       30.4888277139       11.8751103535  W2        20779           0.0000000000
     62337     20779  TIP3      H2             41.2869933595       30.4463577139       13.2344603535  W2        20779           0.0000000000
     62338     20780  TIP3      OH2            40.0351833595       25.8411577139       18.9517003535  W2        20780           0.0000000000
     62339     20780  TIP3      H1             40.9546733595       25.7189877139       19.1880103535  W2        20780           0.0000000000
     62340     20780  TIP3      H2             39.5856333595       25.0911277139       19.3410503535  W2        20780           0.0000000000
     62341     20781  TIP3      OH2            41.2564333595       24.1533177139       11.8429903535  W2        20781           0.0000000000
     62342     20781  TIP3      H1             41.7015933595       23.3615677139       12.1449603535  W2        20781           0.0000000000
     62343     20781  TIP3      H2             41.7227333595       24.8698377139       12.2735503535  W2        20781           0.0000000000
     62344     20782  TIP3      OH2            39.5604633595       27.1526177139       12.9120103535  W2        20782           0.0000000000
     62345     20782  TIP3      H1             40.0524433595       26.9316677139       12.1212103535  W2        20782           0.0000000000
     62346     20782  TIP3      H2             39.9225533595       27.9929577139       13.1929603535  W2        20782           0.0000000000
     62347     20783  TIP3      OH2            39.8741133595       23.4105277139        6.9662503535  W2        20783           0.0000000000
     62348     20783  TIP3      H1             38.9489533595       23.6191877139        6.8368003535  W2        20783           0.0000000000
     62349     20783  TIP3      H2             40.3281033595       23.8946077139        6.2764803535  W2        20783           0.0000000000
     62350     20784  TIP3      OH2            54.6448333595       38.3946977139        8.9119903535  W2        20784           0.0000000000
     62351     20784  TIP3      H1             55.2971233595       38.0469077139        8.3039003535  W2        20784           0.0000000000
     62352     20784  TIP3      H2             55.1552133595       38.8830177139        9.5579603535  W2        20784           0.0000000000
     62353     20785  TIP3      OH2            39.8376533595       22.1484277139       15.3105003535  W2        20785           0.0000000000
     62354     20785  TIP3      H1             39.1727033595       21.9024577139       15.9535903535  W2        20785           0.0000000000
     62355     20785  TIP3      H2             39.3947833595       22.7704677139       14.7333003535  W2        20785           0.0000000000
     62356     20786  TIP3      OH2            42.0295833595       35.3238377139       19.4550803535  W2        20786           0.0000000000
     62357     20786  TIP3      H1             41.2088333595       35.4984877139       18.9945503535  W2        20786           0.0000000000
     62358     20786  TIP3      H2             41.7773633595       35.2503077139       20.3755203535  W2        20786           0.0000000000
     62359     20787  TIP3      OH2            44.9838733595       36.2979577139       15.7134803535  W2        20787           0.0000000000
     62360     20787  TIP3      H1             44.5589833595       37.1078077139       15.4309403535  W2        20787           0.0000000000
     62361     20787  TIP3      H2             45.8881533595       36.3833677139       15.4114603535  W2        20787           0.0000000000
     62362     20788  TIP3      OH2            49.2950133595       37.6969577139       18.6728503535  W2        20788           0.0000000000
     62363     20788  TIP3      H1             49.4797633595       37.3635677139       19.5508803535  W2        20788           0.0000000000
     62364     20788  TIP3      H2             50.1414633595       38.0068177139       18.3507703535  W2        20788           0.0000000000
     62365     20789  TIP3      OH2            51.6400533595       38.9828477139       17.9169903535  W2        20789           0.0000000000
     62366     20789  TIP3      H1             52.3169433595       38.3500777139       17.6769103535  W2        20789           0.0000000000
     62367     20789  TIP3      H2             51.9619333595       39.3838977139       18.7243203535  W2        20789           0.0000000000
     62368     20790  TIP3      OH2            42.3855433595       39.5543477139       15.7610103535  W2        20790           0.0000000000
     62369     20790  TIP3      H1             41.6651833595       39.9944477139       15.3097803535  W2        20790           0.0000000000
     62370     20790  TIP3      H2             42.0199433595       39.3038177139       16.6094103535  W2        20790           0.0000000000
     62371     20791  TIP3      OH2            44.8528033595       39.1547377139       14.7907303535  W2        20791           0.0000000000
     62372     20791  TIP3      H1             43.9880233595       39.2265877139       15.1947403535  W2        20791           0.0000000000
     62373     20791  TIP3      H2             44.7977033595       39.7014677139       14.0069803535  W2        20791           0.0000000000
     62374     20792  TIP3      OH2            49.5633633595       39.0426277139       13.9663303535  W2        20792           0.0000000000
     62375     20792  TIP3      H1             49.1067633595       39.5715977139       13.3121703535  W2        20792           0.0000000000
     62376     20792  TIP3      H2             49.7261633595       39.6457677139       14.6915603535  W2        20792           0.0000000000
     62377     20793  TIP3      OH2            51.8909933595       37.9205877139       14.9113603535  W2        20793           0.0000000000
     62378     20793  TIP3      H1             50.9863633595       38.0856077139       14.6455703535  W2        20793           0.0000000000
     62379     20793  TIP3      H2             52.3198533595       38.7738077139       14.8457003535  W2        20793           0.0000000000
     62380     20794  TIP3      OH2            54.4951833595       39.4904977139       15.2061403535  W2        20794           0.0000000000
     62381     20794  TIP3      H1             54.3133833595       40.4063877139       14.9956303535  W2        20794           0.0000000000
     62382     20794  TIP3      H2             54.6719633595       39.0802077139       14.3596003535  W2        20794           0.0000000000
     62383     20795  TIP3      OH2            41.8003533595       38.1775977139       12.6711903535  W2        20795           0.0000000000
     62384     20795  TIP3      H1             41.7819533595       37.7521077139       13.5284203535  W2        20795           0.0000000000
     62385     20795  TIP3      H2             42.6051433595       37.8590977139       12.2624103535  W2        20795           0.0000000000
     62386     20796  TIP3      OH2            43.9416633595       36.8874677139       11.3261803535  W2        20796           0.0000000000
     62387     20796  TIP3      H1             43.7227333595       35.9712077139       11.4957803535  W2        20796           0.0000000000
     62388     20796  TIP3      H2             44.7658833595       37.0275077139       11.7923203535  W2        20796           0.0000000000
     62389     20797  TIP3      OH2            46.4789133595       37.3573977139       12.1749803535  W2        20797           0.0000000000
     62390     20797  TIP3      H1             46.6914833595       36.4692977139       11.8880703535  W2        20797           0.0000000000
     62391     20797  TIP3      H2             46.5434233595       37.3231677139       13.1293803535  W2        20797           0.0000000000
     62392     20798  TIP3      OH2            49.9872833595       23.0214577139       11.3193103535  W2        20798           0.0000000000
     62393     20798  TIP3      H1             49.3129633595       22.3920177139       11.5748903535  W2        20798           0.0000000000
     62394     20798  TIP3      H2             50.5512033595       22.5373477139       10.7161003535  W2        20798           0.0000000000
     62395     20799  TIP3      OH2            42.3140333595       21.6554877139        9.1413003535  W2        20799           0.0000000000
     62396     20799  TIP3      H1             41.5370133595       21.4209777139        8.6338903535  W2        20799           0.0000000000
     62397     20799  TIP3      H2             42.8443933595       20.8586977139        9.1501003535  W2        20799           0.0000000000
     62398     20800  TIP3      OH2            41.1503733595       21.4532977139        4.9449103535  W2        20800           0.0000000000
     62399     20800  TIP3      H1             41.5894433595       22.0643477139        4.3532603535  W2        20800           0.0000000000
     62400     20800  TIP3      H2             40.5166133595       21.9917077139        5.4189103535  W2        20800           0.0000000000
     62401     20801  TIP3      OH2            46.8932933595       21.5821977139        8.9546103535  W2        20801           0.0000000000
     62402     20801  TIP3      H1             47.7676333595       21.9706277139        8.9250403535  W2        20801           0.0000000000
     62403     20801  TIP3      H2             46.7573733595       21.3669777139        9.8773303535  W2        20801           0.0000000000
     62404     20802  TIP3      OH2            52.4501333595       21.6121777139       10.6037803535  W2        20802           0.0000000000
     62405     20802  TIP3      H1             52.5262933595       21.7073377139        9.6543803535  W2        20802           0.0000000000
     62406     20802  TIP3      H2             52.1750533595       20.7044677139       10.7326903535  W2        20802           0.0000000000
     62407     20803  TIP3      OH2            53.8033933595       21.6379577139        6.2962803535  W2        20803           0.0000000000
     62408     20803  TIP3      H1             53.1005033595       22.2528777139        6.0864203535  W2        20803           0.0000000000
     62409     20803  TIP3      H2             53.3585333595       20.8006277139        6.4273703535  W2        20803           0.0000000000
     62410     20804  TIP3      OH2            41.0513233595       37.4015177139        5.8424203535  W2        20804           0.0000000000
     62411     20804  TIP3      H1             40.3663133595       37.3634077139        5.1749303535  W2        20804           0.0000000000
     62412     20804  TIP3      H2             41.0550433595       38.3142777139        6.1306303535  W2        20804           0.0000000000
     62413     20805  TIP3      OH2            43.0112833595       23.3694477139        3.3873203535  W2        20805           0.0000000000
     62414     20805  TIP3      H1             43.5026233595       22.7396877139        2.8598703535  W2        20805           0.0000000000
     62415     20805  TIP3      H2             43.6349133595       23.6653877139        4.0504403535  W2        20805           0.0000000000
     62416     20806  TIP3      OH2            48.0372933595       23.6625977139        5.8443703535  W2        20806           0.0000000000
     62417     20806  TIP3      H1             48.2154233595       23.0159177139        6.5272303535  W2        20806           0.0000000000
     62418     20806  TIP3      H2             47.9839133595       24.4963677139        6.3114803535  W2        20806           0.0000000000
     62419     20807  TIP3      OH2            49.9156733595       38.6110077139        4.2400403535  W2        20807           0.0000000000
     62420     20807  TIP3      H1             50.7816933595       38.9777477139        4.0618603535  W2        20807           0.0000000000
     62421     20807  TIP3      H2             49.6689533595       38.1718077139        3.4261203535  W2        20807           0.0000000000
     62422     20808  TIP3      OH2            42.2718333595       22.1696777139       18.6589203535  W2        20808           0.0000000000
     62423     20808  TIP3      H1             41.9056533595       21.4039377139       19.1013903535  W2        20808           0.0000000000
     62424     20808  TIP3      H2             43.1846833595       22.1986977139       18.9454303535  W2        20808           0.0000000000
     62425     20809  TIP3      OH2            44.2449133595       21.5201177139       20.1946303535  W2        20809           0.0000000000
     62426     20809  TIP3      H1             45.1432733595       21.2461377139       20.0099703535  W2        20809           0.0000000000
     62427     20809  TIP3      H2             43.8582233595       20.7777177139       20.6588903535  W2        20809           0.0000000000
     62428     20810  TIP3      OH2            42.8694433595       38.3215977139        2.8676303535  W2        20810           0.0000000000
     62429     20810  TIP3      H1             42.6019033595       38.6078877139        3.7409403535  W2        20810           0.0000000000
     62430     20810  TIP3      H2             43.6407033595       37.7755177139        3.0198803535  W2        20810           0.0000000000
     62431     20811  TIP3      OH2            52.6661433595       20.8526477139       20.3769103535  W2        20811           0.0000000000
     62432     20811  TIP3      H1             52.7428633595       20.4267177139       21.2306803535  W2        20811           0.0000000000
     62433     20811  TIP3      H2             53.5598033595       20.8661177139       20.0342603535  W2        20811           0.0000000000
     62434     20812  TIP3      OH2           -42.8877066405       49.6677177139        9.1000503535  W2        20812           0.0000000000
     62435     20812  TIP3      H1            -42.7985966405       50.6115377139        8.9677603535  W2        20812           0.0000000000
     62436     20812  TIP3      H2            -43.5259466405       49.3923577139        8.4419903535  W2        20812           0.0000000000
     62437     20813  TIP3      OH2           -43.9545766405       48.9227877139       12.5188703535  W2        20813           0.0000000000
     62438     20813  TIP3      H1            -43.9928266405       48.2764177139       13.2238303535  W2        20813           0.0000000000
     62439     20813  TIP3      H2            -44.2769266405       48.4562277139       11.7477403535  W2        20813           0.0000000000
     62440     20814  TIP3      OH2           -51.5860766405       48.5369977139       14.1118603535  W2        20814           0.0000000000
     62441     20814  TIP3      H1            -51.5448666405       47.9113277139       14.8351003535  W2        20814           0.0000000000
     62442     20814  TIP3      H2            -50.8833066405       49.1608577139       14.2939003535  W2        20814           0.0000000000
     62443     20815  TIP3      OH2           -40.2485566405       51.8618277139       10.8203803535  W2        20815           0.0000000000
     62444     20815  TIP3      H1            -40.6892866405       51.1414277139       11.2709403535  W2        20815           0.0000000000
     62445     20815  TIP3      H2            -40.2615866405       52.5825477139       11.4501503535  W2        20815           0.0000000000
     62446     20816  TIP3      OH2           -50.6627666405       52.9868877139       12.6467703535  W2        20816           0.0000000000
     62447     20816  TIP3      H1            -51.0322466405       52.1849377139       12.2772003535  W2        20816           0.0000000000
     62448     20816  TIP3      H2            -49.7216566405       52.8183777139       12.6931103535  W2        20816           0.0000000000
     62449     20817  TIP3      OH2           -54.0527166405       46.6471477139        8.0396503535  W2        20817           0.0000000000
     62450     20817  TIP3      H1            -54.5003766405       47.4930177139        8.0213003535  W2        20817           0.0000000000
     62451     20817  TIP3      H2            -54.6135966405       46.0675677139        7.5241603535  W2        20817           0.0000000000
     62452     20818  TIP3      OH2           -53.3421066405       48.8091077139       10.1654503535  W2        20818           0.0000000000
     62453     20818  TIP3      H1            -53.1287566405       48.0392677139       10.6927503535  W2        20818           0.0000000000
     62454     20818  TIP3      H2            -52.6043466405       48.8987777139        9.5622103535  W2        20818           0.0000000000
     62455     20819  TIP3      OH2           -45.5651366405       51.3549277139       12.9249703535  W2        20819           0.0000000000
     62456     20819  TIP3      H1            -45.2613466405       50.6690677139       12.3303803535  W2        20819           0.0000000000
     62457     20819  TIP3      H2            -44.8437366405       51.4737977139       13.5427703535  W2        20819           0.0000000000
     62458     20820  TIP3      OH2           -36.9021566405       42.9564577139       13.7855903535  W2        20820           0.0000000000
     62459     20820  TIP3      H1            -36.8529366405       43.5665777139       14.5215003535  W2        20820           0.0000000000
     62460     20820  TIP3      H2            -36.4766466405       43.4175477139       13.0627003535  W2        20820           0.0000000000
     62461     20821  TIP3      OH2           -42.4244366405       45.7491677139       13.2524503535  W2        20821           0.0000000000
     62462     20821  TIP3      H1            -42.2818466405       44.8028677139       13.2726103535  W2        20821           0.0000000000
     62463     20821  TIP3      H2            -42.5305366405       45.9561477139       12.3239403535  W2        20821           0.0000000000
     62464     20822  TIP3      OH2           -49.2696066405       43.8508077139       10.5249303535  W2        20822           0.0000000000
     62465     20822  TIP3      H1            -49.2264966405       44.7106577139       10.1065603535  W2        20822           0.0000000000
     62466     20822  TIP3      H2            -49.7271966405       43.2982777139        9.8912503535  W2        20822           0.0000000000
     62467     20823  TIP3      OH2           -41.5473366405       43.9813677139        8.9257603535  W2        20823           0.0000000000
     62468     20823  TIP3      H1            -40.9009066405       43.6526877139        9.5505203535  W2        20823           0.0000000000
     62469     20823  TIP3      H2            -41.0373966405       44.4992677139        8.3029003535  W2        20823           0.0000000000
     62470     20824  TIP3      OH2           -52.6494566405       46.2473877139       11.2870703535  W2        20824           0.0000000000
     62471     20824  TIP3      H1            -51.9957966405       45.6975577139       11.7190803535  W2        20824           0.0000000000
     62472     20824  TIP3      H2            -52.6255266405       45.9732877139       10.3702703535  W2        20824           0.0000000000
     62473     20825  TIP3      OH2           -47.4930066405       47.7975177139       10.5022203535  W2        20825           0.0000000000
     62474     20825  TIP3      H1            -46.8769066405       47.2710577139       11.0116203535  W2        20825           0.0000000000
     62475     20825  TIP3      H2            -48.0791266405       47.1573877139       10.0985803535  W2        20825           0.0000000000
     62476     20826  TIP3      OH2           -36.5106966405       44.4343777139       16.0215703535  W2        20826           0.0000000000
     62477     20826  TIP3      H1            -37.1992366405       45.0924477139       15.9262303535  W2        20826           0.0000000000
     62478     20826  TIP3      H2            -36.4952366405       44.2371677139       16.9581103535  W2        20826           0.0000000000
     62479     20827  TIP3      OH2           -50.4594166405       42.7686477139       14.5990103535  W2        20827           0.0000000000
     62480     20827  TIP3      H1            -50.6782466405       43.2987077139       13.8326103535  W2        20827           0.0000000000
     62481     20827  TIP3      H2            -51.1273266405       42.9951977139       15.2461503535  W2        20827           0.0000000000
     62482     20828  TIP3      OH2           -43.0904366405       52.2687577139        8.1429203535  W2        20828           0.0000000000
     62483     20828  TIP3      H1            -43.3859266405       51.9459877139        7.2916103535  W2        20828           0.0000000000
     62484     20828  TIP3      H2            -43.4146566405       53.1684277139        8.1841803535  W2        20828           0.0000000000
     62485     20829  TIP3      OH2           -47.8902766405       50.4442177139       14.8863803535  W2        20829           0.0000000000
     62486     20829  TIP3      H1            -48.6303666405       51.0423677139       14.9899003535  W2        20829           0.0000000000
     62487     20829  TIP3      H2            -47.1763266405       50.9981777139       14.5707403535  W2        20829           0.0000000000
     62488     20830  TIP3      OH2           -39.7834966405       43.2722977139       10.9063503535  W2        20830           0.0000000000
     62489     20830  TIP3      H1            -39.9986966405       42.5066377139       11.4389503535  W2        20830           0.0000000000
     62490     20830  TIP3      H2            -39.1277566405       43.7447577139       11.4192003535  W2        20830           0.0000000000
     62491     20831  TIP3      OH2           -50.8656866405       44.6608277139       12.5512303535  W2        20831           0.0000000000
     62492     20831  TIP3      H1            -50.2520566405       45.2935877139       12.9244703535  W2        20831           0.0000000000
     62493     20831  TIP3      H2            -50.3536166405       44.1883277139       11.8949203535  W2        20831           0.0000000000
     62494     20832  TIP3      OH2           -49.4828466405       52.4085177139       15.6735303535  W2        20832           0.0000000000
     62495     20832  TIP3      H1            -49.4880866405       53.2878677139       15.2954603535  W2        20832           0.0000000000
     62496     20832  TIP3      H2            -50.3364366405       52.3249277139       16.0985203535  W2        20832           0.0000000000
     62497     20833  TIP3      OH2           -53.3617566405       52.0793077139        6.4554603535  W2        20833           0.0000000000
     62498     20833  TIP3      H1            -53.6336666405       52.3084077139        5.5667503535  W2        20833           0.0000000000
     62499     20833  TIP3      H2            -53.3161866405       52.9171877139        6.9159903535  W2        20833           0.0000000000
     62500     20834  TIP3      OH2           -39.7367866405       53.7008977139       13.1683103535  W2        20834           0.0000000000
     62501     20834  TIP3      H1            -40.6784166405       53.7592877139       13.3300003535  W2        20834           0.0000000000
     62502     20834  TIP3      H2            -39.4601766405       54.6069477139       13.0312803535  W2        20834           0.0000000000
     62503     20835  TIP3      OH2           -39.4360866405       41.9874277139       14.5857003535  W2        20835           0.0000000000
     62504     20835  TIP3      H1            -40.1721666405       42.5981377139       14.5478303535  W2        20835           0.0000000000
     62505     20835  TIP3      H2            -38.7526866405       42.4023277139       14.0593403535  W2        20835           0.0000000000
     62506     20836  TIP3      OH2           -46.4329466405       40.0741577139       12.0515003535  W2        20836           0.0000000000
     62507     20836  TIP3      H1            -46.5505266405       39.1257577139       11.9973303535  W2        20836           0.0000000000
     62508     20836  TIP3      H2            -47.2879366405       40.4067677139       12.3246103535  W2        20836           0.0000000000
     62509     20837  TIP3      OH2           -40.3250166405       53.3830977139        8.3021303535  W2        20837           0.0000000000
     62510     20837  TIP3      H1            -40.5825366405       52.6931077139        7.6907203535  W2        20837           0.0000000000
     62511     20837  TIP3      H2            -40.2539366405       52.9402177139        9.1477203535  W2        20837           0.0000000000
     62512     20838  TIP3      OH2           -38.6389966405       51.9497677139       16.7794803535  W2        20838           0.0000000000
     62513     20838  TIP3      H1            -38.4993666405       51.3580177139       16.0401803535  W2        20838           0.0000000000
     62514     20838  TIP3      H2            -38.4717166405       52.8223577139       16.4233603535  W2        20838           0.0000000000
     62515     20839  TIP3      OH2           -44.1664566405       48.9117177139        6.5520803535  W2        20839           0.0000000000
     62516     20839  TIP3      H1            -44.8779066405       49.4466877139        6.2001303535  W2        20839           0.0000000000
     62517     20839  TIP3      H2            -43.4754966405       48.9669277139        5.8919703535  W2        20839           0.0000000000
     62518     20840  TIP3      OH2           -44.1125366405       47.3691477139        3.5905803535  W2        20840           0.0000000000
     62519     20840  TIP3      H1            -43.4115466405       47.3918377139        4.2419803535  W2        20840           0.0000000000
     62520     20840  TIP3      H2            -43.8102466405       46.7411177139        2.9345103535  W2        20840           0.0000000000
     62521     20841  TIP3      OH2           -36.7970666405       48.2895677139       14.8455203535  W2        20841           0.0000000000
     62522     20841  TIP3      H1            -37.4496566405       48.9841277139       14.9346103535  W2        20841           0.0000000000
     62523     20841  TIP3      H2            -36.3320366405       48.4996577139       14.0356803535  W2        20841           0.0000000000
     62524     20842  TIP3      OH2           -40.7606866405       49.1210477139        7.5036703535  W2        20842           0.0000000000
     62525     20842  TIP3      H1            -41.4925866405       49.3494177139        8.0767303535  W2        20842           0.0000000000
     62526     20842  TIP3      H2            -40.3134666405       48.4073177139        7.9584203535  W2        20842           0.0000000000
     62527     20843  TIP3      OH2           -40.8633366405       47.2953077139       16.5713703535  W2        20843           0.0000000000
     62528     20843  TIP3      H1            -40.7834266405       48.0587477139       17.1432203535  W2        20843           0.0000000000
     62529     20843  TIP3      H2            -41.4645666405       47.5745477139       15.8808803535  W2        20843           0.0000000000
     62530     20844  TIP3      OH2           -49.1153166405       49.7516677139        9.3861703535  W2        20844           0.0000000000
     62531     20844  TIP3      H1            -49.4457966405       49.3810077139        8.5678703535  W2        20844           0.0000000000
     62532     20844  TIP3      H2            -48.5269066405       49.0810677139        9.7330003535  W2        20844           0.0000000000
     62533     20845  TIP3      OH2           -47.7485666405       53.1797277139       12.0673903535  W2        20845           0.0000000000
     62534     20845  TIP3      H1            -47.8434366405       52.6010377139       11.3108503535  W2        20845           0.0000000000
     62535     20845  TIP3      H2            -47.0192066405       52.8082977139       12.5636703535  W2        20845           0.0000000000
     62536     20846  TIP3      OH2           -48.7487666405       48.5202277139       13.0196703535  W2        20846           0.0000000000
     62537     20846  TIP3      H1            -48.1835166405       48.6416477139       12.2567903535  W2        20846           0.0000000000
     62538     20846  TIP3      H2            -48.4298766405       49.1577277139       13.6585203535  W2        20846           0.0000000000
     62539     20847  TIP3      OH2           -42.4395466405       54.0234177139       13.7537203535  W2        20847           0.0000000000
     62540     20847  TIP3      H1            -42.6798866405       54.6857277139       14.4016403535  W2        20847           0.0000000000
     62541     20847  TIP3      H2            -42.6377266405       53.1889377139       14.1786803535  W2        20847           0.0000000000
     62542     20848  TIP3      OH2           -47.8686966405       52.9194977139       17.7368603535  W2        20848           0.0000000000
     62543     20848  TIP3      H1            -48.1799466405       53.7018177139       18.1921803535  W2        20848           0.0000000000
     62544     20848  TIP3      H2            -48.5186766405       52.7664077139       17.0510603535  W2        20848           0.0000000000
     62545     20849  TIP3      OH2           -41.8897366405       48.2833377139        5.1887903535  W2        20849           0.0000000000
     62546     20849  TIP3      H1            -41.3101866405       48.4333677139        5.9356803535  W2        20849           0.0000000000
     62547     20849  TIP3      H2            -41.4757366405       48.7540777139        4.4654303535  W2        20849           0.0000000000
     62548     20850  TIP3      OH2           -50.9487066405       49.1176077139       16.9654303535  W2        20850           0.0000000000
     62549     20850  TIP3      H1            -50.8783866405       49.7682877139       17.6639303535  W2        20850           0.0000000000
     62550     20850  TIP3      H2            -51.8394866405       49.2203577139       16.6305203535  W2        20850           0.0000000000
     62551     20851  TIP3      OH2           -49.6291066405       54.9909977139       18.5002403535  W2        20851           0.0000000000
     62552     20851  TIP3      H1            -49.6215766405       54.8549677139       17.5527903535  W2        20851           0.0000000000
     62553     20851  TIP3      H2            -50.5450666405       54.8738077139       18.7522403535  W2        20851           0.0000000000
     62554     20852  TIP3      OH2           -38.1908966405       40.0333777139        5.0017603535  W2        20852           0.0000000000
     62555     20852  TIP3      H1            -39.0908266405       40.1722777139        5.2968203535  W2        20852           0.0000000000
     62556     20852  TIP3      H2            -37.9390566405       40.8648377139        4.5999303535  W2        20852           0.0000000000
     62557     20853  TIP3      OH2           -50.1250466405       48.8210977139        6.9754503535  W2        20853           0.0000000000
     62558     20853  TIP3      H1            -50.4169166405       49.5892677139        6.4845803535  W2        20853           0.0000000000
     62559     20853  TIP3      H2            -50.7995266405       48.1617177139        6.8125903535  W2        20853           0.0000000000
     62560     20854  TIP3      OH2           -37.0017566405       54.3996177139        3.3781503535  W2        20854           0.0000000000
     62561     20854  TIP3      H1            -36.9284066405       55.3386377139        3.5486803535  W2        20854           0.0000000000
     62562     20854  TIP3      H2            -36.0962466405       54.0944777139        3.3218803535  W2        20854           0.0000000000
     62563     20855  TIP3      OH2           -54.0320366405       51.1840177139       15.7904303535  W2        20855           0.0000000000
     62564     20855  TIP3      H1            -54.5331966405       51.1559577139       14.9754003535  W2        20855           0.0000000000
     62565     20855  TIP3      H2            -54.0266666405       50.2783377139       16.1001603535  W2        20855           0.0000000000
     62566     20856  TIP3      OH2           -54.2817666405       53.9643977139       12.6744503535  W2        20856           0.0000000000
     62567     20856  TIP3      H1            -53.3357066405       53.8200977139       12.6554003535  W2        20856           0.0000000000
     62568     20856  TIP3      H2            -54.3941366405       54.7486777139       13.2115703535  W2        20856           0.0000000000
     62569     20857  TIP3      OH2           -36.0839166405       54.6303677139       18.3568203535  W2        20857           0.0000000000
     62570     20857  TIP3      H1            -36.1332366405       53.6751777139       18.3195803535  W2        20857           0.0000000000
     62571     20857  TIP3      H2            -36.9106866405       54.8978977139       18.7582003535  W2        20857           0.0000000000
     62572     20858  TIP3      OH2           -45.1055166405       54.2042877139       17.2329603535  W2        20858           0.0000000000
     62573     20858  TIP3      H1            -45.0180566405       55.0307477139       17.7078703535  W2        20858           0.0000000000
     62574     20858  TIP3      H2            -45.9690066405       53.8746677139       17.4818903535  W2        20858           0.0000000000
     62575     20859  TIP3      OH2           -38.9319366405       46.1236177139       18.8370403535  W2        20859           0.0000000000
     62576     20859  TIP3      H1            -39.3392566405       46.6041777139       18.1163703535  W2        20859           0.0000000000
     62577     20859  TIP3      H2            -38.8913666405       45.2182177139       18.5291203535  W2        20859           0.0000000000
     62578     20860  TIP3      OH2           -51.7829866405       52.5075577139       16.8337103535  W2        20860           0.0000000000
     62579     20860  TIP3      H1            -51.5668566405       52.1461177139       17.6932903535  W2        20860           0.0000000000
     62580     20860  TIP3      H2            -52.6385166405       52.1329377139       16.6240603535  W2        20860           0.0000000000
     62581     20861  TIP3      OH2           -49.1641866405       40.9776077139       12.8291303535  W2        20861           0.0000000000
     62582     20861  TIP3      H1            -50.0258166405       40.8904277139       12.4214203535  W2        20861           0.0000000000
     62583     20861  TIP3      H2            -49.1866166405       41.8336177139       13.2568903535  W2        20861           0.0000000000
     62584     20862  TIP3      OH2           -44.5014066405       40.6996477139       16.2038303535  W2        20862           0.0000000000
     62585     20862  TIP3      H1            -44.0810966405       40.2843577139       16.9568903535  W2        20862           0.0000000000
     62586     20862  TIP3      H2            -45.4344466405       40.5209777139       16.3210303535  W2        20862           0.0000000000
     62587     20863  TIP3      OH2           -41.1749166405       44.4551677139       17.0572803535  W2        20863           0.0000000000
     62588     20863  TIP3      H1            -41.6889666405       44.3293877139       17.8548803535  W2        20863           0.0000000000
     62589     20863  TIP3      H2            -41.3304466405       45.3674777139       16.8129003535  W2        20863           0.0000000000
     62590     20864  TIP3      OH2           -40.4124266405       49.3161677139        2.8185803535  W2        20864           0.0000000000
     62591     20864  TIP3      H1            -40.3703466405       49.0935577139        1.8885803535  W2        20864           0.0000000000
     62592     20864  TIP3      H2            -39.5632166405       49.7148777139        3.0085703535  W2        20864           0.0000000000
     62593     20865  TIP3      OH2           -44.8396766405       43.1919877139        3.4889103535  W2        20865           0.0000000000
     62594     20865  TIP3      H1            -45.0931966405       43.2111477139        4.4117203535  W2        20865           0.0000000000
     62595     20865  TIP3      H2            -45.0964666405       42.3205277139        3.1875303535  W2        20865           0.0000000000
     62596     20866  TIP3      OH2           -49.0731766405       45.9430577139       13.9241503535  W2        20866           0.0000000000
     62597     20866  TIP3      H1            -49.7149666405       45.9027877139       14.6331603535  W2        20866           0.0000000000
     62598     20866  TIP3      H2            -49.0359766405       46.8695277139       13.6864503535  W2        20866           0.0000000000
     62599     20867  TIP3      OH2           -49.0762666405       46.1640677139        8.8361503535  W2        20867           0.0000000000
     62600     20867  TIP3      H1            -49.9689766405       45.8236777139        8.7775303535  W2        20867           0.0000000000
     62601     20867  TIP3      H2            -48.6256066405       45.7871577139        8.0804703535  W2        20867           0.0000000000
     62602     20868  TIP3      OH2           -43.5407166405       46.5800977139        7.6532303535  W2        20868           0.0000000000
     62603     20868  TIP3      H1            -43.9496866405       47.3949577139        7.3617103535  W2        20868           0.0000000000
     62604     20868  TIP3      H2            -42.8200966405       46.4401077139        7.0389403535  W2        20868           0.0000000000
     62605     20869  TIP3      OH2           -44.4385566405       46.7557377139       19.1413003535  W2        20869           0.0000000000
     62606     20869  TIP3      H1            -45.0011766405       46.0508977139       19.4620803535  W2        20869           0.0000000000
     62607     20869  TIP3      H2            -43.6122166405       46.6349277139       19.6090603535  W2        20869           0.0000000000
     62608     20870  TIP3      OH2           -42.5359466405       46.0261377139       10.4672003535  W2        20870           0.0000000000
     62609     20870  TIP3      H1            -42.7314966405       46.6318177139        9.7522603535  W2        20870           0.0000000000
     62610     20870  TIP3      H2            -42.3546866405       45.1926577139       10.0328303535  W2        20870           0.0000000000
     62611     20871  TIP3      OH2           -51.3231266405       46.2634077139       15.7913503535  W2        20871           0.0000000000
     62612     20871  TIP3      H1            -51.3611866405       46.6635677139       16.6600603535  W2        20871           0.0000000000
     62613     20871  TIP3      H2            -51.8140166405       45.4466477139       15.8816403535  W2        20871           0.0000000000
     62614     20872  TIP3      OH2           -47.9573866405       43.6376377139        2.5899503535  W2        20872           0.0000000000
     62615     20872  TIP3      H1            -48.3883166405       43.1926477139        3.3196903535  W2        20872           0.0000000000
     62616     20872  TIP3      H2            -48.6755166405       44.0092677139        2.0777003535  W2        20872           0.0000000000
     62617     20873  TIP3      OH2           -54.7150466405       43.3795877139        9.6418203535  W2        20873           0.0000000000
     62618     20873  TIP3      H1            -54.0842766405       43.3507977139       10.3612103535  W2        20873           0.0000000000
     62619     20873  TIP3      H2            -54.2656166405       42.9544577139        8.9114103535  W2        20873           0.0000000000
     62620     20874  TIP3      OH2           -53.4408366405       44.1257877139        5.0658603535  W2        20874           0.0000000000
     62621     20874  TIP3      H1            -52.9666666405       44.7167777139        4.4809503535  W2        20874           0.0000000000
     62622     20874  TIP3      H2            -54.1581966405       44.6560777139        5.4128703535  W2        20874           0.0000000000
     62623     20875  TIP3      OH2           -43.2720266405       47.6642677139       15.1384403535  W2        20875           0.0000000000
     62624     20875  TIP3      H1            -42.9485466405       47.0332377139       14.4954903535  W2        20875           0.0000000000
     62625     20875  TIP3      H2            -43.7120966405       47.1294877139       15.7991803535  W2        20875           0.0000000000
     62626     20876  TIP3      OH2           -46.4947366405       43.5918177139        9.9225603535  W2        20876           0.0000000000
     62627     20876  TIP3      H1            -47.4056266405       43.6484977139       10.2111603535  W2        20876           0.0000000000
     62628     20876  TIP3      H2            -45.9894466405       43.5313677139       10.7332803535  W2        20876           0.0000000000
     62629     20877  TIP3      OH2           -51.6663966405       45.2204477139        8.7493203535  W2        20877           0.0000000000
     62630     20877  TIP3      H1            -52.5555966405       45.3199977139        8.4092803535  W2        20877           0.0000000000
     62631     20877  TIP3      H2            -51.3699066405       44.3787477139        8.4031103535  W2        20877           0.0000000000
     62632     20878  TIP3      OH2           -48.0132166405       45.2207077139        6.4057803535  W2        20878           0.0000000000
     62633     20878  TIP3      H1            -47.0816666405       45.3497077139        6.5840903535  W2        20878           0.0000000000
     62634     20878  TIP3      H2            -48.2281866405       45.8901377139        5.7562503535  W2        20878           0.0000000000
     62635     20879  TIP3      OH2           -42.0895466405       42.8264477139       13.1867403535  W2        20879           0.0000000000
     62636     20879  TIP3      H1            -42.7663866405       42.9577577139       13.8507103535  W2        20879           0.0000000000
     62637     20879  TIP3      H2            -42.5750566405       42.6713977139       12.3765103535  W2        20879           0.0000000000
     62638     20880  TIP3      OH2           -49.3391966405       46.4149277139        3.9723903535  W2        20880           0.0000000000
     62639     20880  TIP3      H1            -49.8816866405       46.0353077139        3.2811503535  W2        20880           0.0000000000
     62640     20880  TIP3      H2            -48.5057066405       46.6093977139        3.5438003535  W2        20880           0.0000000000
     62641     20881  TIP3      OH2           -51.2040566405       50.9721177139       19.0715503535  W2        20881           0.0000000000
     62642     20881  TIP3      H1            -50.4718166405       51.2267077139       19.6330003535  W2        20881           0.0000000000
     62643     20881  TIP3      H2            -51.9841866405       51.1766577139       19.5870903535  W2        20881           0.0000000000
     62644     20882  TIP3      OH2           -45.1747666405       46.3791177139       11.8095203535  W2        20882           0.0000000000
     62645     20882  TIP3      H1            -44.6104266405       45.8327777139       11.2624803535  W2        20882           0.0000000000
     62646     20882  TIP3      H2            -45.3224266405       45.8573077139       12.5982803535  W2        20882           0.0000000000
     62647     20883  TIP3      OH2           -50.1727966405       42.5157277139        8.2280003535  W2        20883           0.0000000000
     62648     20883  TIP3      H1            -50.4898466405       41.6132577139        8.1925403535  W2        20883           0.0000000000
     62649     20883  TIP3      H2            -49.3913866405       42.5174677139        7.6751603535  W2        20883           0.0000000000
     62650     20884  TIP3      OH2           -46.5481766405       44.7677277139       14.2235603535  W2        20884           0.0000000000
     62651     20884  TIP3      H1            -47.3836466405       45.2216777139       14.3338003535  W2        20884           0.0000000000
     62652     20884  TIP3      H2            -46.0241166405       45.0435777139       14.9755503535  W2        20884           0.0000000000
     62653     20885  TIP3      OH2           -46.0039166405       50.9804977139        5.9082003535  W2        20885           0.0000000000
     62654     20885  TIP3      H1            -46.7488166405       50.4730277139        5.5859903535  W2        20885           0.0000000000
     62655     20885  TIP3      H2            -46.1381966405       51.0292977139        6.8546803535  W2        20885           0.0000000000
     62656     20886  TIP3      OH2           -38.8540266405       50.1133177139       14.6949603535  W2        20886           0.0000000000
     62657     20886  TIP3      H1            -38.2121466405       50.5699477139       14.1511803535  W2        20886           0.0000000000
     62658     20886  TIP3      H2            -39.6843366405       50.2265577139       14.2323703535  W2        20886           0.0000000000
     62659     20887  TIP3      OH2           -42.1062366405       43.7944877139        4.1074603535  W2        20887           0.0000000000
     62660     20887  TIP3      H1            -43.0448166405       43.9060477139        3.9563403535  W2        20887           0.0000000000
     62661     20887  TIP3      H2            -41.8090266405       44.6511777139        4.4140303535  W2        20887           0.0000000000
     62662     20888  TIP3      OH2           -44.4847066405       51.1648277139       17.1451103535  W2        20888           0.0000000000
     62663     20888  TIP3      H1            -44.8300966405       50.7830677139       17.9520703535  W2        20888           0.0000000000
     62664     20888  TIP3      H2            -44.6846966405       52.0981877139       17.2164003535  W2        20888           0.0000000000
     62665     20889  TIP3      OH2           -41.3878866405       45.6617577139        5.7682003535  W2        20889           0.0000000000
     62666     20889  TIP3      H1            -40.4959866405       45.5242577139        6.0873203535  W2        20889           0.0000000000
     62667     20889  TIP3      H2            -41.3315266405       46.4523677139        5.2315503535  W2        20889           0.0000000000
     62668     20890  TIP3      OH2           -50.8790866405       50.2754977139       11.6779903535  W2        20890           0.0000000000
     62669     20890  TIP3      H1            -50.1343666405       50.2730677139       11.0766403535  W2        20890           0.0000000000
     62670     20890  TIP3      H2            -50.8014266405       49.4518777139       12.1595003535  W2        20890           0.0000000000
     62671     20891  TIP3      OH2           -43.8785066405       52.4389277139        4.9336603535  W2        20891           0.0000000000
     62672     20891  TIP3      H1            -44.1736666405       53.2657177139        5.3151403535  W2        20891           0.0000000000
     62673     20891  TIP3      H2            -44.5815066405       51.8196177139        5.1298003535  W2        20891           0.0000000000
     62674     20892  TIP3      OH2           -53.8711166405       48.7361877139       16.9928403535  W2        20892           0.0000000000
     62675     20892  TIP3      H1            -53.6482566405       48.3181477139       17.8245903535  W2        20892           0.0000000000
     62676     20892  TIP3      H2            -54.4731066405       48.1236877139       16.5701203535  W2        20892           0.0000000000
     62677     20893  TIP3      OH2           -46.8546266405       48.2531777139       19.2058103535  W2        20893           0.0000000000
     62678     20893  TIP3      H1            -47.1505466405       48.0874777139       18.3107203535  W2        20893           0.0000000000
     62679     20893  TIP3      H2            -45.9231066405       48.0332077139       19.1952003535  W2        20893           0.0000000000
     62680     20894  TIP3      OH2           -42.2343466405       53.6263777139       17.0956103535  W2        20894           0.0000000000
     62681     20894  TIP3      H1            -43.1349166405       53.8096377139       16.8280003535  W2        20894           0.0000000000
     62682     20894  TIP3      H2            -42.2002366405       53.8853077139       18.0164903535  W2        20894           0.0000000000
     62683     20895  TIP3      OH2           -36.5030166405       45.8711677139        5.4628703535  W2        20895           0.0000000000
     62684     20895  TIP3      H1            -37.0573866405       45.4749677139        4.7906203535  W2        20895           0.0000000000
     62685     20895  TIP3      H2            -36.4026566405       46.7816877139        5.1852003535  W2        20895           0.0000000000
     62686     20896  TIP3      OH2           -36.5398166405       51.6713377139       18.3000203535  W2        20896           0.0000000000
     62687     20896  TIP3      H1            -37.3909666405       51.9097177139       17.9326603535  W2        20896           0.0000000000
     62688     20896  TIP3      H2            -35.9494766405       51.6546577139       17.5467303535  W2        20896           0.0000000000
     62689     20897  TIP3      OH2           -38.2078466405       54.6572077139        5.9280803535  W2        20897           0.0000000000
     62690     20897  TIP3      H1            -38.5807366405       53.8315877139        6.2371403535  W2        20897           0.0000000000
     62691     20897  TIP3      H2            -37.9304966405       54.4741477139        5.0304203535  W2        20897           0.0000000000
     62692     20898  TIP3      OH2           -41.0474566405       49.4651577139       12.9492703535  W2        20898           0.0000000000
     62693     20898  TIP3      H1            -41.9757666405       49.2333477139       12.9222003535  W2        20898           0.0000000000
     62694     20898  TIP3      H2            -40.5963466405       48.6881377139       12.6191503535  W2        20898           0.0000000000
     62695     20899  TIP3      OH2           -48.5041466405       53.7933177139        9.0821403535  W2        20899           0.0000000000
     62696     20899  TIP3      H1            -47.9769266405       54.5667577139        8.8820203535  W2        20899           0.0000000000
     62697     20899  TIP3      H2            -49.3842966405       54.0182377139        8.7805403535  W2        20899           0.0000000000
     62698     20900  TIP3      OH2           -52.7493766405       48.6557277139        3.6693803535  W2        20900           0.0000000000
     62699     20900  TIP3      H1            -52.1333866405       49.2824477139        4.0488603535  W2        20900           0.0000000000
     62700     20900  TIP3      H2            -53.6111166405       48.9717077139        3.9410303535  W2        20900           0.0000000000
     62701     20901  TIP3      OH2           -47.0769166405       51.4563077139        8.6585703535  W2        20901           0.0000000000
     62702     20901  TIP3      H1            -47.3179166405       52.3817477139        8.7001003535  W2        20901           0.0000000000
     62703     20901  TIP3      H2            -47.8175566405       50.9974377139        9.0549603535  W2        20901           0.0000000000
     62704     20902  TIP3      OH2           -43.0181766405       51.7047377139       14.6742403535  W2        20902           0.0000000000
     62705     20902  TIP3      H1            -43.4440466405       51.4769077139       15.5006403535  W2        20902           0.0000000000
     62706     20902  TIP3      H2            -42.4375966405       50.9659177139       14.4917703535  W2        20902           0.0000000000
     62707     20903  TIP3      OH2           -40.8152866405       52.6337877139        3.7481403535  W2        20903           0.0000000000
     62708     20903  TIP3      H1            -40.4619766405       52.2537677139        4.5524903535  W2        20903           0.0000000000
     62709     20903  TIP3      H2            -41.7639366405       52.5402677139        3.8350703535  W2        20903           0.0000000000
     62710     20904  TIP3      OH2           -52.2371666405       43.4894577139       16.5509803535  W2        20904           0.0000000000
     62711     20904  TIP3      H1            -53.1299366405       43.8279977139       16.4833803535  W2        20904           0.0000000000
     62712     20904  TIP3      H2            -52.3358866405       42.6340677139       16.9690603535  W2        20904           0.0000000000
     62713     20905  TIP3      OH2           -39.9493566405       51.3059877139        5.9749303535  W2        20905           0.0000000000
     62714     20905  TIP3      H1            -40.2265966405       50.5779177139        6.5310403535  W2        20905           0.0000000000
     62715     20905  TIP3      H2            -39.0220566405       51.4251877139        6.1801903535  W2        20905           0.0000000000
     62716     20906  TIP3      OH2           -46.7245066405       53.7453977139        2.1951403535  W2        20906           0.0000000000
     62717     20906  TIP3      H1            -46.4855266405       52.9972077139        1.6480303535  W2        20906           0.0000000000
     62718     20906  TIP3      H2            -46.9933766405       53.3575677139        3.0279203535  W2        20906           0.0000000000
     62719     20907  TIP3      OH2           -47.7874466405       53.3157777139        4.6514003535  W2        20907           0.0000000000
     62720     20907  TIP3      H1            -47.6406466405       52.7957577139        5.4414903535  W2        20907           0.0000000000
     62721     20907  TIP3      H2            -47.7902766405       54.2225377139        4.9579903535  W2        20907           0.0000000000
     62722     20908  TIP3      OH2           -51.3343366405       50.5681077139        5.1619403535  W2        20908           0.0000000000
     62723     20908  TIP3      H1            -52.0204066405       50.9203577139        5.7289103535  W2        20908           0.0000000000
     62724     20908  TIP3      H2            -50.8115466405       51.3310677139        4.9153703535  W2        20908           0.0000000000
     62725     20909  TIP3      OH2           -43.5028266405       43.2304877139       15.4408403535  W2        20909           0.0000000000
     62726     20909  TIP3      H1            -42.8040366405       43.3043577139       16.0908103535  W2        20909           0.0000000000
     62727     20909  TIP3      H2            -43.8836866405       42.3659877139       15.5951303535  W2        20909           0.0000000000
     62728     20910  TIP3      OH2           -42.7183366405       42.8826577139        6.5380703535  W2        20910           0.0000000000
     62729     20910  TIP3      H1            -42.4985066405       43.3541977139        5.7346103535  W2        20910           0.0000000000
     62730     20910  TIP3      H2            -42.1599366405       43.2769177139        7.2081303535  W2        20910           0.0000000000
     62731     20911  TIP3      OH2           -45.5183466405       44.6105377139        7.3729103535  W2        20911           0.0000000000
     62732     20911  TIP3      H1            -44.7060866405       45.1148577139        7.4190803535  W2        20911           0.0000000000
     62733     20911  TIP3      H2            -45.7630466405       44.4655077139        8.2868703535  W2        20911           0.0000000000
     62734     20912  TIP3      OH2           -44.9827066405       45.5968077139       16.5575703535  W2        20912           0.0000000000
     62735     20912  TIP3      H1            -44.8636766405       46.1703477139       17.3146103535  W2        20912           0.0000000000
     62736     20912  TIP3      H2            -44.3272466405       44.9087477139       16.6723503535  W2        20912           0.0000000000
     62737     20913  TIP3      OH2           -44.6346766405       41.6918377139        8.3110203535  W2        20913           0.0000000000
     62738     20913  TIP3      H1            -44.9813266405       42.3088977139        8.9554503535  W2        20913           0.0000000000
     62739     20913  TIP3      H2            -43.9759866405       42.1924077139        7.8295703535  W2        20913           0.0000000000
     62740     20914  TIP3      OH2           -48.9769766405       42.7547777139        4.9982703535  W2        20914           0.0000000000
     62741     20914  TIP3      H1            -49.0604966405       43.6430877139        5.3449103535  W2        20914           0.0000000000
     62742     20914  TIP3      H2            -48.0869466405       42.4894477139        5.2299503535  W2        20914           0.0000000000
     62743     20915  TIP3      OH2           -38.7781266405       43.5038377139       17.3925403535  W2        20915           0.0000000000
     62744     20915  TIP3      H1            -39.6945466405       43.7660077139       17.3049103535  W2        20915           0.0000000000
     62745     20915  TIP3      H2            -38.4426266405       43.5007377139       16.4960703535  W2        20915           0.0000000000
     62746     20916  TIP3      OH2           -40.1760266405       47.2539377139       11.4882703535  W2        20916           0.0000000000
     62747     20916  TIP3      H1            -40.9735866405       46.8389577139       11.1597703535  W2        20916           0.0000000000
     62748     20916  TIP3      H2            -39.7309166405       46.5633077139       11.9793203535  W2        20916           0.0000000000
     62749     20917  TIP3      OH2           -50.7184466405       53.1819977139        4.0587203535  W2        20917           0.0000000000
     62750     20917  TIP3      H1            -50.1262966405       53.8814777139        4.3349603535  W2        20917           0.0000000000
     62751     20917  TIP3      H2            -50.2591466405       52.7489477139        3.3391803535  W2        20917           0.0000000000
     62752     20918  TIP3      OH2           -52.4025266405       45.8462977139        3.1746603535  W2        20918           0.0000000000
     62753     20918  TIP3      H1            -52.4472666405       46.7856077139        3.3533603535  W2        20918           0.0000000000
     62754     20918  TIP3      H2            -53.2902066405       45.6107877139        2.9048703535  W2        20918           0.0000000000
     62755     20919  TIP3      OH2           -51.5943266405       40.6279577139       11.8477603535  W2        20919           0.0000000000
     62756     20919  TIP3      H1            -51.8233466405       40.6872077139       10.9202603535  W2        20919           0.0000000000
     62757     20919  TIP3      H2            -52.0369866405       39.8365077139       12.1541703535  W2        20919           0.0000000000
     62758     20920  TIP3      OH2           -52.6639966405       54.5686677139        8.0083403535  W2        20920           0.0000000000
     62759     20920  TIP3      H1            -53.4961366405       55.0409377139        8.0354803535  W2        20920           0.0000000000
     62760     20920  TIP3      H2            -52.1181666405       55.0784277139        7.4096503535  W2        20920           0.0000000000
     62761     20921  TIP3      OH2           -42.2014166405       54.4805877139       19.6877103535  W2        20921           0.0000000000
     62762     20921  TIP3      H1            -42.5524666405       53.6238877139       19.9307503535  W2        20921           0.0000000000
     62763     20921  TIP3      H2            -41.4750966405       54.6232577139       20.2946103535  W2        20921           0.0000000000
     62764     20922  TIP3      OH2           -53.4686766405       50.9914477139       20.2925703535  W2        20922           0.0000000000
     62765     20922  TIP3      H1            -53.3246266405       50.0895177139       20.0062403535  W2        20922           0.0000000000
     62766     20922  TIP3      H2            -54.2409366405       51.2776577139       19.8048003535  W2        20922           0.0000000000
     62767     20923  TIP3      OH2           -49.1273066405       51.3350177139        2.4250303535  W2        20923           0.0000000000
     62768     20923  TIP3      H1            -49.0628966405       50.5409777139        2.9556703535  W2        20923           0.0000000000
     62769     20923  TIP3      H2            -48.4743866405       51.2162977139        1.7352303535  W2        20923           0.0000000000
     62770     20924  TIP3      OH2           -46.8130666405       50.9612577139       19.7252103535  W2        20924           0.0000000000
     62771     20924  TIP3      H1            -47.1416866405       51.2320677139       18.8679503535  W2        20924           0.0000000000
     62772     20924  TIP3      H2            -46.6612466405       50.0202377139       19.6377103535  W2        20924           0.0000000000
     62773     20925  TIP3      OH2           -43.7749666405       52.3821877139        2.1608303535  W2        20925           0.0000000000
     62774     20925  TIP3      H1            -44.0435566405       52.5623977139        3.0617203535  W2        20925           0.0000000000
     62775     20925  TIP3      H2            -43.9814066405       51.4568077139        2.0294103535  W2        20925           0.0000000000
     62776     20926  TIP3      OH2           -41.0785466405       50.8769877139       17.1084403535  W2        20926           0.0000000000
     62777     20926  TIP3      H1            -40.3330666405       51.4653577139       16.9888403535  W2        20926           0.0000000000
     62778     20926  TIP3      H2            -41.8358666405       51.4589577139       17.1717503535  W2        20926           0.0000000000
     62779     20927  TIP3      OH2           -52.6360266405       48.1917777139       19.7125003535  W2        20927           0.0000000000
     62780     20927  TIP3      H1            -52.2279066405       47.3344377139       19.5915603535  W2        20927           0.0000000000
     62781     20927  TIP3      H2            -52.8962666405       48.2059077139       20.6335303535  W2        20927           0.0000000000
     62782     20928  TIP3      OH2           -47.9779266405       49.3076377139        4.7308303535  W2        20928           0.0000000000
     62783     20928  TIP3      H1            -48.4377266405       48.8234677139        5.4166803535  W2        20928           0.0000000000
     62784     20928  TIP3      H2            -47.7230566405       48.6391777139        4.0948803535  W2        20928           0.0000000000
     62785     20929  TIP3      OH2           -48.6889966405       47.2003477139       17.0867903535  W2        20929           0.0000000000
     62786     20929  TIP3      H1            -49.3073866405       47.8750077139       17.3672603535  W2        20929           0.0000000000
     62787     20929  TIP3      H2            -48.3448766405       47.5217377139       16.2534103535  W2        20929           0.0000000000
     62788     20930  TIP3      OH2           -46.9068866405       47.5508177139        2.9931503535  W2        20930           0.0000000000
     62789     20930  TIP3      H1            -47.0873866405       47.3959377139        2.0659803535  W2        20930           0.0000000000
     62790     20930  TIP3      H2            -45.9568366405       47.6586877139        3.0379403535  W2        20930           0.0000000000
     62791     20931  TIP3      OH2           -43.6691766405       49.6718777139       20.3642703535  W2        20931           0.0000000000
     62792     20931  TIP3      H1            -42.7160566405       49.7557877139       20.3368703535  W2        20931           0.0000000000
     62793     20931  TIP3      H2            -43.8297166405       48.9600577139       20.9837603535  W2        20931           0.0000000000
     62794     20932  TIP3      OH2           -37.5170566405       49.9052377139        2.4389603535  W2        20932           0.0000000000
     62795     20932  TIP3      H1            -37.7905766405       49.4807877139        1.6257903535  W2        20932           0.0000000000
     62796     20932  TIP3      H2            -37.4776466405       50.8366877139        2.2220003535  W2        20932           0.0000000000
     62797     20933  TIP3      OH2           -48.3496266405       44.5554277139       18.1691003535  W2        20933           0.0000000000
     62798     20933  TIP3      H1            -48.1995366405       43.8265577139       17.5670703535  W2        20933           0.0000000000
     62799     20933  TIP3      H2            -48.3473866405       45.3325977139       17.6103203535  W2        20933           0.0000000000
     62800     20934  TIP3      OH2           -47.9370566405       42.9250077139       15.6618403535  W2        20934           0.0000000000
     62801     20934  TIP3      H1            -47.4013066405       43.3766777139       15.0097703535  W2        20934           0.0000000000
     62802     20934  TIP3      H2            -48.7890966405       42.8169877139       15.2392503535  W2        20934           0.0000000000
     62803     20935  TIP3      OH2           -46.3552166405       48.3646277139       15.9013603535  W2        20935           0.0000000000
     62804     20935  TIP3      H1            -45.6047366405       48.2083777139       15.3281403535  W2        20935           0.0000000000
     62805     20935  TIP3      H2            -46.6943866405       49.2162877139       15.6259103535  W2        20935           0.0000000000
     62806     20936  TIP3      OH2           -41.9395966405       46.1798077139       20.9298903535  W2        20936           0.0000000000
     62807     20936  TIP3      H1            -41.7474666405       45.2487477139       20.8183403535  W2        20936           0.0000000000
     62808     20936  TIP3      H2            -41.0819666405       46.6047577139       20.9194303535  W2        20936           0.0000000000
     62809     20937  TIP3      OH2           -40.6228766405       48.9683277139       19.0071603535  W2        20937           0.0000000000
     62810     20937  TIP3      H1            -40.9043766405       49.6777877139       18.4295403535  W2        20937           0.0000000000
     62811     20937  TIP3      H2            -39.6804466405       48.8956277139       18.8562803535  W2        20937           0.0000000000
     62812     20938  TIP3      OH2           -49.8709966405       45.7537777139       20.0806603535  W2        20938           0.0000000000
     62813     20938  TIP3      H1            -50.6380966405       45.2212577139       19.8704203535  W2        20938           0.0000000000
     62814     20938  TIP3      H2            -49.1920966405       45.4438177139       19.4812903535  W2        20938           0.0000000000
     62815     20939  TIP3      OH2           -47.1315066405       40.3815777139       16.0932003535  W2        20939           0.0000000000
     62816     20939  TIP3      H1            -47.2295466405       41.3278977139       15.9878203535  W2        20939           0.0000000000
     62817     20939  TIP3      H2            -47.8738866405       40.0089577139       15.6175503535  W2        20939           0.0000000000
     62818     20940  TIP3      OH2           -45.8674566405       44.7031177139       19.6570403535  W2        20940           0.0000000000
     62819     20940  TIP3      H1            -46.1029166405       44.4837877139       20.5585303535  W2        20940           0.0000000000
     62820     20940  TIP3      H2            -46.6507666405       44.4962377139       19.1472903535  W2        20940           0.0000000000
     62821     20941  TIP3      OH2           -43.1517966405       43.8304677139       18.7323903535  W2        20941           0.0000000000
     62822     20941  TIP3      H1            -44.0992566405       43.8624377139       18.8647203535  W2        20941           0.0000000000
     62823     20941  TIP3      H2            -42.8391266405       43.2051777139       19.3862103535  W2        20941           0.0000000000
     62824     20942  TIP3      OH2           -41.5176466405       42.4645777139       20.7375803535  W2        20942           0.0000000000
     62825     20942  TIP3      H1            -41.6144666405       41.5123077139       20.7317703535  W2        20942           0.0000000000
     62826     20942  TIP3      H2            -41.8393366405       42.7332577139       21.5981303535  W2        20942           0.0000000000
     62827     20943  TIP3      OH2           -51.6907166405       43.6741577139       19.7851303535  W2        20943           0.0000000000
     62828     20943  TIP3      H1            -51.4789766405       42.9677677139       19.1748803535  W2        20943           0.0000000000
     62829     20943  TIP3      H2            -51.8019666405       43.2367577139       20.6292503535  W2        20943           0.0000000000
     62830     20944  TIP3      OH2           -46.9096966405       39.6753177139       18.7644803535  W2        20944           0.0000000000
     62831     20944  TIP3      H1            -46.1978566405       39.0355377139       18.7503903535  W2        20944           0.0000000000
     62832     20944  TIP3      H2            -47.0106566405       39.9421477139       17.8507903535  W2        20944           0.0000000000
     62833     20945  TIP3      OH2           -46.5559466405       41.3581577139       20.8181103535  W2        20945           0.0000000000
     62834     20945  TIP3      H1            -46.6877266405       40.8825377139       19.9979603535  W2        20945           0.0000000000
     62835     20945  TIP3      H2            -47.1552066405       42.1025177139       20.7628203535  W2        20945           0.0000000000
     62836     20946  TIP3      OH2           -53.4412266405       52.8775677139        3.4773203535  W2        20946           0.0000000000
     62837     20946  TIP3      H1            -52.5273066405       52.9564577139        3.7507103535  W2        20946           0.0000000000
     62838     20946  TIP3      H2            -53.4339166405       52.1905277139        2.8108803535  W2        20946           0.0000000000
     62839     20947  TIP3      OH2           -38.3597466405       52.5176777139       20.8997503535  W2        20947           0.0000000000
     62840     20947  TIP3      H1            -39.2256366405       52.4126477139       21.2939803535  W2        20947           0.0000000000
     62841     20947  TIP3      H2            -37.9831566405       53.2760077139       21.3462203535  W2        20947           0.0000000000
     62842     20948  TIP3      OH2           -37.0587766405       50.7740477139        6.4140003535  W2        20948           0.0000000000
     62843     20948  TIP3      H1            -36.2086366405       51.1951377139        6.5411603535  W2        20948           0.0000000000
     62844     20948  TIP3      H2            -37.0532666405       50.0340577139        7.0211403535  W2        20948           0.0000000000
     62845     20949  TIP3      OH2           -36.6642166405       48.8277877139        8.2375703535  W2        20949           0.0000000000
     62846     20949  TIP3      H1            -37.3907566405       48.3480477139        8.6353303535  W2        20949           0.0000000000
     62847     20949  TIP3      H2            -36.0828866405       49.0332577139        8.9697303535  W2        20949           0.0000000000
     62848     20950  TIP3      OH2           -36.9050966405       51.6125377139       13.1853303535  W2        20950           0.0000000000
     62849     20950  TIP3      H1            -36.0716766405       51.2345377139       12.9046903535  W2        20950           0.0000000000
     62850     20950  TIP3      H2            -36.7930666405       52.5556577139       13.0662403535  W2        20950           0.0000000000
     62851     20951  TIP3      OH2           -38.4188666405       54.4902877139       15.4921703535  W2        20951           0.0000000000
     62852     20951  TIP3      H1            -39.0663366405       54.8154377139       16.1176903535  W2        20951           0.0000000000
     62853     20951  TIP3      H2            -38.9364666405       54.0500577139       14.8180003535  W2        20951           0.0000000000
     62854     20952  TIP3      OH2           -36.3959066405       48.7286377139        4.6287003535  W2        20952           0.0000000000
     62855     20952  TIP3      H1            -36.9177966405       49.0850477139        3.9097903535  W2        20952           0.0000000000
     62856     20952  TIP3      H2            -36.4289866405       49.4034177139        5.3067903535  W2        20952           0.0000000000
     62857     20953  TIP3      OH2           -38.0470066405       45.9681977139        3.1794103535  W2        20953           0.0000000000
     62858     20953  TIP3      H1            -37.9505666405       46.6348977139        2.4993803535  W2        20953           0.0000000000
     62859     20953  TIP3      H2            -38.1870466405       45.1528277139        2.6979603535  W2        20953           0.0000000000
     62860     20954  TIP3      OH2           -38.8775366405       47.3484377139        8.8004403535  W2        20954           0.0000000000
     62861     20954  TIP3      H1            -39.0276566405       46.4032977139        8.7802203535  W2        20954           0.0000000000
     62862     20954  TIP3      H2            -39.2310866405       47.6295777139        9.6443503535  W2        20954           0.0000000000
     62863     20955  TIP3      OH2           -53.8422966405       49.4266577139       12.8108203535  W2        20955           0.0000000000
     62864     20955  TIP3      H1            -53.6580066405       49.3448277139       11.8751103535  W2        20955           0.0000000000
     62865     20955  TIP3      H2            -52.9930066405       49.3023577139       13.2344603535  W2        20955           0.0000000000
     62866     20956  TIP3      OH2           -38.0212466405       49.3187677139       18.4392703535  W2        20956           0.0000000000
     62867     20956  TIP3      H1            -37.4385166405       48.5839977139       18.6309903535  W2        20956           0.0000000000
     62868     20956  TIP3      H2            -37.4573166405       50.0907977139       18.4858503535  W2        20956           0.0000000000
     62869     20957  TIP3      OH2           -36.5245366405       47.2213477139       19.1238103535  W2        20957           0.0000000000
     62870     20957  TIP3      H1            -37.3878666405       46.8425577139       18.9582803535  W2        20957           0.0000000000
     62871     20957  TIP3      H2            -35.9201666405       46.4828277139       19.0493903535  W2        20957           0.0000000000
     62872     20958  TIP3      OH2           -38.7996266405       43.3761777139        2.2969603535  W2        20958           0.0000000000
     62873     20958  TIP3      H1            -38.1890466405       43.0048577139        2.9337803535  W2        20958           0.0000000000
     62874     20958  TIP3      H2            -39.6364766405       42.9548677139        2.4929603535  W2        20958           0.0000000000
     62875     20959  TIP3      OH2           -39.1670566405       44.9310177139        7.2629503535  W2        20959           0.0000000000
     62876     20959  TIP3      H1            -38.8873466405       44.0240577139        7.3871203535  W2        20959           0.0000000000
     62877     20959  TIP3      H2            -38.4078866405       45.3651677139        6.8738703535  W2        20959           0.0000000000
     62878     20960  TIP3      OH2           -38.5552266405       45.5127577139       12.6988403535  W2        20960           0.0000000000
     62879     20960  TIP3      H1            -37.6224266405       45.7247477139       12.6644403535  W2        20960           0.0000000000
     62880     20960  TIP3      H2            -38.7904766405       45.6139677139       13.6211403535  W2        20960           0.0000000000
     62881     20961  TIP3      OH2           -38.5260366405       46.2492877139       15.4747803535  W2        20961           0.0000000000
     62882     20961  TIP3      H1            -39.3689066405       46.5173277139       15.8407603535  W2        20961           0.0000000000
     62883     20961  TIP3      H2            -38.0836066405       47.0714777139       15.2638903535  W2        20961           0.0000000000
     62884     20962  TIP3      OH2           -54.2448166405       44.6971577139       18.9517003535  W2        20962           0.0000000000
     62885     20962  TIP3      H1            -53.3253266405       44.5749877139       19.1880103535  W2        20962           0.0000000000
     62886     20962  TIP3      H2            -54.6943666405       43.9471277139       19.3410503535  W2        20962           0.0000000000
     62887     20963  TIP3      OH2           -36.2428766405       40.2293077139       20.8282803535  W2        20963           0.0000000000
     62888     20963  TIP3      H1            -35.8931766405       39.5756577139       20.2227503535  W2        20963           0.0000000000
     62889     20963  TIP3      H2            -36.0959266405       41.0667177139       20.3885403535  W2        20963           0.0000000000
     62890     20964  TIP3      OH2           -38.5535766405       42.1939477139        7.3111503535  W2        20964           0.0000000000
     62891     20964  TIP3      H1            -38.3710766405       41.7450977139        8.1366503535  W2        20964           0.0000000000
     62892     20964  TIP3      H2            -39.1532866405       41.6093877139        6.8476103535  W2        20964           0.0000000000
     62893     20965  TIP3      OH2           -53.0235666405       43.0093177139       11.8429903535  W2        20965           0.0000000000
     62894     20965  TIP3      H1            -52.5784066405       42.2175677139       12.1449603535  W2        20965           0.0000000000
     62895     20965  TIP3      H2            -52.5572666405       43.7258377139       12.2735503535  W2        20965           0.0000000000
     62896     20966  TIP3      OH2           -54.7195366405       46.0086177139       12.9120103535  W2        20966           0.0000000000
     62897     20966  TIP3      H1            -54.2275566405       45.7876677139       12.1212103535  W2        20966           0.0000000000
     62898     20966  TIP3      H2            -54.3574466405       46.8489577139       13.1929603535  W2        20966           0.0000000000
     62899     20967  TIP3      OH2           -36.7231566405       42.3387677139       19.1774103535  W2        20967           0.0000000000
     62900     20967  TIP3      H1            -37.6405866405       42.6094777139       19.1417603535  W2        20967           0.0000000000
     62901     20967  TIP3      H2            -36.6002166405       41.8036077139       18.3933803535  W2        20967           0.0000000000
     62902     20968  TIP3      OH2           -36.6869566405       42.2617577139        3.8391803535  W2        20968           0.0000000000
     62903     20968  TIP3      H1            -36.2746966405       41.5403277139        3.3639803535  W2        20968           0.0000000000
     62904     20968  TIP3      H2            -36.0053066405       42.9312177139        3.8976103535  W2        20968           0.0000000000
     62905     20969  TIP3      OH2           -54.4058866405       42.2665277139        6.9662503535  W2        20969           0.0000000000
     62906     20969  TIP3      H1            -55.3310466405       42.4751877139        6.8368003535  W2        20969           0.0000000000
     62907     20969  TIP3      H2            -53.9518966405       42.7506077139        6.2764803535  W2        20969           0.0000000000
     62908     20970  TIP3      OH2           -54.4423466405       41.0044277139       15.3105003535  W2        20970           0.0000000000
     62909     20970  TIP3      H1            -55.1072966405       40.7584577139       15.9535903535  W2        20970           0.0000000000
     62910     20970  TIP3      H2            -54.8852166405       41.6264677139       14.7333003535  W2        20970           0.0000000000
     62911     20971  TIP3      OH2           -52.2504166405       54.1798377139       19.4550803535  W2        20971           0.0000000000
     62912     20971  TIP3      H1            -53.0711666405       54.3544877139       18.9945503535  W2        20971           0.0000000000
     62913     20971  TIP3      H2            -52.5026366405       54.1063077139       20.3755203535  W2        20971           0.0000000000
     62914     20972  TIP3      OH2           -37.7225666405       40.4283977139       16.9964903535  W2        20972           0.0000000000
     62915     20972  TIP3      H1            -38.5352166405       40.7534277139       16.6089603535  W2        20972           0.0000000000
     62916     20972  TIP3      H2            -37.4897166405       39.6682477139       16.4634003535  W2        20972           0.0000000000
     62917     20973  TIP3      OH2           -44.2927166405       41.8774577139       11.3193103535  W2        20973           0.0000000000
     62918     20973  TIP3      H1            -44.9670366405       41.2480177139       11.5748903535  W2        20973           0.0000000000
     62919     20973  TIP3      H2            -43.7287966405       41.3933477139       10.7161003535  W2        20973           0.0000000000
     62920     20974  TIP3      OH2           -39.1499966405       39.9848577139       11.4320203535  W2        20974           0.0000000000
     62921     20974  TIP3      H1            -38.5462366405       40.5323977139       10.9301203535  W2        20974           0.0000000000
     62922     20974  TIP3      H2            -40.0197966405       40.3038977139       11.1914303535  W2        20974           0.0000000000
     62923     20975  TIP3      OH2           -37.4229566405       41.1237277139        9.7651103535  W2        20975           0.0000000000
     62924     20975  TIP3      H1            -36.8112066405       40.6092977139        9.2384703535  W2        20975           0.0000000000
     62925     20975  TIP3      H2            -37.0406166405       42.0009377139        9.7885503535  W2        20975           0.0000000000
     62926     20976  TIP3      OH2           -51.9659666405       40.5114877139        9.1413003535  W2        20976           0.0000000000
     62927     20976  TIP3      H1            -52.7429866405       40.2769777139        8.6338903535  W2        20976           0.0000000000
     62928     20976  TIP3      H2            -51.4356066405       39.7146977139        9.1501003535  W2        20976           0.0000000000
     62929     20977  TIP3      OH2           -53.1296266405       40.3092977139        4.9449103535  W2        20977           0.0000000000
     62930     20977  TIP3      H1            -52.6905566405       40.9203477139        4.3532603535  W2        20977           0.0000000000
     62931     20977  TIP3      H2            -53.7633866405       40.8477077139        5.4189103535  W2        20977           0.0000000000
     62932     20978  TIP3      OH2           -47.3867066405       40.4381977139        8.9546103535  W2        20978           0.0000000000
     62933     20978  TIP3      H1            -46.5123666405       40.8266277139        8.9250403535  W2        20978           0.0000000000
     62934     20978  TIP3      H2            -47.5226266405       40.2229777139        9.8773303535  W2        20978           0.0000000000
     62935     20979  TIP3      OH2           -41.8298666405       40.4681777139       10.6037803535  W2        20979           0.0000000000
     62936     20979  TIP3      H1            -41.7537066405       40.5633377139        9.6543803535  W2        20979           0.0000000000
     62937     20979  TIP3      H2            -42.1049466405       39.5604677139       10.7326903535  W2        20979           0.0000000000
     62938     20980  TIP3      OH2           -40.4766066405       40.4939577139        6.2962803535  W2        20980           0.0000000000
     62939     20980  TIP3      H1            -41.1794966405       41.1088777139        6.0864203535  W2        20980           0.0000000000
     62940     20980  TIP3      H2            -40.9214666405       39.6566277139        6.4273703535  W2        20980           0.0000000000
     62941     20981  TIP3      OH2           -51.2687166405       42.2254477139        3.3873203535  W2        20981           0.0000000000
     62942     20981  TIP3      H1            -50.7773766405       41.5956877139        2.8598703535  W2        20981           0.0000000000
     62943     20981  TIP3      H2            -50.6450866405       42.5213877139        4.0504403535  W2        20981           0.0000000000
     62944     20982  TIP3      OH2           -46.2427066405       42.5185977139        5.8443703535  W2        20982           0.0000000000
     62945     20982  TIP3      H1            -46.0645766405       41.8719177139        6.5272303535  W2        20982           0.0000000000
     62946     20982  TIP3      H2            -46.2960866405       43.3523677139        6.3114803535  W2        20982           0.0000000000
     62947     20983  TIP3      OH2           -52.0081666405       41.0256777139       18.6589203535  W2        20983           0.0000000000
     62948     20983  TIP3      H1            -52.3743466405       40.2599377139       19.1013903535  W2        20983           0.0000000000
     62949     20983  TIP3      H2            -51.0953166405       41.0546977139       18.9454303535  W2        20983           0.0000000000
     62950     20984  TIP3      OH2           -50.0350866405       40.3761177139       20.1946303535  W2        20984           0.0000000000
     62951     20984  TIP3      H1            -49.1367266405       40.1021377139       20.0099703535  W2        20984           0.0000000000
     62952     20984  TIP3      H2            -50.4217766405       39.6337177139       20.6588903535  W2        20984           0.0000000000
     62953     20985  TIP3      OH2           -41.6138566405       39.7086477139       20.3769103535  W2        20985           0.0000000000
     62954     20985  TIP3      H1            -41.5371366405       39.2827177139       21.2306803535  W2        20985           0.0000000000
     62955     20985  TIP3      H2            -40.7201966405       39.7221177139       20.0342603535  W2        20985           0.0000000000
     62956     20986  TIP3      OH2           -24.0317066405       49.6677177139        9.1000503535  W2        20986           0.0000000000
     62957     20986  TIP3      H1            -23.9425966405       50.6115377139        8.9677603535  W2        20986           0.0000000000
     62958     20986  TIP3      H2            -24.6699466405       49.3923577139        8.4419903535  W2        20986           0.0000000000
     62959     20987  TIP3      OH2           -25.0985766405       48.9227877139       12.5188703535  W2        20987           0.0000000000
     62960     20987  TIP3      H1            -25.1368266405       48.2764177139       13.2238303535  W2        20987           0.0000000000
     62961     20987  TIP3      H2            -25.4209266405       48.4562277139       11.7477403535  W2        20987           0.0000000000
     62962     20988  TIP3      OH2           -32.7300766405       48.5369977139       14.1118603535  W2        20988           0.0000000000
     62963     20988  TIP3      H1            -32.6888666405       47.9113277139       14.8351003535  W2        20988           0.0000000000
     62964     20988  TIP3      H2            -32.0273066405       49.1608577139       14.2939003535  W2        20988           0.0000000000
     62965     20989  TIP3      OH2           -21.3925566405       51.8618277139       10.8203803535  W2        20989           0.0000000000
     62966     20989  TIP3      H1            -21.8332866405       51.1414277139       11.2709403535  W2        20989           0.0000000000
     62967     20989  TIP3      H2            -21.4055866405       52.5825477139       11.4501503535  W2        20989           0.0000000000
     62968     20990  TIP3      OH2           -31.8067666405       52.9868877139       12.6467703535  W2        20990           0.0000000000
     62969     20990  TIP3      H1            -32.1762466405       52.1849377139       12.2772003535  W2        20990           0.0000000000
     62970     20990  TIP3      H2            -30.8656566405       52.8183777139       12.6931103535  W2        20990           0.0000000000
     62971     20991  TIP3      OH2           -35.1967166405       46.6471477139        8.0396503535  W2        20991           0.0000000000
     62972     20991  TIP3      H1            -35.6443766405       47.4930177139        8.0213003535  W2        20991           0.0000000000
     62973     20991  TIP3      H2            -35.7575966405       46.0675677139        7.5241603535  W2        20991           0.0000000000
     62974     20992  TIP3      OH2           -34.4861066405       48.8091077139       10.1654503535  W2        20992           0.0000000000
     62975     20992  TIP3      H1            -34.2727566405       48.0392677139       10.6927503535  W2        20992           0.0000000000
     62976     20992  TIP3      H2            -33.7483466405       48.8987777139        9.5622103535  W2        20992           0.0000000000
     62977     20993  TIP3      OH2           -26.7091366405       51.3549277139       12.9249703535  W2        20993           0.0000000000
     62978     20993  TIP3      H1            -26.4053466405       50.6690677139       12.3303803535  W2        20993           0.0000000000
     62979     20993  TIP3      H2            -25.9877366405       51.4737977139       13.5427703535  W2        20993           0.0000000000
     62980     20994  TIP3      OH2           -18.0461566405       42.9564577139       13.7855903535  W2        20994           0.0000000000
     62981     20994  TIP3      H1            -17.9969366405       43.5665777139       14.5215003535  W2        20994           0.0000000000
     62982     20994  TIP3      H2            -17.6206466405       43.4175477139       13.0627003535  W2        20994           0.0000000000
     62983     20995  TIP3      OH2           -23.5684366405       45.7491677139       13.2524503535  W2        20995           0.0000000000
     62984     20995  TIP3      H1            -23.4258466405       44.8028677139       13.2726103535  W2        20995           0.0000000000
     62985     20995  TIP3      H2            -23.6745366405       45.9561477139       12.3239403535  W2        20995           0.0000000000
     62986     20996  TIP3      OH2           -30.4136066405       43.8508077139       10.5249303535  W2        20996           0.0000000000
     62987     20996  TIP3      H1            -30.3704966405       44.7106577139       10.1065603535  W2        20996           0.0000000000
     62988     20996  TIP3      H2            -30.8711966405       43.2982777139        9.8912503535  W2        20996           0.0000000000
     62989     20997  TIP3      OH2           -22.6913366405       43.9813677139        8.9257603535  W2        20997           0.0000000000
     62990     20997  TIP3      H1            -22.0449066405       43.6526877139        9.5505203535  W2        20997           0.0000000000
     62991     20997  TIP3      H2            -22.1813966405       44.4992677139        8.3029003535  W2        20997           0.0000000000
     62992     20998  TIP3      OH2           -33.7934566405       46.2473877139       11.2870703535  W2        20998           0.0000000000
     62993     20998  TIP3      H1            -33.1397966405       45.6975577139       11.7190803535  W2        20998           0.0000000000
     62994     20998  TIP3      H2            -33.7695266405       45.9732877139       10.3702703535  W2        20998           0.0000000000
     62995     20999  TIP3      OH2           -28.6370066405       47.7975177139       10.5022203535  W2        20999           0.0000000000
     62996     20999  TIP3      H1            -28.0209066405       47.2710577139       11.0116203535  W2        20999           0.0000000000
     62997     20999  TIP3      H2            -29.2231266405       47.1573877139       10.0985803535  W2        20999           0.0000000000
     62998     21000  TIP3      OH2           -17.6546966405       44.4343777139       16.0215703535  W2        21000           0.0000000000
     62999     21000  TIP3      H1            -18.3432366405       45.0924477139       15.9262303535  W2        21000           0.0000000000
     63000     21000  TIP3      H2            -17.6392366405       44.2371677139       16.9581103535  W2        21000           0.0000000000
     63001     21001  TIP3      OH2           -31.6034166405       42.7686477139       14.5990103535  W2        21001           0.0000000000
     63002     21001  TIP3      H1            -31.8222466405       43.2987077139       13.8326103535  W2        21001           0.0000000000
     63003     21001  TIP3      H2            -32.2713266405       42.9951977139       15.2461503535  W2        21001           0.0000000000
     63004     21002  TIP3      OH2           -24.2344366405       52.2687577139        8.1429203535  W2        21002           0.0000000000
     63005     21002  TIP3      H1            -24.5299266405       51.9459877139        7.2916103535  W2        21002           0.0000000000
     63006     21002  TIP3      H2            -24.5586566405       53.1684277139        8.1841803535  W2        21002           0.0000000000
     63007     21003  TIP3      OH2           -29.0342766405       50.4442177139       14.8863803535  W2        21003           0.0000000000
     63008     21003  TIP3      H1            -29.7743666405       51.0423677139       14.9899003535  W2        21003           0.0000000000
     63009     21003  TIP3      H2            -28.3203266405       50.9981777139       14.5707403535  W2        21003           0.0000000000
     63010     21004  TIP3      OH2           -20.9274966405       43.2722977139       10.9063503535  W2        21004           0.0000000000
     63011     21004  TIP3      H1            -21.1426966405       42.5066377139       11.4389503535  W2        21004           0.0000000000
     63012     21004  TIP3      H2            -20.2717566405       43.7447577139       11.4192003535  W2        21004           0.0000000000
     63013     21005  TIP3      OH2           -32.0096866405       44.6608277139       12.5512303535  W2        21005           0.0000000000
     63014     21005  TIP3      H1            -31.3960566405       45.2935877139       12.9244703535  W2        21005           0.0000000000
     63015     21005  TIP3      H2            -31.4976166405       44.1883277139       11.8949203535  W2        21005           0.0000000000
     63016     21006  TIP3      OH2           -30.6268466405       52.4085177139       15.6735303535  W2        21006           0.0000000000
     63017     21006  TIP3      H1            -30.6320866405       53.2878677139       15.2954603535  W2        21006           0.0000000000
     63018     21006  TIP3      H2            -31.4804366405       52.3249277139       16.0985203535  W2        21006           0.0000000000
     63019     21007  TIP3      OH2           -34.5057566405       52.0793077139        6.4554603535  W2        21007           0.0000000000
     63020     21007  TIP3      H1            -34.7776666405       52.3084077139        5.5667503535  W2        21007           0.0000000000
     63021     21007  TIP3      H2            -34.4601866405       52.9171877139        6.9159903535  W2        21007           0.0000000000
     63022     21008  TIP3      OH2           -20.8807866405       53.7008977139       13.1683103535  W2        21008           0.0000000000
     63023     21008  TIP3      H1            -21.8224166405       53.7592877139       13.3300003535  W2        21008           0.0000000000
     63024     21008  TIP3      H2            -20.6041766405       54.6069477139       13.0312803535  W2        21008           0.0000000000
     63025     21009  TIP3      OH2           -20.5800866405       41.9874277139       14.5857003535  W2        21009           0.0000000000
     63026     21009  TIP3      H1            -21.3161666405       42.5981377139       14.5478303535  W2        21009           0.0000000000
     63027     21009  TIP3      H2            -19.8966866405       42.4023277139       14.0593403535  W2        21009           0.0000000000
     63028     21010  TIP3      OH2           -27.5769466405       40.0741577139       12.0515003535  W2        21010           0.0000000000
     63029     21010  TIP3      H1            -27.6945266405       39.1257577139       11.9973303535  W2        21010           0.0000000000
     63030     21010  TIP3      H2            -28.4319366405       40.4067677139       12.3246103535  W2        21010           0.0000000000
     63031     21011  TIP3      OH2           -21.4690166405       53.3830977139        8.3021303535  W2        21011           0.0000000000
     63032     21011  TIP3      H1            -21.7265366405       52.6931077139        7.6907203535  W2        21011           0.0000000000
     63033     21011  TIP3      H2            -21.3979366405       52.9402177139        9.1477203535  W2        21011           0.0000000000
     63034     21012  TIP3      OH2           -19.7829966405       51.9497677139       16.7794803535  W2        21012           0.0000000000
     63035     21012  TIP3      H1            -19.6433666405       51.3580177139       16.0401803535  W2        21012           0.0000000000
     63036     21012  TIP3      H2            -19.6157166405       52.8223577139       16.4233603535  W2        21012           0.0000000000
     63037     21013  TIP3      OH2           -25.3104566405       48.9117177139        6.5520803535  W2        21013           0.0000000000
     63038     21013  TIP3      H1            -26.0219066405       49.4466877139        6.2001303535  W2        21013           0.0000000000
     63039     21013  TIP3      H2            -24.6194966405       48.9669277139        5.8919703535  W2        21013           0.0000000000
     63040     21014  TIP3      OH2           -25.2565366405       47.3691477139        3.5905803535  W2        21014           0.0000000000
     63041     21014  TIP3      H1            -24.5555466405       47.3918377139        4.2419803535  W2        21014           0.0000000000
     63042     21014  TIP3      H2            -24.9542466405       46.7411177139        2.9345103535  W2        21014           0.0000000000
     63043     21015  TIP3      OH2           -17.9410666405       48.2895677139       14.8455203535  W2        21015           0.0000000000
     63044     21015  TIP3      H1            -18.5936566405       48.9841277139       14.9346103535  W2        21015           0.0000000000
     63045     21015  TIP3      H2            -17.4760366405       48.4996577139       14.0356803535  W2        21015           0.0000000000
     63046     21016  TIP3      OH2           -21.9046866405       49.1210477139        7.5036703535  W2        21016           0.0000000000
     63047     21016  TIP3      H1            -22.6365866405       49.3494177139        8.0767303535  W2        21016           0.0000000000
     63048     21016  TIP3      H2            -21.4574666405       48.4073177139        7.9584203535  W2        21016           0.0000000000
     63049     21017  TIP3      OH2           -22.0073366405       47.2953077139       16.5713703535  W2        21017           0.0000000000
     63050     21017  TIP3      H1            -21.9274266405       48.0587477139       17.1432203535  W2        21017           0.0000000000
     63051     21017  TIP3      H2            -22.6085666405       47.5745477139       15.8808803535  W2        21017           0.0000000000
     63052     21018  TIP3      OH2           -30.2593166405       49.7516677139        9.3861703535  W2        21018           0.0000000000
     63053     21018  TIP3      H1            -30.5897966405       49.3810077139        8.5678703535  W2        21018           0.0000000000
     63054     21018  TIP3      H2            -29.6709066405       49.0810677139        9.7330003535  W2        21018           0.0000000000
     63055     21019  TIP3      OH2           -28.8925666405       53.1797277139       12.0673903535  W2        21019           0.0000000000
     63056     21019  TIP3      H1            -28.9874366405       52.6010377139       11.3108503535  W2        21019           0.0000000000
     63057     21019  TIP3      H2            -28.1632066405       52.8082977139       12.5636703535  W2        21019           0.0000000000
     63058     21020  TIP3      OH2           -29.8927666405       48.5202277139       13.0196703535  W2        21020           0.0000000000
     63059     21020  TIP3      H1            -29.3275166405       48.6416477139       12.2567903535  W2        21020           0.0000000000
     63060     21020  TIP3      H2            -29.5738766405       49.1577277139       13.6585203535  W2        21020           0.0000000000
     63061     21021  TIP3      OH2           -23.5835466405       54.0234177139       13.7537203535  W2        21021           0.0000000000
     63062     21021  TIP3      H1            -23.8238866405       54.6857277139       14.4016403535  W2        21021           0.0000000000
     63063     21021  TIP3      H2            -23.7817266405       53.1889377139       14.1786803535  W2        21021           0.0000000000
     63064     21022  TIP3      OH2           -29.0126966405       52.9194977139       17.7368603535  W2        21022           0.0000000000
     63065     21022  TIP3      H1            -29.3239466405       53.7018177139       18.1921803535  W2        21022           0.0000000000
     63066     21022  TIP3      H2            -29.6626766405       52.7664077139       17.0510603535  W2        21022           0.0000000000
     63067     21023  TIP3      OH2           -23.0337366405       48.2833377139        5.1887903535  W2        21023           0.0000000000
     63068     21023  TIP3      H1            -22.4541866405       48.4333677139        5.9356803535  W2        21023           0.0000000000
     63069     21023  TIP3      H2            -22.6197366405       48.7540777139        4.4654303535  W2        21023           0.0000000000
     63070     21024  TIP3      OH2           -32.0927066405       49.1176077139       16.9654303535  W2        21024           0.0000000000
     63071     21024  TIP3      H1            -32.0223866405       49.7682877139       17.6639303535  W2        21024           0.0000000000
     63072     21024  TIP3      H2            -32.9834866405       49.2203577139       16.6305203535  W2        21024           0.0000000000
     63073     21025  TIP3      OH2           -30.7731066405       54.9909977139       18.5002403535  W2        21025           0.0000000000
     63074     21025  TIP3      H1            -30.7655766405       54.8549677139       17.5527903535  W2        21025           0.0000000000
     63075     21025  TIP3      H2            -31.6890666405       54.8738077139       18.7522403535  W2        21025           0.0000000000
     63076     21026  TIP3      OH2           -19.3348966405       40.0333777139        5.0017603535  W2        21026           0.0000000000
     63077     21026  TIP3      H1            -20.2348266405       40.1722777139        5.2968203535  W2        21026           0.0000000000
     63078     21026  TIP3      H2            -19.0830566405       40.8648377139        4.5999303535  W2        21026           0.0000000000
     63079     21027  TIP3      OH2           -31.2690466405       48.8210977139        6.9754503535  W2        21027           0.0000000000
     63080     21027  TIP3      H1            -31.5609166405       49.5892677139        6.4845803535  W2        21027           0.0000000000
     63081     21027  TIP3      H2            -31.9435266405       48.1617177139        6.8125903535  W2        21027           0.0000000000
     63082     21028  TIP3      OH2           -18.1457566405       54.3996177139        3.3781503535  W2        21028           0.0000000000
     63083     21028  TIP3      H1            -18.0724066405       55.3386377139        3.5486803535  W2        21028           0.0000000000
     63084     21028  TIP3      H2            -17.2402466405       54.0944777139        3.3218803535  W2        21028           0.0000000000
     63085     21029  TIP3      OH2           -35.1760366405       51.1840177139       15.7904303535  W2        21029           0.0000000000
     63086     21029  TIP3      H1            -35.6771966405       51.1559577139       14.9754003535  W2        21029           0.0000000000
     63087     21029  TIP3      H2            -35.1706666405       50.2783377139       16.1001603535  W2        21029           0.0000000000
     63088     21030  TIP3      OH2           -35.4257666405       53.9643977139       12.6744503535  W2        21030           0.0000000000
     63089     21030  TIP3      H1            -34.4797066405       53.8200977139       12.6554003535  W2        21030           0.0000000000
     63090     21030  TIP3      H2            -35.5381366405       54.7486777139       13.2115703535  W2        21030           0.0000000000
     63091     21031  TIP3      OH2           -17.2279166405       54.6303677139       18.3568203535  W2        21031           0.0000000000
     63092     21031  TIP3      H1            -17.2772366405       53.6751777139       18.3195803535  W2        21031           0.0000000000
     63093     21031  TIP3      H2            -18.0546866405       54.8978977139       18.7582003535  W2        21031           0.0000000000
     63094     21032  TIP3      OH2           -26.2495166405       54.2042877139       17.2329603535  W2        21032           0.0000000000
     63095     21032  TIP3      H1            -26.1620566405       55.0307477139       17.7078703535  W2        21032           0.0000000000
     63096     21032  TIP3      H2            -27.1130066405       53.8746677139       17.4818903535  W2        21032           0.0000000000
     63097     21033  TIP3      OH2           -20.0759366405       46.1236177139       18.8370403535  W2        21033           0.0000000000
     63098     21033  TIP3      H1            -20.4832566405       46.6041777139       18.1163703535  W2        21033           0.0000000000
     63099     21033  TIP3      H2            -20.0353666405       45.2182177139       18.5291203535  W2        21033           0.0000000000
     63100     21034  TIP3      OH2           -32.9269866405       52.5075577139       16.8337103535  W2        21034           0.0000000000
     63101     21034  TIP3      H1            -32.7108566405       52.1461177139       17.6932903535  W2        21034           0.0000000000
     63102     21034  TIP3      H2            -33.7825166405       52.1329377139       16.6240603535  W2        21034           0.0000000000
     63103     21035  TIP3      OH2           -30.3081866405       40.9776077139       12.8291303535  W2        21035           0.0000000000
     63104     21035  TIP3      H1            -31.1698166405       40.8904277139       12.4214203535  W2        21035           0.0000000000
     63105     21035  TIP3      H2            -30.3306166405       41.8336177139       13.2568903535  W2        21035           0.0000000000
     63106     21036  TIP3      OH2           -25.6454066405       40.6996477139       16.2038303535  W2        21036           0.0000000000
     63107     21036  TIP3      H1            -25.2250966405       40.2843577139       16.9568903535  W2        21036           0.0000000000
     63108     21036  TIP3      H2            -26.5784466405       40.5209777139       16.3210303535  W2        21036           0.0000000000
     63109     21037  TIP3      OH2           -22.3189166405       44.4551677139       17.0572803535  W2        21037           0.0000000000
     63110     21037  TIP3      H1            -22.8329666405       44.3293877139       17.8548803535  W2        21037           0.0000000000
     63111     21037  TIP3      H2            -22.4744466405       45.3674777139       16.8129003535  W2        21037           0.0000000000
     63112     21038  TIP3      OH2           -21.5564266405       49.3161677139        2.8185803535  W2        21038           0.0000000000
     63113     21038  TIP3      H1            -21.5143466405       49.0935577139        1.8885803535  W2        21038           0.0000000000
     63114     21038  TIP3      H2            -20.7072166405       49.7148777139        3.0085703535  W2        21038           0.0000000000
     63115     21039  TIP3      OH2           -25.9836766405       43.1919877139        3.4889103535  W2        21039           0.0000000000
     63116     21039  TIP3      H1            -26.2371966405       43.2111477139        4.4117203535  W2        21039           0.0000000000
     63117     21039  TIP3      H2            -26.2404666405       42.3205277139        3.1875303535  W2        21039           0.0000000000
     63118     21040  TIP3      OH2           -30.2171766405       45.9430577139       13.9241503535  W2        21040           0.0000000000
     63119     21040  TIP3      H1            -30.8589666405       45.9027877139       14.6331603535  W2        21040           0.0000000000
     63120     21040  TIP3      H2            -30.1799766405       46.8695277139       13.6864503535  W2        21040           0.0000000000
     63121     21041  TIP3      OH2           -30.2202666405       46.1640677139        8.8361503535  W2        21041           0.0000000000
     63122     21041  TIP3      H1            -31.1129766405       45.8236777139        8.7775303535  W2        21041           0.0000000000
     63123     21041  TIP3      H2            -29.7696066405       45.7871577139        8.0804703535  W2        21041           0.0000000000
     63124     21042  TIP3      OH2           -24.6847166405       46.5800977139        7.6532303535  W2        21042           0.0000000000
     63125     21042  TIP3      H1            -25.0936866405       47.3949577139        7.3617103535  W2        21042           0.0000000000
     63126     21042  TIP3      H2            -23.9640966405       46.4401077139        7.0389403535  W2        21042           0.0000000000
     63127     21043  TIP3      OH2           -25.5825566405       46.7557377139       19.1413003535  W2        21043           0.0000000000
     63128     21043  TIP3      H1            -26.1451766405       46.0508977139       19.4620803535  W2        21043           0.0000000000
     63129     21043  TIP3      H2            -24.7562166405       46.6349277139       19.6090603535  W2        21043           0.0000000000
     63130     21044  TIP3      OH2           -23.6799466405       46.0261377139       10.4672003535  W2        21044           0.0000000000
     63131     21044  TIP3      H1            -23.8754966405       46.6318177139        9.7522603535  W2        21044           0.0000000000
     63132     21044  TIP3      H2            -23.4986866405       45.1926577139       10.0328303535  W2        21044           0.0000000000
     63133     21045  TIP3      OH2           -32.4671266405       46.2634077139       15.7913503535  W2        21045           0.0000000000
     63134     21045  TIP3      H1            -32.5051866405       46.6635677139       16.6600603535  W2        21045           0.0000000000
     63135     21045  TIP3      H2            -32.9580166405       45.4466477139       15.8816403535  W2        21045           0.0000000000
     63136     21046  TIP3      OH2           -29.1013866405       43.6376377139        2.5899503535  W2        21046           0.0000000000
     63137     21046  TIP3      H1            -29.5323166405       43.1926477139        3.3196903535  W2        21046           0.0000000000
     63138     21046  TIP3      H2            -29.8195166405       44.0092677139        2.0777003535  W2        21046           0.0000000000
     63139     21047  TIP3      OH2           -35.8590466405       43.3795877139        9.6418203535  W2        21047           0.0000000000
     63140     21047  TIP3      H1            -35.2282766405       43.3507977139       10.3612103535  W2        21047           0.0000000000
     63141     21047  TIP3      H2            -35.4096166405       42.9544577139        8.9114103535  W2        21047           0.0000000000
     63142     21048  TIP3      OH2           -34.5848366405       44.1257877139        5.0658603535  W2        21048           0.0000000000
     63143     21048  TIP3      H1            -34.1106666405       44.7167777139        4.4809503535  W2        21048           0.0000000000
     63144     21048  TIP3      H2            -35.3021966405       44.6560777139        5.4128703535  W2        21048           0.0000000000
     63145     21049  TIP3      OH2           -24.4160266405       47.6642677139       15.1384403535  W2        21049           0.0000000000
     63146     21049  TIP3      H1            -24.0925466405       47.0332377139       14.4954903535  W2        21049           0.0000000000
     63147     21049  TIP3      H2            -24.8560966405       47.1294877139       15.7991803535  W2        21049           0.0000000000
     63148     21050  TIP3      OH2           -27.6387366405       43.5918177139        9.9225603535  W2        21050           0.0000000000
     63149     21050  TIP3      H1            -28.5496266405       43.6484977139       10.2111603535  W2        21050           0.0000000000
     63150     21050  TIP3      H2            -27.1334466405       43.5313677139       10.7332803535  W2        21050           0.0000000000
     63151     21051  TIP3      OH2           -32.8103966405       45.2204477139        8.7493203535  W2        21051           0.0000000000
     63152     21051  TIP3      H1            -33.6995966405       45.3199977139        8.4092803535  W2        21051           0.0000000000
     63153     21051  TIP3      H2            -32.5139066405       44.3787477139        8.4031103535  W2        21051           0.0000000000
     63154     21052  TIP3      OH2           -29.1572166405       45.2207077139        6.4057803535  W2        21052           0.0000000000
     63155     21052  TIP3      H1            -28.2256666405       45.3497077139        6.5840903535  W2        21052           0.0000000000
     63156     21052  TIP3      H2            -29.3721866405       45.8901377139        5.7562503535  W2        21052           0.0000000000
     63157     21053  TIP3      OH2           -23.2335466405       42.8264477139       13.1867403535  W2        21053           0.0000000000
     63158     21053  TIP3      H1            -23.9103866405       42.9577577139       13.8507103535  W2        21053           0.0000000000
     63159     21053  TIP3      H2            -23.7190566405       42.6713977139       12.3765103535  W2        21053           0.0000000000
     63160     21054  TIP3      OH2           -30.4831966405       46.4149277139        3.9723903535  W2        21054           0.0000000000
     63161     21054  TIP3      H1            -31.0256866405       46.0353077139        3.2811503535  W2        21054           0.0000000000
     63162     21054  TIP3      H2            -29.6497066405       46.6093977139        3.5438003535  W2        21054           0.0000000000
     63163     21055  TIP3      OH2           -32.3480566405       50.9721177139       19.0715503535  W2        21055           0.0000000000
     63164     21055  TIP3      H1            -31.6158166405       51.2267077139       19.6330003535  W2        21055           0.0000000000
     63165     21055  TIP3      H2            -33.1281866405       51.1766577139       19.5870903535  W2        21055           0.0000000000
     63166     21056  TIP3      OH2           -26.3187666405       46.3791177139       11.8095203535  W2        21056           0.0000000000
     63167     21056  TIP3      H1            -25.7544266405       45.8327777139       11.2624803535  W2        21056           0.0000000000
     63168     21056  TIP3      H2            -26.4664266405       45.8573077139       12.5982803535  W2        21056           0.0000000000
     63169     21057  TIP3      OH2           -31.3167966405       42.5157277139        8.2280003535  W2        21057           0.0000000000
     63170     21057  TIP3      H1            -31.6338466405       41.6132577139        8.1925403535  W2        21057           0.0000000000
     63171     21057  TIP3      H2            -30.5353866405       42.5174677139        7.6751603535  W2        21057           0.0000000000
     63172     21058  TIP3      OH2           -27.6921766405       44.7677277139       14.2235603535  W2        21058           0.0000000000
     63173     21058  TIP3      H1            -28.5276466405       45.2216777139       14.3338003535  W2        21058           0.0000000000
     63174     21058  TIP3      H2            -27.1681166405       45.0435777139       14.9755503535  W2        21058           0.0000000000
     63175     21059  TIP3      OH2           -27.1479166405       50.9804977139        5.9082003535  W2        21059           0.0000000000
     63176     21059  TIP3      H1            -27.8928166405       50.4730277139        5.5859903535  W2        21059           0.0000000000
     63177     21059  TIP3      H2            -27.2821966405       51.0292977139        6.8546803535  W2        21059           0.0000000000
     63178     21060  TIP3      OH2           -19.9980266405       50.1133177139       14.6949603535  W2        21060           0.0000000000
     63179     21060  TIP3      H1            -19.3561466405       50.5699477139       14.1511803535  W2        21060           0.0000000000
     63180     21060  TIP3      H2            -20.8283366405       50.2265577139       14.2323703535  W2        21060           0.0000000000
     63181     21061  TIP3      OH2           -23.2502366405       43.7944877139        4.1074603535  W2        21061           0.0000000000
     63182     21061  TIP3      H1            -24.1888166405       43.9060477139        3.9563403535  W2        21061           0.0000000000
     63183     21061  TIP3      H2            -22.9530266405       44.6511777139        4.4140303535  W2        21061           0.0000000000
     63184     21062  TIP3      OH2           -25.6287066405       51.1648277139       17.1451103535  W2        21062           0.0000000000
     63185     21062  TIP3      H1            -25.9740966405       50.7830677139       17.9520703535  W2        21062           0.0000000000
     63186     21062  TIP3      H2            -25.8286966405       52.0981877139       17.2164003535  W2        21062           0.0000000000
     63187     21063  TIP3      OH2           -22.5318866405       45.6617577139        5.7682003535  W2        21063           0.0000000000
     63188     21063  TIP3      H1            -21.6399866405       45.5242577139        6.0873203535  W2        21063           0.0000000000
     63189     21063  TIP3      H2            -22.4755266405       46.4523677139        5.2315503535  W2        21063           0.0000000000
     63190     21064  TIP3      OH2           -32.0230866405       50.2754977139       11.6779903535  W2        21064           0.0000000000
     63191     21064  TIP3      H1            -31.2783666405       50.2730677139       11.0766403535  W2        21064           0.0000000000
     63192     21064  TIP3      H2            -31.9454266405       49.4518777139       12.1595003535  W2        21064           0.0000000000
     63193     21065  TIP3      OH2           -25.0225066405       52.4389277139        4.9336603535  W2        21065           0.0000000000
     63194     21065  TIP3      H1            -25.3176666405       53.2657177139        5.3151403535  W2        21065           0.0000000000
     63195     21065  TIP3      H2            -25.7255066405       51.8196177139        5.1298003535  W2        21065           0.0000000000
     63196     21066  TIP3      OH2           -35.0151166405       48.7361877139       16.9928403535  W2        21066           0.0000000000
     63197     21066  TIP3      H1            -34.7922566405       48.3181477139       17.8245903535  W2        21066           0.0000000000
     63198     21066  TIP3      H2            -35.6171066405       48.1236877139       16.5701203535  W2        21066           0.0000000000
     63199     21067  TIP3      OH2           -27.9986266405       48.2531777139       19.2058103535  W2        21067           0.0000000000
     63200     21067  TIP3      H1            -28.2945466405       48.0874777139       18.3107203535  W2        21067           0.0000000000
     63201     21067  TIP3      H2            -27.0671066405       48.0332077139       19.1952003535  W2        21067           0.0000000000
     63202     21068  TIP3      OH2           -23.3783466405       53.6263777139       17.0956103535  W2        21068           0.0000000000
     63203     21068  TIP3      H1            -24.2789166405       53.8096377139       16.8280003535  W2        21068           0.0000000000
     63204     21068  TIP3      H2            -23.3442366405       53.8853077139       18.0164903535  W2        21068           0.0000000000
     63205     21069  TIP3      OH2           -17.6470166405       45.8711677139        5.4628703535  W2        21069           0.0000000000
     63206     21069  TIP3      H1            -18.2013866405       45.4749677139        4.7906203535  W2        21069           0.0000000000
     63207     21069  TIP3      H2            -17.5466566405       46.7816877139        5.1852003535  W2        21069           0.0000000000
     63208     21070  TIP3      OH2           -17.6838166405       51.6713377139       18.3000203535  W2        21070           0.0000000000
     63209     21070  TIP3      H1            -18.5349666405       51.9097177139       17.9326603535  W2        21070           0.0000000000
     63210     21070  TIP3      H2            -17.0934766405       51.6546577139       17.5467303535  W2        21070           0.0000000000
     63211     21071  TIP3      OH2           -19.3518466405       54.6572077139        5.9280803535  W2        21071           0.0000000000
     63212     21071  TIP3      H1            -19.7247366405       53.8315877139        6.2371403535  W2        21071           0.0000000000
     63213     21071  TIP3      H2            -19.0744966405       54.4741477139        5.0304203535  W2        21071           0.0000000000
     63214     21072  TIP3      OH2           -22.1914566405       49.4651577139       12.9492703535  W2        21072           0.0000000000
     63215     21072  TIP3      H1            -23.1197666405       49.2333477139       12.9222003535  W2        21072           0.0000000000
     63216     21072  TIP3      H2            -21.7403466405       48.6881377139       12.6191503535  W2        21072           0.0000000000
     63217     21073  TIP3      OH2           -29.6481466405       53.7933177139        9.0821403535  W2        21073           0.0000000000
     63218     21073  TIP3      H1            -29.1209266405       54.5667577139        8.8820203535  W2        21073           0.0000000000
     63219     21073  TIP3      H2            -30.5282966405       54.0182377139        8.7805403535  W2        21073           0.0000000000
     63220     21074  TIP3      OH2           -33.8933766405       48.6557277139        3.6693803535  W2        21074           0.0000000000
     63221     21074  TIP3      H1            -33.2773866405       49.2824477139        4.0488603535  W2        21074           0.0000000000
     63222     21074  TIP3      H2            -34.7551166405       48.9717077139        3.9410303535  W2        21074           0.0000000000
     63223     21075  TIP3      OH2           -28.2209166405       51.4563077139        8.6585703535  W2        21075           0.0000000000
     63224     21075  TIP3      H1            -28.4619166405       52.3817477139        8.7001003535  W2        21075           0.0000000000
     63225     21075  TIP3      H2            -28.9615566405       50.9974377139        9.0549603535  W2        21075           0.0000000000
     63226     21076  TIP3      OH2           -24.1621766405       51.7047377139       14.6742403535  W2        21076           0.0000000000
     63227     21076  TIP3      H1            -24.5880466405       51.4769077139       15.5006403535  W2        21076           0.0000000000
     63228     21076  TIP3      H2            -23.5815966405       50.9659177139       14.4917703535  W2        21076           0.0000000000
     63229     21077  TIP3      OH2           -21.9592866405       52.6337877139        3.7481403535  W2        21077           0.0000000000
     63230     21077  TIP3      H1            -21.6059766405       52.2537677139        4.5524903535  W2        21077           0.0000000000
     63231     21077  TIP3      H2            -22.9079366405       52.5402677139        3.8350703535  W2        21077           0.0000000000
     63232     21078  TIP3      OH2           -33.3811666405       43.4894577139       16.5509803535  W2        21078           0.0000000000
     63233     21078  TIP3      H1            -34.2739366405       43.8279977139       16.4833803535  W2        21078           0.0000000000
     63234     21078  TIP3      H2            -33.4798866405       42.6340677139       16.9690603535  W2        21078           0.0000000000
     63235     21079  TIP3      OH2           -21.0933566405       51.3059877139        5.9749303535  W2        21079           0.0000000000
     63236     21079  TIP3      H1            -21.3705966405       50.5779177139        6.5310403535  W2        21079           0.0000000000
     63237     21079  TIP3      H2            -20.1660566405       51.4251877139        6.1801903535  W2        21079           0.0000000000
     63238     21080  TIP3      OH2           -27.8685066405       53.7453977139        2.1951403535  W2        21080           0.0000000000
     63239     21080  TIP3      H1            -27.6295266405       52.9972077139        1.6480303535  W2        21080           0.0000000000
     63240     21080  TIP3      H2            -28.1373766405       53.3575677139        3.0279203535  W2        21080           0.0000000000
     63241     21081  TIP3      OH2           -28.9314466405       53.3157777139        4.6514003535  W2        21081           0.0000000000
     63242     21081  TIP3      H1            -28.7846466405       52.7957577139        5.4414903535  W2        21081           0.0000000000
     63243     21081  TIP3      H2            -28.9342766405       54.2225377139        4.9579903535  W2        21081           0.0000000000
     63244     21082  TIP3      OH2           -32.4783366405       50.5681077139        5.1619403535  W2        21082           0.0000000000
     63245     21082  TIP3      H1            -33.1644066405       50.9203577139        5.7289103535  W2        21082           0.0000000000
     63246     21082  TIP3      H2            -31.9555466405       51.3310677139        4.9153703535  W2        21082           0.0000000000
     63247     21083  TIP3      OH2           -24.6468266405       43.2304877139       15.4408403535  W2        21083           0.0000000000
     63248     21083  TIP3      H1            -23.9480366405       43.3043577139       16.0908103535  W2        21083           0.0000000000
     63249     21083  TIP3      H2            -25.0276866405       42.3659877139       15.5951303535  W2        21083           0.0000000000
     63250     21084  TIP3      OH2           -23.8623366405       42.8826577139        6.5380703535  W2        21084           0.0000000000
     63251     21084  TIP3      H1            -23.6425066405       43.3541977139        5.7346103535  W2        21084           0.0000000000
     63252     21084  TIP3      H2            -23.3039366405       43.2769177139        7.2081303535  W2        21084           0.0000000000
     63253     21085  TIP3      OH2           -26.6623466405       44.6105377139        7.3729103535  W2        21085           0.0000000000
     63254     21085  TIP3      H1            -25.8500866405       45.1148577139        7.4190803535  W2        21085           0.0000000000
     63255     21085  TIP3      H2            -26.9070466405       44.4655077139        8.2868703535  W2        21085           0.0000000000
     63256     21086  TIP3      OH2           -26.1267066405       45.5968077139       16.5575703535  W2        21086           0.0000000000
     63257     21086  TIP3      H1            -26.0076766405       46.1703477139       17.3146103535  W2        21086           0.0000000000
     63258     21086  TIP3      H2            -25.4712466405       44.9087477139       16.6723503535  W2        21086           0.0000000000
     63259     21087  TIP3      OH2           -25.7786766405       41.6918377139        8.3110203535  W2        21087           0.0000000000
     63260     21087  TIP3      H1            -26.1253266405       42.3088977139        8.9554503535  W2        21087           0.0000000000
     63261     21087  TIP3      H2            -25.1199866405       42.1924077139        7.8295703535  W2        21087           0.0000000000
     63262     21088  TIP3      OH2           -30.1209766405       42.7547777139        4.9982703535  W2        21088           0.0000000000
     63263     21088  TIP3      H1            -30.2044966405       43.6430877139        5.3449103535  W2        21088           0.0000000000
     63264     21088  TIP3      H2            -29.2309466405       42.4894477139        5.2299503535  W2        21088           0.0000000000
     63265     21089  TIP3      OH2           -19.9221266405       43.5038377139       17.3925403535  W2        21089           0.0000000000
     63266     21089  TIP3      H1            -20.8385466405       43.7660077139       17.3049103535  W2        21089           0.0000000000
     63267     21089  TIP3      H2            -19.5866266405       43.5007377139       16.4960703535  W2        21089           0.0000000000
     63268     21090  TIP3      OH2           -21.3200266405       47.2539377139       11.4882703535  W2        21090           0.0000000000
     63269     21090  TIP3      H1            -22.1175866405       46.8389577139       11.1597703535  W2        21090           0.0000000000
     63270     21090  TIP3      H2            -20.8749166405       46.5633077139       11.9793203535  W2        21090           0.0000000000
     63271     21091  TIP3      OH2           -31.8624466405       53.1819977139        4.0587203535  W2        21091           0.0000000000
     63272     21091  TIP3      H1            -31.2702966405       53.8814777139        4.3349603535  W2        21091           0.0000000000
     63273     21091  TIP3      H2            -31.4031466405       52.7489477139        3.3391803535  W2        21091           0.0000000000
     63274     21092  TIP3      OH2           -33.5465266405       45.8462977139        3.1746603535  W2        21092           0.0000000000
     63275     21092  TIP3      H1            -33.5912666405       46.7856077139        3.3533603535  W2        21092           0.0000000000
     63276     21092  TIP3      H2            -34.4342066405       45.6107877139        2.9048703535  W2        21092           0.0000000000
     63277     21093  TIP3      OH2           -32.7383266405       40.6279577139       11.8477603535  W2        21093           0.0000000000
     63278     21093  TIP3      H1            -32.9673466405       40.6872077139       10.9202603535  W2        21093           0.0000000000
     63279     21093  TIP3      H2            -33.1809866405       39.8365077139       12.1541703535  W2        21093           0.0000000000
     63280     21094  TIP3      OH2           -33.8079966405       54.5686677139        8.0083403535  W2        21094           0.0000000000
     63281     21094  TIP3      H1            -34.6401366405       55.0409377139        8.0354803535  W2        21094           0.0000000000
     63282     21094  TIP3      H2            -33.2621666405       55.0784277139        7.4096503535  W2        21094           0.0000000000
     63283     21095  TIP3      OH2           -23.3454166405       54.4805877139       19.6877103535  W2        21095           0.0000000000
     63284     21095  TIP3      H1            -23.6964666405       53.6238877139       19.9307503535  W2        21095           0.0000000000
     63285     21095  TIP3      H2            -22.6190966405       54.6232577139       20.2946103535  W2        21095           0.0000000000
     63286     21096  TIP3      OH2           -34.6126766405       50.9914477139       20.2925703535  W2        21096           0.0000000000
     63287     21096  TIP3      H1            -34.4686266405       50.0895177139       20.0062403535  W2        21096           0.0000000000
     63288     21096  TIP3      H2            -35.3849366405       51.2776577139       19.8048003535  W2        21096           0.0000000000
     63289     21097  TIP3      OH2           -30.2713066405       51.3350177139        2.4250303535  W2        21097           0.0000000000
     63290     21097  TIP3      H1            -30.2068966405       50.5409777139        2.9556703535  W2        21097           0.0000000000
     63291     21097  TIP3      H2            -29.6183866405       51.2162977139        1.7352303535  W2        21097           0.0000000000
     63292     21098  TIP3      OH2           -27.9570666405       50.9612577139       19.7252103535  W2        21098           0.0000000000
     63293     21098  TIP3      H1            -28.2856866405       51.2320677139       18.8679503535  W2        21098           0.0000000000
     63294     21098  TIP3      H2            -27.8052466405       50.0202377139       19.6377103535  W2        21098           0.0000000000
     63295     21099  TIP3      OH2           -24.9189666405       52.3821877139        2.1608303535  W2        21099           0.0000000000
     63296     21099  TIP3      H1            -25.1875566405       52.5623977139        3.0617203535  W2        21099           0.0000000000
     63297     21099  TIP3      H2            -25.1254066405       51.4568077139        2.0294103535  W2        21099           0.0000000000
     63298     21100  TIP3      OH2           -22.2225466405       50.8769877139       17.1084403535  W2        21100           0.0000000000
     63299     21100  TIP3      H1            -21.4770666405       51.4653577139       16.9888403535  W2        21100           0.0000000000
     63300     21100  TIP3      H2            -22.9798666405       51.4589577139       17.1717503535  W2        21100           0.0000000000
     63301     21101  TIP3      OH2           -33.7800266405       48.1917777139       19.7125003535  W2        21101           0.0000000000
     63302     21101  TIP3      H1            -33.3719066405       47.3344377139       19.5915603535  W2        21101           0.0000000000
     63303     21101  TIP3      H2            -34.0402666405       48.2059077139       20.6335303535  W2        21101           0.0000000000
     63304     21102  TIP3      OH2           -29.1219266405       49.3076377139        4.7308303535  W2        21102           0.0000000000
     63305     21102  TIP3      H1            -29.5817266405       48.8234677139        5.4166803535  W2        21102           0.0000000000
     63306     21102  TIP3      H2            -28.8670566405       48.6391777139        4.0948803535  W2        21102           0.0000000000
     63307     21103  TIP3      OH2           -29.8329966405       47.2003477139       17.0867903535  W2        21103           0.0000000000
     63308     21103  TIP3      H1            -30.4513866405       47.8750077139       17.3672603535  W2        21103           0.0000000000
     63309     21103  TIP3      H2            -29.4888766405       47.5217377139       16.2534103535  W2        21103           0.0000000000
     63310     21104  TIP3      OH2           -28.0508866405       47.5508177139        2.9931503535  W2        21104           0.0000000000
     63311     21104  TIP3      H1            -28.2313866405       47.3959377139        2.0659803535  W2        21104           0.0000000000
     63312     21104  TIP3      H2            -27.1008366405       47.6586877139        3.0379403535  W2        21104           0.0000000000
     63313     21105  TIP3      OH2           -24.8131766405       49.6718777139       20.3642703535  W2        21105           0.0000000000
     63314     21105  TIP3      H1            -23.8600566405       49.7557877139       20.3368703535  W2        21105           0.0000000000
     63315     21105  TIP3      H2            -24.9737166405       48.9600577139       20.9837603535  W2        21105           0.0000000000
     63316     21106  TIP3      OH2           -18.6610566405       49.9052377139        2.4389603535  W2        21106           0.0000000000
     63317     21106  TIP3      H1            -18.9345766405       49.4807877139        1.6257903535  W2        21106           0.0000000000
     63318     21106  TIP3      H2            -18.6216466405       50.8366877139        2.2220003535  W2        21106           0.0000000000
     63319     21107  TIP3      OH2           -29.4936266405       44.5554277139       18.1691003535  W2        21107           0.0000000000
     63320     21107  TIP3      H1            -29.3435366405       43.8265577139       17.5670703535  W2        21107           0.0000000000
     63321     21107  TIP3      H2            -29.4913866405       45.3325977139       17.6103203535  W2        21107           0.0000000000
     63322     21108  TIP3      OH2           -29.0810566405       42.9250077139       15.6618403535  W2        21108           0.0000000000
     63323     21108  TIP3      H1            -28.5453066405       43.3766777139       15.0097703535  W2        21108           0.0000000000
     63324     21108  TIP3      H2            -29.9330966405       42.8169877139       15.2392503535  W2        21108           0.0000000000
     63325     21109  TIP3      OH2           -27.4992166405       48.3646277139       15.9013603535  W2        21109           0.0000000000
     63326     21109  TIP3      H1            -26.7487366405       48.2083777139       15.3281403535  W2        21109           0.0000000000
     63327     21109  TIP3      H2            -27.8383866405       49.2162877139       15.6259103535  W2        21109           0.0000000000
     63328     21110  TIP3      OH2           -23.0835966405       46.1798077139       20.9298903535  W2        21110           0.0000000000
     63329     21110  TIP3      H1            -22.8914666405       45.2487477139       20.8183403535  W2        21110           0.0000000000
     63330     21110  TIP3      H2            -22.2259666405       46.6047577139       20.9194303535  W2        21110           0.0000000000
     63331     21111  TIP3      OH2           -21.7668766405       48.9683277139       19.0071603535  W2        21111           0.0000000000
     63332     21111  TIP3      H1            -22.0483766405       49.6777877139       18.4295403535  W2        21111           0.0000000000
     63333     21111  TIP3      H2            -20.8244466405       48.8956277139       18.8562803535  W2        21111           0.0000000000
     63334     21112  TIP3      OH2           -31.0149966405       45.7537777139       20.0806603535  W2        21112           0.0000000000
     63335     21112  TIP3      H1            -31.7820966405       45.2212577139       19.8704203535  W2        21112           0.0000000000
     63336     21112  TIP3      H2            -30.3360966405       45.4438177139       19.4812903535  W2        21112           0.0000000000
     63337     21113  TIP3      OH2           -28.2755066405       40.3815777139       16.0932003535  W2        21113           0.0000000000
     63338     21113  TIP3      H1            -28.3735466405       41.3278977139       15.9878203535  W2        21113           0.0000000000
     63339     21113  TIP3      H2            -29.0178866405       40.0089577139       15.6175503535  W2        21113           0.0000000000
     63340     21114  TIP3      OH2           -27.0114566405       44.7031177139       19.6570403535  W2        21114           0.0000000000
     63341     21114  TIP3      H1            -27.2469166405       44.4837877139       20.5585303535  W2        21114           0.0000000000
     63342     21114  TIP3      H2            -27.7947666405       44.4962377139       19.1472903535  W2        21114           0.0000000000
     63343     21115  TIP3      OH2           -24.2957966405       43.8304677139       18.7323903535  W2        21115           0.0000000000
     63344     21115  TIP3      H1            -25.2432566405       43.8624377139       18.8647203535  W2        21115           0.0000000000
     63345     21115  TIP3      H2            -23.9831266405       43.2051777139       19.3862103535  W2        21115           0.0000000000
     63346     21116  TIP3      OH2           -22.6616466405       42.4645777139       20.7375803535  W2        21116           0.0000000000
     63347     21116  TIP3      H1            -22.7584666405       41.5123077139       20.7317703535  W2        21116           0.0000000000
     63348     21116  TIP3      H2            -22.9833366405       42.7332577139       21.5981303535  W2        21116           0.0000000000
     63349     21117  TIP3      OH2           -32.8347166405       43.6741577139       19.7851303535  W2        21117           0.0000000000
     63350     21117  TIP3      H1            -32.6229766405       42.9677677139       19.1748803535  W2        21117           0.0000000000
     63351     21117  TIP3      H2            -32.9459666405       43.2367577139       20.6292503535  W2        21117           0.0000000000
     63352     21118  TIP3      OH2           -28.0536966405       39.6753177139       18.7644803535  W2        21118           0.0000000000
     63353     21118  TIP3      H1            -27.3418566405       39.0355377139       18.7503903535  W2        21118           0.0000000000
     63354     21118  TIP3      H2            -28.1546566405       39.9421477139       17.8507903535  W2        21118           0.0000000000
     63355     21119  TIP3      OH2           -27.6999466405       41.3581577139       20.8181103535  W2        21119           0.0000000000
     63356     21119  TIP3      H1            -27.8317266405       40.8825377139       19.9979603535  W2        21119           0.0000000000
     63357     21119  TIP3      H2            -28.2992066405       42.1025177139       20.7628203535  W2        21119           0.0000000000
     63358     21120  TIP3      OH2           -34.5852266405       52.8775677139        3.4773203535  W2        21120           0.0000000000
     63359     21120  TIP3      H1            -33.6713066405       52.9564577139        3.7507103535  W2        21120           0.0000000000
     63360     21120  TIP3      H2            -34.5779166405       52.1905277139        2.8108803535  W2        21120           0.0000000000
     63361     21121  TIP3      OH2           -19.5037466405       52.5176777139       20.8997503535  W2        21121           0.0000000000
     63362     21121  TIP3      H1            -20.3696366405       52.4126477139       21.2939803535  W2        21121           0.0000000000
     63363     21121  TIP3      H2            -19.1271566405       53.2760077139       21.3462203535  W2        21121           0.0000000000
     63364     21122  TIP3      OH2           -18.2027766405       50.7740477139        6.4140003535  W2        21122           0.0000000000
     63365     21122  TIP3      H1            -17.3526366405       51.1951377139        6.5411603535  W2        21122           0.0000000000
     63366     21122  TIP3      H2            -18.1972666405       50.0340577139        7.0211403535  W2        21122           0.0000000000
     63367     21123  TIP3      OH2           -17.8082166405       48.8277877139        8.2375703535  W2        21123           0.0000000000
     63368     21123  TIP3      H1            -18.5347566405       48.3480477139        8.6353303535  W2        21123           0.0000000000
     63369     21123  TIP3      H2            -17.2268866405       49.0332577139        8.9697303535  W2        21123           0.0000000000
     63370     21124  TIP3      OH2           -18.0490966405       51.6125377139       13.1853303535  W2        21124           0.0000000000
     63371     21124  TIP3      H1            -17.2156766405       51.2345377139       12.9046903535  W2        21124           0.0000000000
     63372     21124  TIP3      H2            -17.9370666405       52.5556577139       13.0662403535  W2        21124           0.0000000000
     63373     21125  TIP3      OH2           -19.5628666405       54.4902877139       15.4921703535  W2        21125           0.0000000000
     63374     21125  TIP3      H1            -20.2103366405       54.8154377139       16.1176903535  W2        21125           0.0000000000
     63375     21125  TIP3      H2            -20.0804666405       54.0500577139       14.8180003535  W2        21125           0.0000000000
     63376     21126  TIP3      OH2           -17.5399066405       48.7286377139        4.6287003535  W2        21126           0.0000000000
     63377     21126  TIP3      H1            -18.0617966405       49.0850477139        3.9097903535  W2        21126           0.0000000000
     63378     21126  TIP3      H2            -17.5729866405       49.4034177139        5.3067903535  W2        21126           0.0000000000
     63379     21127  TIP3      OH2           -19.1910066405       45.9681977139        3.1794103535  W2        21127           0.0000000000
     63380     21127  TIP3      H1            -19.0945666405       46.6348977139        2.4993803535  W2        21127           0.0000000000
     63381     21127  TIP3      H2            -19.3310466405       45.1528277139        2.6979603535  W2        21127           0.0000000000
     63382     21128  TIP3      OH2           -20.0215366405       47.3484377139        8.8004403535  W2        21128           0.0000000000
     63383     21128  TIP3      H1            -20.1716566405       46.4032977139        8.7802203535  W2        21128           0.0000000000
     63384     21128  TIP3      H2            -20.3750866405       47.6295777139        9.6443503535  W2        21128           0.0000000000
     63385     21129  TIP3      OH2           -34.9862966405       49.4266577139       12.8108203535  W2        21129           0.0000000000
     63386     21129  TIP3      H1            -34.8020066405       49.3448277139       11.8751103535  W2        21129           0.0000000000
     63387     21129  TIP3      H2            -34.1370066405       49.3023577139       13.2344603535  W2        21129           0.0000000000
     63388     21130  TIP3      OH2           -19.1652466405       49.3187677139       18.4392703535  W2        21130           0.0000000000
     63389     21130  TIP3      H1            -18.5825166405       48.5839977139       18.6309903535  W2        21130           0.0000000000
     63390     21130  TIP3      H2            -18.6013166405       50.0907977139       18.4858503535  W2        21130           0.0000000000
     63391     21131  TIP3      OH2           -17.6685366405       47.2213477139       19.1238103535  W2        21131           0.0000000000
     63392     21131  TIP3      H1            -18.5318666405       46.8425577139       18.9582803535  W2        21131           0.0000000000
     63393     21131  TIP3      H2            -17.0641666405       46.4828277139       19.0493903535  W2        21131           0.0000000000
     63394     21132  TIP3      OH2           -19.9436266405       43.3761777139        2.2969603535  W2        21132           0.0000000000
     63395     21132  TIP3      H1            -19.3330466405       43.0048577139        2.9337803535  W2        21132           0.0000000000
     63396     21132  TIP3      H2            -20.7804766405       42.9548677139        2.4929603535  W2        21132           0.0000000000
     63397     21133  TIP3      OH2           -20.3110566405       44.9310177139        7.2629503535  W2        21133           0.0000000000
     63398     21133  TIP3      H1            -20.0313466405       44.0240577139        7.3871203535  W2        21133           0.0000000000
     63399     21133  TIP3      H2            -19.5518866405       45.3651677139        6.8738703535  W2        21133           0.0000000000
     63400     21134  TIP3      OH2           -19.6992266405       45.5127577139       12.6988403535  W2        21134           0.0000000000
     63401     21134  TIP3      H1            -18.7664266405       45.7247477139       12.6644403535  W2        21134           0.0000000000
     63402     21134  TIP3      H2            -19.9344766405       45.6139677139       13.6211403535  W2        21134           0.0000000000
     63403     21135  TIP3      OH2           -19.6700366405       46.2492877139       15.4747803535  W2        21135           0.0000000000
     63404     21135  TIP3      H1            -20.5129066405       46.5173277139       15.8407603535  W2        21135           0.0000000000
     63405     21135  TIP3      H2            -19.2276066405       47.0714777139       15.2638903535  W2        21135           0.0000000000
     63406     21136  TIP3      OH2           -35.3888166405       44.6971577139       18.9517003535  W2        21136           0.0000000000
     63407     21136  TIP3      H1            -34.4693266405       44.5749877139       19.1880103535  W2        21136           0.0000000000
     63408     21136  TIP3      H2            -35.8383666405       43.9471277139       19.3410503535  W2        21136           0.0000000000
     63409     21137  TIP3      OH2           -17.3868766405       40.2293077139       20.8282803535  W2        21137           0.0000000000
     63410     21137  TIP3      H1            -17.0371766405       39.5756577139       20.2227503535  W2        21137           0.0000000000
     63411     21137  TIP3      H2            -17.2399266405       41.0667177139       20.3885403535  W2        21137           0.0000000000
     63412     21138  TIP3      OH2           -19.6975766405       42.1939477139        7.3111503535  W2        21138           0.0000000000
     63413     21138  TIP3      H1            -19.5150766405       41.7450977139        8.1366503535  W2        21138           0.0000000000
     63414     21138  TIP3      H2            -20.2972866405       41.6093877139        6.8476103535  W2        21138           0.0000000000
     63415     21139  TIP3      OH2           -34.1675666405       43.0093177139       11.8429903535  W2        21139           0.0000000000
     63416     21139  TIP3      H1            -33.7224066405       42.2175677139       12.1449603535  W2        21139           0.0000000000
     63417     21139  TIP3      H2            -33.7012666405       43.7258377139       12.2735503535  W2        21139           0.0000000000
     63418     21140  TIP3      OH2           -35.8635366405       46.0086177139       12.9120103535  W2        21140           0.0000000000
     63419     21140  TIP3      H1            -35.3715566405       45.7876677139       12.1212103535  W2        21140           0.0000000000
     63420     21140  TIP3      H2            -35.5014466405       46.8489577139       13.1929603535  W2        21140           0.0000000000
     63421     21141  TIP3      OH2           -17.8671566405       42.3387677139       19.1774103535  W2        21141           0.0000000000
     63422     21141  TIP3      H1            -18.7845866405       42.6094777139       19.1417603535  W2        21141           0.0000000000
     63423     21141  TIP3      H2            -17.7442166405       41.8036077139       18.3933803535  W2        21141           0.0000000000
     63424     21142  TIP3      OH2           -17.8309566405       42.2617577139        3.8391803535  W2        21142           0.0000000000
     63425     21142  TIP3      H1            -17.4186966405       41.5403277139        3.3639803535  W2        21142           0.0000000000
     63426     21142  TIP3      H2            -17.1493066405       42.9312177139        3.8976103535  W2        21142           0.0000000000
     63427     21143  TIP3      OH2           -35.5498866405       42.2665277139        6.9662503535  W2        21143           0.0000000000
     63428     21143  TIP3      H1            -36.4750466405       42.4751877139        6.8368003535  W2        21143           0.0000000000
     63429     21143  TIP3      H2            -35.0958966405       42.7506077139        6.2764803535  W2        21143           0.0000000000
     63430     21144  TIP3      OH2           -35.5863466405       41.0044277139       15.3105003535  W2        21144           0.0000000000
     63431     21144  TIP3      H1            -36.2512966405       40.7584577139       15.9535903535  W2        21144           0.0000000000
     63432     21144  TIP3      H2            -36.0292166405       41.6264677139       14.7333003535  W2        21144           0.0000000000
     63433     21145  TIP3      OH2           -33.3944166405       54.1798377139       19.4550803535  W2        21145           0.0000000000
     63434     21145  TIP3      H1            -34.2151666405       54.3544877139       18.9945503535  W2        21145           0.0000000000
     63435     21145  TIP3      H2            -33.6466366405       54.1063077139       20.3755203535  W2        21145           0.0000000000
     63436     21146  TIP3      OH2           -18.8665666405       40.4283977139       16.9964903535  W2        21146           0.0000000000
     63437     21146  TIP3      H1            -19.6792166405       40.7534277139       16.6089603535  W2        21146           0.0000000000
     63438     21146  TIP3      H2            -18.6337166405       39.6682477139       16.4634003535  W2        21146           0.0000000000
     63439     21147  TIP3      OH2           -25.4367166405       41.8774577139       11.3193103535  W2        21147           0.0000000000
     63440     21147  TIP3      H1            -26.1110366405       41.2480177139       11.5748903535  W2        21147           0.0000000000
     63441     21147  TIP3      H2            -24.8727966405       41.3933477139       10.7161003535  W2        21147           0.0000000000
     63442     21148  TIP3      OH2           -20.2939966405       39.9848577139       11.4320203535  W2        21148           0.0000000000
     63443     21148  TIP3      H1            -19.6902366405       40.5323977139       10.9301203535  W2        21148           0.0000000000
     63444     21148  TIP3      H2            -21.1637966405       40.3038977139       11.1914303535  W2        21148           0.0000000000
     63445     21149  TIP3      OH2           -18.5669566405       41.1237277139        9.7651103535  W2        21149           0.0000000000
     63446     21149  TIP3      H1            -17.9552066405       40.6092977139        9.2384703535  W2        21149           0.0000000000
     63447     21149  TIP3      H2            -18.1846166405       42.0009377139        9.7885503535  W2        21149           0.0000000000
     63448     21150  TIP3      OH2           -33.1099666405       40.5114877139        9.1413003535  W2        21150           0.0000000000
     63449     21150  TIP3      H1            -33.8869866405       40.2769777139        8.6338903535  W2        21150           0.0000000000
     63450     21150  TIP3      H2            -32.5796066405       39.7146977139        9.1501003535  W2        21150           0.0000000000
     63451     21151  TIP3      OH2           -34.2736266405       40.3092977139        4.9449103535  W2        21151           0.0000000000
     63452     21151  TIP3      H1            -33.8345566405       40.9203477139        4.3532603535  W2        21151           0.0000000000
     63453     21151  TIP3      H2            -34.9073866405       40.8477077139        5.4189103535  W2        21151           0.0000000000
     63454     21152  TIP3      OH2           -28.5307066405       40.4381977139        8.9546103535  W2        21152           0.0000000000
     63455     21152  TIP3      H1            -27.6563666405       40.8266277139        8.9250403535  W2        21152           0.0000000000
     63456     21152  TIP3      H2            -28.6666266405       40.2229777139        9.8773303535  W2        21152           0.0000000000
     63457     21153  TIP3      OH2           -22.9738666405       40.4681777139       10.6037803535  W2        21153           0.0000000000
     63458     21153  TIP3      H1            -22.8977066405       40.5633377139        9.6543803535  W2        21153           0.0000000000
     63459     21153  TIP3      H2            -23.2489466405       39.5604677139       10.7326903535  W2        21153           0.0000000000
     63460     21154  TIP3      OH2           -21.6206066405       40.4939577139        6.2962803535  W2        21154           0.0000000000
     63461     21154  TIP3      H1            -22.3234966405       41.1088777139        6.0864203535  W2        21154           0.0000000000
     63462     21154  TIP3      H2            -22.0654666405       39.6566277139        6.4273703535  W2        21154           0.0000000000
     63463     21155  TIP3      OH2           -32.4127166405       42.2254477139        3.3873203535  W2        21155           0.0000000000
     63464     21155  TIP3      H1            -31.9213766405       41.5956877139        2.8598703535  W2        21155           0.0000000000
     63465     21155  TIP3      H2            -31.7890866405       42.5213877139        4.0504403535  W2        21155           0.0000000000
     63466     21156  TIP3      OH2           -27.3867066405       42.5185977139        5.8443703535  W2        21156           0.0000000000
     63467     21156  TIP3      H1            -27.2085766405       41.8719177139        6.5272303535  W2        21156           0.0000000000
     63468     21156  TIP3      H2            -27.4400866405       43.3523677139        6.3114803535  W2        21156           0.0000000000
     63469     21157  TIP3      OH2           -33.1521666405       41.0256777139       18.6589203535  W2        21157           0.0000000000
     63470     21157  TIP3      H1            -33.5183466405       40.2599377139       19.1013903535  W2        21157           0.0000000000
     63471     21157  TIP3      H2            -32.2393166405       41.0546977139       18.9454303535  W2        21157           0.0000000000
     63472     21158  TIP3      OH2           -31.1790866405       40.3761177139       20.1946303535  W2        21158           0.0000000000
     63473     21158  TIP3      H1            -30.2807266405       40.1021377139       20.0099703535  W2        21158           0.0000000000
     63474     21158  TIP3      H2            -31.5657766405       39.6337177139       20.6588903535  W2        21158           0.0000000000
     63475     21159  TIP3      OH2           -22.7578566405       39.7086477139       20.3769103535  W2        21159           0.0000000000
     63476     21159  TIP3      H1            -22.6811366405       39.2827177139       21.2306803535  W2        21159           0.0000000000
     63477     21159  TIP3      H2            -21.8641966405       39.7221177139       20.0342603535  W2        21159           0.0000000000
     63478     21160  TIP3      OH2            -5.1757066405       49.6677177139        9.1000503535  W2        21160           0.0000000000
     63479     21160  TIP3      H1             -5.0865966405       50.6115377139        8.9677603535  W2        21160           0.0000000000
     63480     21160  TIP3      H2             -5.8139466405       49.3923577139        8.4419903535  W2        21160           0.0000000000
     63481     21161  TIP3      OH2            -6.2425766405       48.9227877139       12.5188703535  W2        21161           0.0000000000
     63482     21161  TIP3      H1             -6.2808266405       48.2764177139       13.2238303535  W2        21161           0.0000000000
     63483     21161  TIP3      H2             -6.5649266405       48.4562277139       11.7477403535  W2        21161           0.0000000000
     63484     21162  TIP3      OH2           -13.8740766405       48.5369977139       14.1118603535  W2        21162           0.0000000000
     63485     21162  TIP3      H1            -13.8328666405       47.9113277139       14.8351003535  W2        21162           0.0000000000
     63486     21162  TIP3      H2            -13.1713066405       49.1608577139       14.2939003535  W2        21162           0.0000000000
     63487     21163  TIP3      OH2            -2.5365566405       51.8618277139       10.8203803535  W2        21163           0.0000000000
     63488     21163  TIP3      H1             -2.9772866405       51.1414277139       11.2709403535  W2        21163           0.0000000000
     63489     21163  TIP3      H2             -2.5495866405       52.5825477139       11.4501503535  W2        21163           0.0000000000
     63490     21164  TIP3      OH2           -12.9507666405       52.9868877139       12.6467703535  W2        21164           0.0000000000
     63491     21164  TIP3      H1            -13.3202466405       52.1849377139       12.2772003535  W2        21164           0.0000000000
     63492     21164  TIP3      H2            -12.0096566405       52.8183777139       12.6931103535  W2        21164           0.0000000000
     63493     21165  TIP3      OH2           -16.3407166405       46.6471477139        8.0396503535  W2        21165           0.0000000000
     63494     21165  TIP3      H1            -16.7883766405       47.4930177139        8.0213003535  W2        21165           0.0000000000
     63495     21165  TIP3      H2            -16.9015966405       46.0675677139        7.5241603535  W2        21165           0.0000000000
     63496     21166  TIP3      OH2           -15.6301066405       48.8091077139       10.1654503535  W2        21166           0.0000000000
     63497     21166  TIP3      H1            -15.4167566405       48.0392677139       10.6927503535  W2        21166           0.0000000000
     63498     21166  TIP3      H2            -14.8923466405       48.8987777139        9.5622103535  W2        21166           0.0000000000
     63499     21167  TIP3      OH2            -7.8531366405       51.3549277139       12.9249703535  W2        21167           0.0000000000
     63500     21167  TIP3      H1             -7.5493466405       50.6690677139       12.3303803535  W2        21167           0.0000000000
     63501     21167  TIP3      H2             -7.1317366405       51.4737977139       13.5427703535  W2        21167           0.0000000000
     63502     21168  TIP3      OH2             0.8098433595       42.9564577139       13.7855903535  W2        21168           0.0000000000
     63503     21168  TIP3      H1              0.8590633595       43.5665777139       14.5215003535  W2        21168           0.0000000000
     63504     21168  TIP3      H2              1.2353533595       43.4175477139       13.0627003535  W2        21168           0.0000000000
     63505     21169  TIP3      OH2            -4.7124366405       45.7491677139       13.2524503535  W2        21169           0.0000000000
     63506     21169  TIP3      H1             -4.5698466405       44.8028677139       13.2726103535  W2        21169           0.0000000000
     63507     21169  TIP3      H2             -4.8185366405       45.9561477139       12.3239403535  W2        21169           0.0000000000
     63508     21170  TIP3      OH2           -11.5576066405       43.8508077139       10.5249303535  W2        21170           0.0000000000
     63509     21170  TIP3      H1            -11.5144966405       44.7106577139       10.1065603535  W2        21170           0.0000000000
     63510     21170  TIP3      H2            -12.0151966405       43.2982777139        9.8912503535  W2        21170           0.0000000000
     63511     21171  TIP3      OH2            -3.8353366405       43.9813677139        8.9257603535  W2        21171           0.0000000000
     63512     21171  TIP3      H1             -3.1889066405       43.6526877139        9.5505203535  W2        21171           0.0000000000
     63513     21171  TIP3      H2             -3.3253966405       44.4992677139        8.3029003535  W2        21171           0.0000000000
     63514     21172  TIP3      OH2           -14.9374566405       46.2473877139       11.2870703535  W2        21172           0.0000000000
     63515     21172  TIP3      H1            -14.2837966405       45.6975577139       11.7190803535  W2        21172           0.0000000000
     63516     21172  TIP3      H2            -14.9135266405       45.9732877139       10.3702703535  W2        21172           0.0000000000
     63517     21173  TIP3      OH2            -9.7810066405       47.7975177139       10.5022203535  W2        21173           0.0000000000
     63518     21173  TIP3      H1             -9.1649066405       47.2710577139       11.0116203535  W2        21173           0.0000000000
     63519     21173  TIP3      H2            -10.3671266405       47.1573877139       10.0985803535  W2        21173           0.0000000000
     63520     21174  TIP3      OH2             1.2013033595       44.4343777139       16.0215703535  W2        21174           0.0000000000
     63521     21174  TIP3      H1              0.5127633595       45.0924477139       15.9262303535  W2        21174           0.0000000000
     63522     21174  TIP3      H2              1.2167633595       44.2371677139       16.9581103535  W2        21174           0.0000000000
     63523     21175  TIP3      OH2           -12.7474166405       42.7686477139       14.5990103535  W2        21175           0.0000000000
     63524     21175  TIP3      H1            -12.9662466405       43.2987077139       13.8326103535  W2        21175           0.0000000000
     63525     21175  TIP3      H2            -13.4153266405       42.9951977139       15.2461503535  W2        21175           0.0000000000
     63526     21176  TIP3      OH2            -5.3784366405       52.2687577139        8.1429203535  W2        21176           0.0000000000
     63527     21176  TIP3      H1             -5.6739266405       51.9459877139        7.2916103535  W2        21176           0.0000000000
     63528     21176  TIP3      H2             -5.7026566405       53.1684277139        8.1841803535  W2        21176           0.0000000000
     63529     21177  TIP3      OH2           -10.1782766405       50.4442177139       14.8863803535  W2        21177           0.0000000000
     63530     21177  TIP3      H1            -10.9183666405       51.0423677139       14.9899003535  W2        21177           0.0000000000
     63531     21177  TIP3      H2             -9.4643266405       50.9981777139       14.5707403535  W2        21177           0.0000000000
     63532     21178  TIP3      OH2            -2.0714966405       43.2722977139       10.9063503535  W2        21178           0.0000000000
     63533     21178  TIP3      H1             -2.2866966405       42.5066377139       11.4389503535  W2        21178           0.0000000000
     63534     21178  TIP3      H2             -1.4157566405       43.7447577139       11.4192003535  W2        21178           0.0000000000
     63535     21179  TIP3      OH2           -13.1536866405       44.6608277139       12.5512303535  W2        21179           0.0000000000
     63536     21179  TIP3      H1            -12.5400566405       45.2935877139       12.9244703535  W2        21179           0.0000000000
     63537     21179  TIP3      H2            -12.6416166405       44.1883277139       11.8949203535  W2        21179           0.0000000000
     63538     21180  TIP3      OH2           -11.7708466405       52.4085177139       15.6735303535  W2        21180           0.0000000000
     63539     21180  TIP3      H1            -11.7760866405       53.2878677139       15.2954603535  W2        21180           0.0000000000
     63540     21180  TIP3      H2            -12.6244366405       52.3249277139       16.0985203535  W2        21180           0.0000000000
     63541     21181  TIP3      OH2           -15.6497566405       52.0793077139        6.4554603535  W2        21181           0.0000000000
     63542     21181  TIP3      H1            -15.9216666405       52.3084077139        5.5667503535  W2        21181           0.0000000000
     63543     21181  TIP3      H2            -15.6041866405       52.9171877139        6.9159903535  W2        21181           0.0000000000
     63544     21182  TIP3      OH2            -2.0247866405       53.7008977139       13.1683103535  W2        21182           0.0000000000
     63545     21182  TIP3      H1             -2.9664166405       53.7592877139       13.3300003535  W2        21182           0.0000000000
     63546     21182  TIP3      H2             -1.7481766405       54.6069477139       13.0312803535  W2        21182           0.0000000000
     63547     21183  TIP3      OH2            -1.7240866405       41.9874277139       14.5857003535  W2        21183           0.0000000000
     63548     21183  TIP3      H1             -2.4601666405       42.5981377139       14.5478303535  W2        21183           0.0000000000
     63549     21183  TIP3      H2             -1.0406866405       42.4023277139       14.0593403535  W2        21183           0.0000000000
     63550     21184  TIP3      OH2            -8.7209466405       40.0741577139       12.0515003535  W2        21184           0.0000000000
     63551     21184  TIP3      H1             -8.8385266405       39.1257577139       11.9973303535  W2        21184           0.0000000000
     63552     21184  TIP3      H2             -9.5759366405       40.4067677139       12.3246103535  W2        21184           0.0000000000
     63553     21185  TIP3      OH2            -2.6130166405       53.3830977139        8.3021303535  W2        21185           0.0000000000
     63554     21185  TIP3      H1             -2.8705366405       52.6931077139        7.6907203535  W2        21185           0.0000000000
     63555     21185  TIP3      H2             -2.5419366405       52.9402177139        9.1477203535  W2        21185           0.0000000000
     63556     21186  TIP3      OH2            -0.9269966405       51.9497677139       16.7794803535  W2        21186           0.0000000000
     63557     21186  TIP3      H1             -0.7873666405       51.3580177139       16.0401803535  W2        21186           0.0000000000
     63558     21186  TIP3      H2             -0.7597166405       52.8223577139       16.4233603535  W2        21186           0.0000000000
     63559     21187  TIP3      OH2            -6.4544566405       48.9117177139        6.5520803535  W2        21187           0.0000000000
     63560     21187  TIP3      H1             -7.1659066405       49.4466877139        6.2001303535  W2        21187           0.0000000000
     63561     21187  TIP3      H2             -5.7634966405       48.9669277139        5.8919703535  W2        21187           0.0000000000
     63562     21188  TIP3      OH2            -6.4005366405       47.3691477139        3.5905803535  W2        21188           0.0000000000
     63563     21188  TIP3      H1             -5.6995466405       47.3918377139        4.2419803535  W2        21188           0.0000000000
     63564     21188  TIP3      H2             -6.0982466405       46.7411177139        2.9345103535  W2        21188           0.0000000000
     63565     21189  TIP3      OH2             0.9149333595       48.2895677139       14.8455203535  W2        21189           0.0000000000
     63566     21189  TIP3      H1              0.2623433595       48.9841277139       14.9346103535  W2        21189           0.0000000000
     63567     21189  TIP3      H2              1.3799633595       48.4996577139       14.0356803535  W2        21189           0.0000000000
     63568     21190  TIP3      OH2            -3.0486866405       49.1210477139        7.5036703535  W2        21190           0.0000000000
     63569     21190  TIP3      H1             -3.7805866405       49.3494177139        8.0767303535  W2        21190           0.0000000000
     63570     21190  TIP3      H2             -2.6014666405       48.4073177139        7.9584203535  W2        21190           0.0000000000
     63571     21191  TIP3      OH2            -3.1513366405       47.2953077139       16.5713703535  W2        21191           0.0000000000
     63572     21191  TIP3      H1             -3.0714266405       48.0587477139       17.1432203535  W2        21191           0.0000000000
     63573     21191  TIP3      H2             -3.7525666405       47.5745477139       15.8808803535  W2        21191           0.0000000000
     63574     21192  TIP3      OH2           -11.4033166405       49.7516677139        9.3861703535  W2        21192           0.0000000000
     63575     21192  TIP3      H1            -11.7337966405       49.3810077139        8.5678703535  W2        21192           0.0000000000
     63576     21192  TIP3      H2            -10.8149066405       49.0810677139        9.7330003535  W2        21192           0.0000000000
     63577     21193  TIP3      OH2           -10.0365666405       53.1797277139       12.0673903535  W2        21193           0.0000000000
     63578     21193  TIP3      H1            -10.1314366405       52.6010377139       11.3108503535  W2        21193           0.0000000000
     63579     21193  TIP3      H2             -9.3072066405       52.8082977139       12.5636703535  W2        21193           0.0000000000
     63580     21194  TIP3      OH2           -11.0367666405       48.5202277139       13.0196703535  W2        21194           0.0000000000
     63581     21194  TIP3      H1            -10.4715166405       48.6416477139       12.2567903535  W2        21194           0.0000000000
     63582     21194  TIP3      H2            -10.7178766405       49.1577277139       13.6585203535  W2        21194           0.0000000000
     63583     21195  TIP3      OH2            -4.7275466405       54.0234177139       13.7537203535  W2        21195           0.0000000000
     63584     21195  TIP3      H1             -4.9678866405       54.6857277139       14.4016403535  W2        21195           0.0000000000
     63585     21195  TIP3      H2             -4.9257266405       53.1889377139       14.1786803535  W2        21195           0.0000000000
     63586     21196  TIP3      OH2           -10.1566966405       52.9194977139       17.7368603535  W2        21196           0.0000000000
     63587     21196  TIP3      H1            -10.4679466405       53.7018177139       18.1921803535  W2        21196           0.0000000000
     63588     21196  TIP3      H2            -10.8066766405       52.7664077139       17.0510603535  W2        21196           0.0000000000
     63589     21197  TIP3      OH2            -4.1777366405       48.2833377139        5.1887903535  W2        21197           0.0000000000
     63590     21197  TIP3      H1             -3.5981866405       48.4333677139        5.9356803535  W2        21197           0.0000000000
     63591     21197  TIP3      H2             -3.7637366405       48.7540777139        4.4654303535  W2        21197           0.0000000000
     63592     21198  TIP3      OH2           -13.2367066405       49.1176077139       16.9654303535  W2        21198           0.0000000000
     63593     21198  TIP3      H1            -13.1663866405       49.7682877139       17.6639303535  W2        21198           0.0000000000
     63594     21198  TIP3      H2            -14.1274866405       49.2203577139       16.6305203535  W2        21198           0.0000000000
     63595     21199  TIP3      OH2           -11.9171066405       54.9909977139       18.5002403535  W2        21199           0.0000000000
     63596     21199  TIP3      H1            -11.9095766405       54.8549677139       17.5527903535  W2        21199           0.0000000000
     63597     21199  TIP3      H2            -12.8330666405       54.8738077139       18.7522403535  W2        21199           0.0000000000
     63598     21200  TIP3      OH2            -0.4788966405       40.0333777139        5.0017603535  W2        21200           0.0000000000
     63599     21200  TIP3      H1             -1.3788266405       40.1722777139        5.2968203535  W2        21200           0.0000000000
     63600     21200  TIP3      H2             -0.2270566405       40.8648377139        4.5999303535  W2        21200           0.0000000000
     63601     21201  TIP3      OH2           -12.4130466405       48.8210977139        6.9754503535  W2        21201           0.0000000000
     63602     21201  TIP3      H1            -12.7049166405       49.5892677139        6.4845803535  W2        21201           0.0000000000
     63603     21201  TIP3      H2            -13.0875266405       48.1617177139        6.8125903535  W2        21201           0.0000000000
     63604     21202  TIP3      OH2             0.7102433595       54.3996177139        3.3781503535  W2        21202           0.0000000000
     63605     21202  TIP3      H1              0.7835933595       55.3386377139        3.5486803535  W2        21202           0.0000000000
     63606     21202  TIP3      H2              1.6157533595       54.0944777139        3.3218803535  W2        21202           0.0000000000
     63607     21203  TIP3      OH2           -16.3200366405       51.1840177139       15.7904303535  W2        21203           0.0000000000
     63608     21203  TIP3      H1            -16.8211966405       51.1559577139       14.9754003535  W2        21203           0.0000000000
     63609     21203  TIP3      H2            -16.3146666405       50.2783377139       16.1001603535  W2        21203           0.0000000000
     63610     21204  TIP3      OH2           -16.5697666405       53.9643977139       12.6744503535  W2        21204           0.0000000000
     63611     21204  TIP3      H1            -15.6237066405       53.8200977139       12.6554003535  W2        21204           0.0000000000
     63612     21204  TIP3      H2            -16.6821366405       54.7486777139       13.2115703535  W2        21204           0.0000000000
     63613     21205  TIP3      OH2             1.6280833595       54.6303677139       18.3568203535  W2        21205           0.0000000000
     63614     21205  TIP3      H1              1.5787633595       53.6751777139       18.3195803535  W2        21205           0.0000000000
     63615     21205  TIP3      H2              0.8013133595       54.8978977139       18.7582003535  W2        21205           0.0000000000
     63616     21206  TIP3      OH2            -7.3935166405       54.2042877139       17.2329603535  W2        21206           0.0000000000
     63617     21206  TIP3      H1             -7.3060566405       55.0307477139       17.7078703535  W2        21206           0.0000000000
     63618     21206  TIP3      H2             -8.2570066405       53.8746677139       17.4818903535  W2        21206           0.0000000000
     63619     21207  TIP3      OH2            -1.2199366405       46.1236177139       18.8370403535  W2        21207           0.0000000000
     63620     21207  TIP3      H1             -1.6272566405       46.6041777139       18.1163703535  W2        21207           0.0000000000
     63621     21207  TIP3      H2             -1.1793666405       45.2182177139       18.5291203535  W2        21207           0.0000000000
     63622     21208  TIP3      OH2           -14.0709866405       52.5075577139       16.8337103535  W2        21208           0.0000000000
     63623     21208  TIP3      H1            -13.8548566405       52.1461177139       17.6932903535  W2        21208           0.0000000000
     63624     21208  TIP3      H2            -14.9265166405       52.1329377139       16.6240603535  W2        21208           0.0000000000
     63625     21209  TIP3      OH2           -11.4521866405       40.9776077139       12.8291303535  W2        21209           0.0000000000
     63626     21209  TIP3      H1            -12.3138166405       40.8904277139       12.4214203535  W2        21209           0.0000000000
     63627     21209  TIP3      H2            -11.4746166405       41.8336177139       13.2568903535  W2        21209           0.0000000000
     63628     21210  TIP3      OH2            -6.7894066405       40.6996477139       16.2038303535  W2        21210           0.0000000000
     63629     21210  TIP3      H1             -6.3690966405       40.2843577139       16.9568903535  W2        21210           0.0000000000
     63630     21210  TIP3      H2             -7.7224466405       40.5209777139       16.3210303535  W2        21210           0.0000000000
     63631     21211  TIP3      OH2            -3.4629166405       44.4551677139       17.0572803535  W2        21211           0.0000000000
     63632     21211  TIP3      H1             -3.9769666405       44.3293877139       17.8548803535  W2        21211           0.0000000000
     63633     21211  TIP3      H2             -3.6184466405       45.3674777139       16.8129003535  W2        21211           0.0000000000
     63634     21212  TIP3      OH2            -2.7004266405       49.3161677139        2.8185803535  W2        21212           0.0000000000
     63635     21212  TIP3      H1             -2.6583466405       49.0935577139        1.8885803535  W2        21212           0.0000000000
     63636     21212  TIP3      H2             -1.8512166405       49.7148777139        3.0085703535  W2        21212           0.0000000000
     63637     21213  TIP3      OH2            -7.1276766405       43.1919877139        3.4889103535  W2        21213           0.0000000000
     63638     21213  TIP3      H1             -7.3811966405       43.2111477139        4.4117203535  W2        21213           0.0000000000
     63639     21213  TIP3      H2             -7.3844666405       42.3205277139        3.1875303535  W2        21213           0.0000000000
     63640     21214  TIP3      OH2           -11.3611766405       45.9430577139       13.9241503535  W2        21214           0.0000000000
     63641     21214  TIP3      H1            -12.0029666405       45.9027877139       14.6331603535  W2        21214           0.0000000000
     63642     21214  TIP3      H2            -11.3239766405       46.8695277139       13.6864503535  W2        21214           0.0000000000
     63643     21215  TIP3      OH2           -11.3642666405       46.1640677139        8.8361503535  W2        21215           0.0000000000
     63644     21215  TIP3      H1            -12.2569766405       45.8236777139        8.7775303535  W2        21215           0.0000000000
     63645     21215  TIP3      H2            -10.9136066405       45.7871577139        8.0804703535  W2        21215           0.0000000000
     63646     21216  TIP3      OH2            -5.8287166405       46.5800977139        7.6532303535  W2        21216           0.0000000000
     63647     21216  TIP3      H1             -6.2376866405       47.3949577139        7.3617103535  W2        21216           0.0000000000
     63648     21216  TIP3      H2             -5.1080966405       46.4401077139        7.0389403535  W2        21216           0.0000000000
     63649     21217  TIP3      OH2            -6.7265566405       46.7557377139       19.1413003535  W2        21217           0.0000000000
     63650     21217  TIP3      H1             -7.2891766405       46.0508977139       19.4620803535  W2        21217           0.0000000000
     63651     21217  TIP3      H2             -5.9002166405       46.6349277139       19.6090603535  W2        21217           0.0000000000
     63652     21218  TIP3      OH2            -4.8239466405       46.0261377139       10.4672003535  W2        21218           0.0000000000
     63653     21218  TIP3      H1             -5.0194966405       46.6318177139        9.7522603535  W2        21218           0.0000000000
     63654     21218  TIP3      H2             -4.6426866405       45.1926577139       10.0328303535  W2        21218           0.0000000000
     63655     21219  TIP3      OH2           -13.6111266405       46.2634077139       15.7913503535  W2        21219           0.0000000000
     63656     21219  TIP3      H1            -13.6491866405       46.6635677139       16.6600603535  W2        21219           0.0000000000
     63657     21219  TIP3      H2            -14.1020166405       45.4466477139       15.8816403535  W2        21219           0.0000000000
     63658     21220  TIP3      OH2           -10.2453866405       43.6376377139        2.5899503535  W2        21220           0.0000000000
     63659     21220  TIP3      H1            -10.6763166405       43.1926477139        3.3196903535  W2        21220           0.0000000000
     63660     21220  TIP3      H2            -10.9635166405       44.0092677139        2.0777003535  W2        21220           0.0000000000
     63661     21221  TIP3      OH2           -17.0030466405       43.3795877139        9.6418203535  W2        21221           0.0000000000
     63662     21221  TIP3      H1            -16.3722766405       43.3507977139       10.3612103535  W2        21221           0.0000000000
     63663     21221  TIP3      H2            -16.5536166405       42.9544577139        8.9114103535  W2        21221           0.0000000000
     63664     21222  TIP3      OH2           -15.7288366405       44.1257877139        5.0658603535  W2        21222           0.0000000000
     63665     21222  TIP3      H1            -15.2546666405       44.7167777139        4.4809503535  W2        21222           0.0000000000
     63666     21222  TIP3      H2            -16.4461966405       44.6560777139        5.4128703535  W2        21222           0.0000000000
     63667     21223  TIP3      OH2            -5.5600266405       47.6642677139       15.1384403535  W2        21223           0.0000000000
     63668     21223  TIP3      H1             -5.2365466405       47.0332377139       14.4954903535  W2        21223           0.0000000000
     63669     21223  TIP3      H2             -6.0000966405       47.1294877139       15.7991803535  W2        21223           0.0000000000
     63670     21224  TIP3      OH2            -8.7827366405       43.5918177139        9.9225603535  W2        21224           0.0000000000
     63671     21224  TIP3      H1             -9.6936266405       43.6484977139       10.2111603535  W2        21224           0.0000000000
     63672     21224  TIP3      H2             -8.2774466405       43.5313677139       10.7332803535  W2        21224           0.0000000000
     63673     21225  TIP3      OH2           -13.9543966405       45.2204477139        8.7493203535  W2        21225           0.0000000000
     63674     21225  TIP3      H1            -14.8435966405       45.3199977139        8.4092803535  W2        21225           0.0000000000
     63675     21225  TIP3      H2            -13.6579066405       44.3787477139        8.4031103535  W2        21225           0.0000000000
     63676     21226  TIP3      OH2           -10.3012166405       45.2207077139        6.4057803535  W2        21226           0.0000000000
     63677     21226  TIP3      H1             -9.3696666405       45.3497077139        6.5840903535  W2        21226           0.0000000000
     63678     21226  TIP3      H2            -10.5161866405       45.8901377139        5.7562503535  W2        21226           0.0000000000
     63679     21227  TIP3      OH2            -4.3775466405       42.8264477139       13.1867403535  W2        21227           0.0000000000
     63680     21227  TIP3      H1             -5.0543866405       42.9577577139       13.8507103535  W2        21227           0.0000000000
     63681     21227  TIP3      H2             -4.8630566405       42.6713977139       12.3765103535  W2        21227           0.0000000000
     63682     21228  TIP3      OH2           -11.6271966405       46.4149277139        3.9723903535  W2        21228           0.0000000000
     63683     21228  TIP3      H1            -12.1696866405       46.0353077139        3.2811503535  W2        21228           0.0000000000
     63684     21228  TIP3      H2            -10.7937066405       46.6093977139        3.5438003535  W2        21228           0.0000000000
     63685     21229  TIP3      OH2           -13.4920566405       50.9721177139       19.0715503535  W2        21229           0.0000000000
     63686     21229  TIP3      H1            -12.7598166405       51.2267077139       19.6330003535  W2        21229           0.0000000000
     63687     21229  TIP3      H2            -14.2721866405       51.1766577139       19.5870903535  W2        21229           0.0000000000
     63688     21230  TIP3      OH2            -7.4627666405       46.3791177139       11.8095203535  W2        21230           0.0000000000
     63689     21230  TIP3      H1             -6.8984266405       45.8327777139       11.2624803535  W2        21230           0.0000000000
     63690     21230  TIP3      H2             -7.6104266405       45.8573077139       12.5982803535  W2        21230           0.0000000000
     63691     21231  TIP3      OH2           -12.4607966405       42.5157277139        8.2280003535  W2        21231           0.0000000000
     63692     21231  TIP3      H1            -12.7778466405       41.6132577139        8.1925403535  W2        21231           0.0000000000
     63693     21231  TIP3      H2            -11.6793866405       42.5174677139        7.6751603535  W2        21231           0.0000000000
     63694     21232  TIP3      OH2            -8.8361766405       44.7677277139       14.2235603535  W2        21232           0.0000000000
     63695     21232  TIP3      H1             -9.6716466405       45.2216777139       14.3338003535  W2        21232           0.0000000000
     63696     21232  TIP3      H2             -8.3121166405       45.0435777139       14.9755503535  W2        21232           0.0000000000
     63697     21233  TIP3      OH2            -8.2919166405       50.9804977139        5.9082003535  W2        21233           0.0000000000
     63698     21233  TIP3      H1             -9.0368166405       50.4730277139        5.5859903535  W2        21233           0.0000000000
     63699     21233  TIP3      H2             -8.4261966405       51.0292977139        6.8546803535  W2        21233           0.0000000000
     63700     21234  TIP3      OH2            -1.1420266405       50.1133177139       14.6949603535  W2        21234           0.0000000000
     63701     21234  TIP3      H1             -0.5001466405       50.5699477139       14.1511803535  W2        21234           0.0000000000
     63702     21234  TIP3      H2             -1.9723366405       50.2265577139       14.2323703535  W2        21234           0.0000000000
     63703     21235  TIP3      OH2            -4.3942366405       43.7944877139        4.1074603535  W2        21235           0.0000000000
     63704     21235  TIP3      H1             -5.3328166405       43.9060477139        3.9563403535  W2        21235           0.0000000000
     63705     21235  TIP3      H2             -4.0970266405       44.6511777139        4.4140303535  W2        21235           0.0000000000
     63706     21236  TIP3      OH2            -6.7727066405       51.1648277139       17.1451103535  W2        21236           0.0000000000
     63707     21236  TIP3      H1             -7.1180966405       50.7830677139       17.9520703535  W2        21236           0.0000000000
     63708     21236  TIP3      H2             -6.9726966405       52.0981877139       17.2164003535  W2        21236           0.0000000000
     63709     21237  TIP3      OH2            -3.6758866405       45.6617577139        5.7682003535  W2        21237           0.0000000000
     63710     21237  TIP3      H1             -2.7839866405       45.5242577139        6.0873203535  W2        21237           0.0000000000
     63711     21237  TIP3      H2             -3.6195266405       46.4523677139        5.2315503535  W2        21237           0.0000000000
     63712     21238  TIP3      OH2           -13.1670866405       50.2754977139       11.6779903535  W2        21238           0.0000000000
     63713     21238  TIP3      H1            -12.4223666405       50.2730677139       11.0766403535  W2        21238           0.0000000000
     63714     21238  TIP3      H2            -13.0894266405       49.4518777139       12.1595003535  W2        21238           0.0000000000
     63715     21239  TIP3      OH2            -6.1665066405       52.4389277139        4.9336603535  W2        21239           0.0000000000
     63716     21239  TIP3      H1             -6.4616666405       53.2657177139        5.3151403535  W2        21239           0.0000000000
     63717     21239  TIP3      H2             -6.8695066405       51.8196177139        5.1298003535  W2        21239           0.0000000000
     63718     21240  TIP3      OH2           -16.1591166405       48.7361877139       16.9928403535  W2        21240           0.0000000000
     63719     21240  TIP3      H1            -15.9362566405       48.3181477139       17.8245903535  W2        21240           0.0000000000
     63720     21240  TIP3      H2            -16.7611066405       48.1236877139       16.5701203535  W2        21240           0.0000000000
     63721     21241  TIP3      OH2            -9.1426266405       48.2531777139       19.2058103535  W2        21241           0.0000000000
     63722     21241  TIP3      H1             -9.4385466405       48.0874777139       18.3107203535  W2        21241           0.0000000000
     63723     21241  TIP3      H2             -8.2111066405       48.0332077139       19.1952003535  W2        21241           0.0000000000
     63724     21242  TIP3      OH2            -4.5223466405       53.6263777139       17.0956103535  W2        21242           0.0000000000
     63725     21242  TIP3      H1             -5.4229166405       53.8096377139       16.8280003535  W2        21242           0.0000000000
     63726     21242  TIP3      H2             -4.4882366405       53.8853077139       18.0164903535  W2        21242           0.0000000000
     63727     21243  TIP3      OH2             1.2089833595       45.8711677139        5.4628703535  W2        21243           0.0000000000
     63728     21243  TIP3      H1              0.6546133595       45.4749677139        4.7906203535  W2        21243           0.0000000000
     63729     21243  TIP3      H2              1.3093433595       46.7816877139        5.1852003535  W2        21243           0.0000000000
     63730     21244  TIP3      OH2             1.1721833595       51.6713377139       18.3000203535  W2        21244           0.0000000000
     63731     21244  TIP3      H1              0.3210333595       51.9097177139       17.9326603535  W2        21244           0.0000000000
     63732     21244  TIP3      H2              1.7625233595       51.6546577139       17.5467303535  W2        21244           0.0000000000
     63733     21245  TIP3      OH2            -0.4958466405       54.6572077139        5.9280803535  W2        21245           0.0000000000
     63734     21245  TIP3      H1             -0.8687366405       53.8315877139        6.2371403535  W2        21245           0.0000000000
     63735     21245  TIP3      H2             -0.2184966405       54.4741477139        5.0304203535  W2        21245           0.0000000000
     63736     21246  TIP3      OH2            -3.3354566405       49.4651577139       12.9492703535  W2        21246           0.0000000000
     63737     21246  TIP3      H1             -4.2637666405       49.2333477139       12.9222003535  W2        21246           0.0000000000
     63738     21246  TIP3      H2             -2.8843466405       48.6881377139       12.6191503535  W2        21246           0.0000000000
     63739     21247  TIP3      OH2           -10.7921466405       53.7933177139        9.0821403535  W2        21247           0.0000000000
     63740     21247  TIP3      H1            -10.2649266405       54.5667577139        8.8820203535  W2        21247           0.0000000000
     63741     21247  TIP3      H2            -11.6722966405       54.0182377139        8.7805403535  W2        21247           0.0000000000
     63742     21248  TIP3      OH2           -15.0373766405       48.6557277139        3.6693803535  W2        21248           0.0000000000
     63743     21248  TIP3      H1            -14.4213866405       49.2824477139        4.0488603535  W2        21248           0.0000000000
     63744     21248  TIP3      H2            -15.8991166405       48.9717077139        3.9410303535  W2        21248           0.0000000000
     63745     21249  TIP3      OH2            -9.3649166405       51.4563077139        8.6585703535  W2        21249           0.0000000000
     63746     21249  TIP3      H1             -9.6059166405       52.3817477139        8.7001003535  W2        21249           0.0000000000
     63747     21249  TIP3      H2            -10.1055566405       50.9974377139        9.0549603535  W2        21249           0.0000000000
     63748     21250  TIP3      OH2            -5.3061766405       51.7047377139       14.6742403535  W2        21250           0.0000000000
     63749     21250  TIP3      H1             -5.7320466405       51.4769077139       15.5006403535  W2        21250           0.0000000000
     63750     21250  TIP3      H2             -4.7255966405       50.9659177139       14.4917703535  W2        21250           0.0000000000
     63751     21251  TIP3      OH2            -3.1032866405       52.6337877139        3.7481403535  W2        21251           0.0000000000
     63752     21251  TIP3      H1             -2.7499766405       52.2537677139        4.5524903535  W2        21251           0.0000000000
     63753     21251  TIP3      H2             -4.0519366405       52.5402677139        3.8350703535  W2        21251           0.0000000000
     63754     21252  TIP3      OH2           -14.5251666405       43.4894577139       16.5509803535  W2        21252           0.0000000000
     63755     21252  TIP3      H1            -15.4179366405       43.8279977139       16.4833803535  W2        21252           0.0000000000
     63756     21252  TIP3      H2            -14.6238866405       42.6340677139       16.9690603535  W2        21252           0.0000000000
     63757     21253  TIP3      OH2            -2.2373566405       51.3059877139        5.9749303535  W2        21253           0.0000000000
     63758     21253  TIP3      H1             -2.5145966405       50.5779177139        6.5310403535  W2        21253           0.0000000000
     63759     21253  TIP3      H2             -1.3100566405       51.4251877139        6.1801903535  W2        21253           0.0000000000
     63760     21254  TIP3      OH2            -9.0125066405       53.7453977139        2.1951403535  W2        21254           0.0000000000
     63761     21254  TIP3      H1             -8.7735266405       52.9972077139        1.6480303535  W2        21254           0.0000000000
     63762     21254  TIP3      H2             -9.2813766405       53.3575677139        3.0279203535  W2        21254           0.0000000000
     63763     21255  TIP3      OH2           -10.0754466405       53.3157777139        4.6514003535  W2        21255           0.0000000000
     63764     21255  TIP3      H1             -9.9286466405       52.7957577139        5.4414903535  W2        21255           0.0000000000
     63765     21255  TIP3      H2            -10.0782766405       54.2225377139        4.9579903535  W2        21255           0.0000000000
     63766     21256  TIP3      OH2           -13.6223366405       50.5681077139        5.1619403535  W2        21256           0.0000000000
     63767     21256  TIP3      H1            -14.3084066405       50.9203577139        5.7289103535  W2        21256           0.0000000000
     63768     21256  TIP3      H2            -13.0995466405       51.3310677139        4.9153703535  W2        21256           0.0000000000
     63769     21257  TIP3      OH2            -5.7908266405       43.2304877139       15.4408403535  W2        21257           0.0000000000
     63770     21257  TIP3      H1             -5.0920366405       43.3043577139       16.0908103535  W2        21257           0.0000000000
     63771     21257  TIP3      H2             -6.1716866405       42.3659877139       15.5951303535  W2        21257           0.0000000000
     63772     21258  TIP3      OH2            -5.0063366405       42.8826577139        6.5380703535  W2        21258           0.0000000000
     63773     21258  TIP3      H1             -4.7865066405       43.3541977139        5.7346103535  W2        21258           0.0000000000
     63774     21258  TIP3      H2             -4.4479366405       43.2769177139        7.2081303535  W2        21258           0.0000000000
     63775     21259  TIP3      OH2            -7.8063466405       44.6105377139        7.3729103535  W2        21259           0.0000000000
     63776     21259  TIP3      H1             -6.9940866405       45.1148577139        7.4190803535  W2        21259           0.0000000000
     63777     21259  TIP3      H2             -8.0510466405       44.4655077139        8.2868703535  W2        21259           0.0000000000
     63778     21260  TIP3      OH2            -7.2707066405       45.5968077139       16.5575703535  W2        21260           0.0000000000
     63779     21260  TIP3      H1             -7.1516766405       46.1703477139       17.3146103535  W2        21260           0.0000000000
     63780     21260  TIP3      H2             -6.6152466405       44.9087477139       16.6723503535  W2        21260           0.0000000000
     63781     21261  TIP3      OH2            -6.9226766405       41.6918377139        8.3110203535  W2        21261           0.0000000000
     63782     21261  TIP3      H1             -7.2693266405       42.3088977139        8.9554503535  W2        21261           0.0000000000
     63783     21261  TIP3      H2             -6.2639866405       42.1924077139        7.8295703535  W2        21261           0.0000000000
     63784     21262  TIP3      OH2           -11.2649766405       42.7547777139        4.9982703535  W2        21262           0.0000000000
     63785     21262  TIP3      H1            -11.3484966405       43.6430877139        5.3449103535  W2        21262           0.0000000000
     63786     21262  TIP3      H2            -10.3749466405       42.4894477139        5.2299503535  W2        21262           0.0000000000
     63787     21263  TIP3      OH2            -1.0661266405       43.5038377139       17.3925403535  W2        21263           0.0000000000
     63788     21263  TIP3      H1             -1.9825466405       43.7660077139       17.3049103535  W2        21263           0.0000000000
     63789     21263  TIP3      H2             -0.7306266405       43.5007377139       16.4960703535  W2        21263           0.0000000000
     63790     21264  TIP3      OH2            -2.4640266405       47.2539377139       11.4882703535  W2        21264           0.0000000000
     63791     21264  TIP3      H1             -3.2615866405       46.8389577139       11.1597703535  W2        21264           0.0000000000
     63792     21264  TIP3      H2             -2.0189166405       46.5633077139       11.9793203535  W2        21264           0.0000000000
     63793     21265  TIP3      OH2           -13.0064466405       53.1819977139        4.0587203535  W2        21265           0.0000000000
     63794     21265  TIP3      H1            -12.4142966405       53.8814777139        4.3349603535  W2        21265           0.0000000000
     63795     21265  TIP3      H2            -12.5471466405       52.7489477139        3.3391803535  W2        21265           0.0000000000
     63796     21266  TIP3      OH2           -14.6905266405       45.8462977139        3.1746603535  W2        21266           0.0000000000
     63797     21266  TIP3      H1            -14.7352666405       46.7856077139        3.3533603535  W2        21266           0.0000000000
     63798     21266  TIP3      H2            -15.5782066405       45.6107877139        2.9048703535  W2        21266           0.0000000000
     63799     21267  TIP3      OH2           -13.8823266405       40.6279577139       11.8477603535  W2        21267           0.0000000000
     63800     21267  TIP3      H1            -14.1113466405       40.6872077139       10.9202603535  W2        21267           0.0000000000
     63801     21267  TIP3      H2            -14.3249866405       39.8365077139       12.1541703535  W2        21267           0.0000000000
     63802     21268  TIP3      OH2           -14.9519966405       54.5686677139        8.0083403535  W2        21268           0.0000000000
     63803     21268  TIP3      H1            -15.7841366405       55.0409377139        8.0354803535  W2        21268           0.0000000000
     63804     21268  TIP3      H2            -14.4061666405       55.0784277139        7.4096503535  W2        21268           0.0000000000
     63805     21269  TIP3      OH2            -4.4894166405       54.4805877139       19.6877103535  W2        21269           0.0000000000
     63806     21269  TIP3      H1             -4.8404666405       53.6238877139       19.9307503535  W2        21269           0.0000000000
     63807     21269  TIP3      H2             -3.7630966405       54.6232577139       20.2946103535  W2        21269           0.0000000000
     63808     21270  TIP3      OH2           -15.7566766405       50.9914477139       20.2925703535  W2        21270           0.0000000000
     63809     21270  TIP3      H1            -15.6126266405       50.0895177139       20.0062403535  W2        21270           0.0000000000
     63810     21270  TIP3      H2            -16.5289366405       51.2776577139       19.8048003535  W2        21270           0.0000000000
     63811     21271  TIP3      OH2           -11.4153066405       51.3350177139        2.4250303535  W2        21271           0.0000000000
     63812     21271  TIP3      H1            -11.3508966405       50.5409777139        2.9556703535  W2        21271           0.0000000000
     63813     21271  TIP3      H2            -10.7623866405       51.2162977139        1.7352303535  W2        21271           0.0000000000
     63814     21272  TIP3      OH2            -9.1010666405       50.9612577139       19.7252103535  W2        21272           0.0000000000
     63815     21272  TIP3      H1             -9.4296866405       51.2320677139       18.8679503535  W2        21272           0.0000000000
     63816     21272  TIP3      H2             -8.9492466405       50.0202377139       19.6377103535  W2        21272           0.0000000000
     63817     21273  TIP3      OH2            -6.0629666405       52.3821877139        2.1608303535  W2        21273           0.0000000000
     63818     21273  TIP3      H1             -6.3315566405       52.5623977139        3.0617203535  W2        21273           0.0000000000
     63819     21273  TIP3      H2             -6.2694066405       51.4568077139        2.0294103535  W2        21273           0.0000000000
     63820     21274  TIP3      OH2            -3.3665466405       50.8769877139       17.1084403535  W2        21274           0.0000000000
     63821     21274  TIP3      H1             -2.6210666405       51.4653577139       16.9888403535  W2        21274           0.0000000000
     63822     21274  TIP3      H2             -4.1238666405       51.4589577139       17.1717503535  W2        21274           0.0000000000
     63823     21275  TIP3      OH2           -14.9240266405       48.1917777139       19.7125003535  W2        21275           0.0000000000
     63824     21275  TIP3      H1            -14.5159066405       47.3344377139       19.5915603535  W2        21275           0.0000000000
     63825     21275  TIP3      H2            -15.1842666405       48.2059077139       20.6335303535  W2        21275           0.0000000000
     63826     21276  TIP3      OH2           -10.2659266405       49.3076377139        4.7308303535  W2        21276           0.0000000000
     63827     21276  TIP3      H1            -10.7257266405       48.8234677139        5.4166803535  W2        21276           0.0000000000
     63828     21276  TIP3      H2            -10.0110566405       48.6391777139        4.0948803535  W2        21276           0.0000000000
     63829     21277  TIP3      OH2           -10.9769966405       47.2003477139       17.0867903535  W2        21277           0.0000000000
     63830     21277  TIP3      H1            -11.5953866405       47.8750077139       17.3672603535  W2        21277           0.0000000000
     63831     21277  TIP3      H2            -10.6328766405       47.5217377139       16.2534103535  W2        21277           0.0000000000
     63832     21278  TIP3      OH2            -9.1948866405       47.5508177139        2.9931503535  W2        21278           0.0000000000
     63833     21278  TIP3      H1             -9.3753866405       47.3959377139        2.0659803535  W2        21278           0.0000000000
     63834     21278  TIP3      H2             -8.2448366405       47.6586877139        3.0379403535  W2        21278           0.0000000000
     63835     21279  TIP3      OH2            -5.9571766405       49.6718777139       20.3642703535  W2        21279           0.0000000000
     63836     21279  TIP3      H1             -5.0040566405       49.7557877139       20.3368703535  W2        21279           0.0000000000
     63837     21279  TIP3      H2             -6.1177166405       48.9600577139       20.9837603535  W2        21279           0.0000000000
     63838     21280  TIP3      OH2             0.1949433595       49.9052377139        2.4389603535  W2        21280           0.0000000000
     63839     21280  TIP3      H1             -0.0785766405       49.4807877139        1.6257903535  W2        21280           0.0000000000
     63840     21280  TIP3      H2              0.2343533595       50.8366877139        2.2220003535  W2        21280           0.0000000000
     63841     21281  TIP3      OH2           -10.6376266405       44.5554277139       18.1691003535  W2        21281           0.0000000000
     63842     21281  TIP3      H1            -10.4875366405       43.8265577139       17.5670703535  W2        21281           0.0000000000
     63843     21281  TIP3      H2            -10.6353866405       45.3325977139       17.6103203535  W2        21281           0.0000000000
     63844     21282  TIP3      OH2           -10.2250566405       42.9250077139       15.6618403535  W2        21282           0.0000000000
     63845     21282  TIP3      H1             -9.6893066405       43.3766777139       15.0097703535  W2        21282           0.0000000000
     63846     21282  TIP3      H2            -11.0770966405       42.8169877139       15.2392503535  W2        21282           0.0000000000
     63847     21283  TIP3      OH2            -8.6432166405       48.3646277139       15.9013603535  W2        21283           0.0000000000
     63848     21283  TIP3      H1             -7.8927366405       48.2083777139       15.3281403535  W2        21283           0.0000000000
     63849     21283  TIP3      H2             -8.9823866405       49.2162877139       15.6259103535  W2        21283           0.0000000000
     63850     21284  TIP3      OH2            -4.2275966405       46.1798077139       20.9298903535  W2        21284           0.0000000000
     63851     21284  TIP3      H1             -4.0354666405       45.2487477139       20.8183403535  W2        21284           0.0000000000
     63852     21284  TIP3      H2             -3.3699666405       46.6047577139       20.9194303535  W2        21284           0.0000000000
     63853     21285  TIP3      OH2            -2.9108766405       48.9683277139       19.0071603535  W2        21285           0.0000000000
     63854     21285  TIP3      H1             -3.1923766405       49.6777877139       18.4295403535  W2        21285           0.0000000000
     63855     21285  TIP3      H2             -1.9684466405       48.8956277139       18.8562803535  W2        21285           0.0000000000
     63856     21286  TIP3      OH2           -12.1589966405       45.7537777139       20.0806603535  W2        21286           0.0000000000
     63857     21286  TIP3      H1            -12.9260966405       45.2212577139       19.8704203535  W2        21286           0.0000000000
     63858     21286  TIP3      H2            -11.4800966405       45.4438177139       19.4812903535  W2        21286           0.0000000000
     63859     21287  TIP3      OH2            -9.4195066405       40.3815777139       16.0932003535  W2        21287           0.0000000000
     63860     21287  TIP3      H1             -9.5175466405       41.3278977139       15.9878203535  W2        21287           0.0000000000
     63861     21287  TIP3      H2            -10.1618866405       40.0089577139       15.6175503535  W2        21287           0.0000000000
     63862     21288  TIP3      OH2            -8.1554566405       44.7031177139       19.6570403535  W2        21288           0.0000000000
     63863     21288  TIP3      H1             -8.3909166405       44.4837877139       20.5585303535  W2        21288           0.0000000000
     63864     21288  TIP3      H2             -8.9387666405       44.4962377139       19.1472903535  W2        21288           0.0000000000
     63865     21289  TIP3      OH2            -5.4397966405       43.8304677139       18.7323903535  W2        21289           0.0000000000
     63866     21289  TIP3      H1             -6.3872566405       43.8624377139       18.8647203535  W2        21289           0.0000000000
     63867     21289  TIP3      H2             -5.1271266405       43.2051777139       19.3862103535  W2        21289           0.0000000000
     63868     21290  TIP3      OH2            -3.8056466405       42.4645777139       20.7375803535  W2        21290           0.0000000000
     63869     21290  TIP3      H1             -3.9024666405       41.5123077139       20.7317703535  W2        21290           0.0000000000
     63870     21290  TIP3      H2             -4.1273366405       42.7332577139       21.5981303535  W2        21290           0.0000000000
     63871     21291  TIP3      OH2           -13.9787166405       43.6741577139       19.7851303535  W2        21291           0.0000000000
     63872     21291  TIP3      H1            -13.7669766405       42.9677677139       19.1748803535  W2        21291           0.0000000000
     63873     21291  TIP3      H2            -14.0899666405       43.2367577139       20.6292503535  W2        21291           0.0000000000
     63874     21292  TIP3      OH2            -9.1976966405       39.6753177139       18.7644803535  W2        21292           0.0000000000
     63875     21292  TIP3      H1             -8.4858566405       39.0355377139       18.7503903535  W2        21292           0.0000000000
     63876     21292  TIP3      H2             -9.2986566405       39.9421477139       17.8507903535  W2        21292           0.0000000000
     63877     21293  TIP3      OH2            -8.8439466405       41.3581577139       20.8181103535  W2        21293           0.0000000000
     63878     21293  TIP3      H1             -8.9757266405       40.8825377139       19.9979603535  W2        21293           0.0000000000
     63879     21293  TIP3      H2             -9.4432066405       42.1025177139       20.7628203535  W2        21293           0.0000000000
     63880     21294  TIP3      OH2           -15.7292266405       52.8775677139        3.4773203535  W2        21294           0.0000000000
     63881     21294  TIP3      H1            -14.8153066405       52.9564577139        3.7507103535  W2        21294           0.0000000000
     63882     21294  TIP3      H2            -15.7219166405       52.1905277139        2.8108803535  W2        21294           0.0000000000
     63883     21295  TIP3      OH2            -0.6477466405       52.5176777139       20.8997503535  W2        21295           0.0000000000
     63884     21295  TIP3      H1             -1.5136366405       52.4126477139       21.2939803535  W2        21295           0.0000000000
     63885     21295  TIP3      H2             -0.2711566405       53.2760077139       21.3462203535  W2        21295           0.0000000000
     63886     21296  TIP3      OH2             0.6532233595       50.7740477139        6.4140003535  W2        21296           0.0000000000
     63887     21296  TIP3      H1              1.5033633595       51.1951377139        6.5411603535  W2        21296           0.0000000000
     63888     21296  TIP3      H2              0.6587333595       50.0340577139        7.0211403535  W2        21296           0.0000000000
     63889     21297  TIP3      OH2             1.0477833595       48.8277877139        8.2375703535  W2        21297           0.0000000000
     63890     21297  TIP3      H1              0.3212433595       48.3480477139        8.6353303535  W2        21297           0.0000000000
     63891     21297  TIP3      H2              1.6291133595       49.0332577139        8.9697303535  W2        21297           0.0000000000
     63892     21298  TIP3      OH2             0.8069033595       51.6125377139       13.1853303535  W2        21298           0.0000000000
     63893     21298  TIP3      H1              1.6403233595       51.2345377139       12.9046903535  W2        21298           0.0000000000
     63894     21298  TIP3      H2              0.9189333595       52.5556577139       13.0662403535  W2        21298           0.0000000000
     63895     21299  TIP3      OH2            -0.7068666405       54.4902877139       15.4921703535  W2        21299           0.0000000000
     63896     21299  TIP3      H1             -1.3543366405       54.8154377139       16.1176903535  W2        21299           0.0000000000
     63897     21299  TIP3      H2             -1.2244666405       54.0500577139       14.8180003535  W2        21299           0.0000000000
     63898     21300  TIP3      OH2             1.3160933595       48.7286377139        4.6287003535  W2        21300           0.0000000000
     63899     21300  TIP3      H1              0.7942033595       49.0850477139        3.9097903535  W2        21300           0.0000000000
     63900     21300  TIP3      H2              1.2830133595       49.4034177139        5.3067903535  W2        21300           0.0000000000
     63901     21301  TIP3      OH2            -0.3350066405       45.9681977139        3.1794103535  W2        21301           0.0000000000
     63902     21301  TIP3      H1             -0.2385666405       46.6348977139        2.4993803535  W2        21301           0.0000000000
     63903     21301  TIP3      H2             -0.4750466405       45.1528277139        2.6979603535  W2        21301           0.0000000000
     63904     21302  TIP3      OH2            -1.1655366405       47.3484377139        8.8004403535  W2        21302           0.0000000000
     63905     21302  TIP3      H1             -1.3156566405       46.4032977139        8.7802203535  W2        21302           0.0000000000
     63906     21302  TIP3      H2             -1.5190866405       47.6295777139        9.6443503535  W2        21302           0.0000000000
     63907     21303  TIP3      OH2           -16.1302966405       49.4266577139       12.8108203535  W2        21303           0.0000000000
     63908     21303  TIP3      H1            -15.9460066405       49.3448277139       11.8751103535  W2        21303           0.0000000000
     63909     21303  TIP3      H2            -15.2810066405       49.3023577139       13.2344603535  W2        21303           0.0000000000
     63910     21304  TIP3      OH2            -0.3092466405       49.3187677139       18.4392703535  W2        21304           0.0000000000
     63911     21304  TIP3      H1              0.2734833595       48.5839977139       18.6309903535  W2        21304           0.0000000000
     63912     21304  TIP3      H2              0.2546833595       50.0907977139       18.4858503535  W2        21304           0.0000000000
     63913     21305  TIP3      OH2             1.1874633595       47.2213477139       19.1238103535  W2        21305           0.0000000000
     63914     21305  TIP3      H1              0.3241333595       46.8425577139       18.9582803535  W2        21305           0.0000000000
     63915     21305  TIP3      H2              1.7918333595       46.4828277139       19.0493903535  W2        21305           0.0000000000
     63916     21306  TIP3      OH2            -1.0876266405       43.3761777139        2.2969603535  W2        21306           0.0000000000
     63917     21306  TIP3      H1             -0.4770466405       43.0048577139        2.9337803535  W2        21306           0.0000000000
     63918     21306  TIP3      H2             -1.9244766405       42.9548677139        2.4929603535  W2        21306           0.0000000000
     63919     21307  TIP3      OH2            -1.4550566405       44.9310177139        7.2629503535  W2        21307           0.0000000000
     63920     21307  TIP3      H1             -1.1753466405       44.0240577139        7.3871203535  W2        21307           0.0000000000
     63921     21307  TIP3      H2             -0.6958866405       45.3651677139        6.8738703535  W2        21307           0.0000000000
     63922     21308  TIP3      OH2            -0.8432266405       45.5127577139       12.6988403535  W2        21308           0.0000000000
     63923     21308  TIP3      H1              0.0895733595       45.7247477139       12.6644403535  W2        21308           0.0000000000
     63924     21308  TIP3      H2             -1.0784766405       45.6139677139       13.6211403535  W2        21308           0.0000000000
     63925     21309  TIP3      OH2            -0.8140366405       46.2492877139       15.4747803535  W2        21309           0.0000000000
     63926     21309  TIP3      H1             -1.6569066405       46.5173277139       15.8407603535  W2        21309           0.0000000000
     63927     21309  TIP3      H2             -0.3716066405       47.0714777139       15.2638903535  W2        21309           0.0000000000
     63928     21310  TIP3      OH2           -16.5328166405       44.6971577139       18.9517003535  W2        21310           0.0000000000
     63929     21310  TIP3      H1            -15.6133266405       44.5749877139       19.1880103535  W2        21310           0.0000000000
     63930     21310  TIP3      H2            -16.9823666405       43.9471277139       19.3410503535  W2        21310           0.0000000000
     63931     21311  TIP3      OH2             1.4691233595       40.2293077139       20.8282803535  W2        21311           0.0000000000
     63932     21311  TIP3      H1              1.8188233595       39.5756577139       20.2227503535  W2        21311           0.0000000000
     63933     21311  TIP3      H2              1.6160733595       41.0667177139       20.3885403535  W2        21311           0.0000000000
     63934     21312  TIP3      OH2            -0.8415766405       42.1939477139        7.3111503535  W2        21312           0.0000000000
     63935     21312  TIP3      H1             -0.6590766405       41.7450977139        8.1366503535  W2        21312           0.0000000000
     63936     21312  TIP3      H2             -1.4412866405       41.6093877139        6.8476103535  W2        21312           0.0000000000
     63937     21313  TIP3      OH2           -15.3115666405       43.0093177139       11.8429903535  W2        21313           0.0000000000
     63938     21313  TIP3      H1            -14.8664066405       42.2175677139       12.1449603535  W2        21313           0.0000000000
     63939     21313  TIP3      H2            -14.8452666405       43.7258377139       12.2735503535  W2        21313           0.0000000000
     63940     21314  TIP3      OH2           -17.0075366405       46.0086177139       12.9120103535  W2        21314           0.0000000000
     63941     21314  TIP3      H1            -16.5155566405       45.7876677139       12.1212103535  W2        21314           0.0000000000
     63942     21314  TIP3      H2            -16.6454466405       46.8489577139       13.1929603535  W2        21314           0.0000000000
     63943     21315  TIP3      OH2             0.9888433595       42.3387677139       19.1774103535  W2        21315           0.0000000000
     63944     21315  TIP3      H1              0.0714133595       42.6094777139       19.1417603535  W2        21315           0.0000000000
     63945     21315  TIP3      H2              1.1117833595       41.8036077139       18.3933803535  W2        21315           0.0000000000
     63946     21316  TIP3      OH2             1.0250433595       42.2617577139        3.8391803535  W2        21316           0.0000000000
     63947     21316  TIP3      H1              1.4373033595       41.5403277139        3.3639803535  W2        21316           0.0000000000
     63948     21316  TIP3      H2              1.7066933595       42.9312177139        3.8976103535  W2        21316           0.0000000000
     63949     21317  TIP3      OH2           -16.6938866405       42.2665277139        6.9662503535  W2        21317           0.0000000000
     63950     21317  TIP3      H1            -17.6190466405       42.4751877139        6.8368003535  W2        21317           0.0000000000
     63951     21317  TIP3      H2            -16.2398966405       42.7506077139        6.2764803535  W2        21317           0.0000000000
     63952     21318  TIP3      OH2           -16.7303466405       41.0044277139       15.3105003535  W2        21318           0.0000000000
     63953     21318  TIP3      H1            -17.3952966405       40.7584577139       15.9535903535  W2        21318           0.0000000000
     63954     21318  TIP3      H2            -17.1732166405       41.6264677139       14.7333003535  W2        21318           0.0000000000
     63955     21319  TIP3      OH2           -14.5384166405       54.1798377139       19.4550803535  W2        21319           0.0000000000
     63956     21319  TIP3      H1            -15.3591666405       54.3544877139       18.9945503535  W2        21319           0.0000000000
     63957     21319  TIP3      H2            -14.7906366405       54.1063077139       20.3755203535  W2        21319           0.0000000000
     63958     21320  TIP3      OH2            -0.0105666405       40.4283977139       16.9964903535  W2        21320           0.0000000000
     63959     21320  TIP3      H1             -0.8232166405       40.7534277139       16.6089603535  W2        21320           0.0000000000
     63960     21320  TIP3      H2              0.2222833595       39.6682477139       16.4634003535  W2        21320           0.0000000000
     63961     21321  TIP3      OH2            -6.5807166405       41.8774577139       11.3193103535  W2        21321           0.0000000000
     63962     21321  TIP3      H1             -7.2550366405       41.2480177139       11.5748903535  W2        21321           0.0000000000
     63963     21321  TIP3      H2             -6.0167966405       41.3933477139       10.7161003535  W2        21321           0.0000000000
     63964     21322  TIP3      OH2            -1.4379966405       39.9848577139       11.4320203535  W2        21322           0.0000000000
     63965     21322  TIP3      H1             -0.8342366405       40.5323977139       10.9301203535  W2        21322           0.0000000000
     63966     21322  TIP3      H2             -2.3077966405       40.3038977139       11.1914303535  W2        21322           0.0000000000
     63967     21323  TIP3      OH2             0.2890433595       41.1237277139        9.7651103535  W2        21323           0.0000000000
     63968     21323  TIP3      H1              0.9007933595       40.6092977139        9.2384703535  W2        21323           0.0000000000
     63969     21323  TIP3      H2              0.6713833595       42.0009377139        9.7885503535  W2        21323           0.0000000000
     63970     21324  TIP3      OH2           -14.2539666405       40.5114877139        9.1413003535  W2        21324           0.0000000000
     63971     21324  TIP3      H1            -15.0309866405       40.2769777139        8.6338903535  W2        21324           0.0000000000
     63972     21324  TIP3      H2            -13.7236066405       39.7146977139        9.1501003535  W2        21324           0.0000000000
     63973     21325  TIP3      OH2           -15.4176266405       40.3092977139        4.9449103535  W2        21325           0.0000000000
     63974     21325  TIP3      H1            -14.9785566405       40.9203477139        4.3532603535  W2        21325           0.0000000000
     63975     21325  TIP3      H2            -16.0513866405       40.8477077139        5.4189103535  W2        21325           0.0000000000
     63976     21326  TIP3      OH2            -9.6747066405       40.4381977139        8.9546103535  W2        21326           0.0000000000
     63977     21326  TIP3      H1             -8.8003666405       40.8266277139        8.9250403535  W2        21326           0.0000000000
     63978     21326  TIP3      H2             -9.8106266405       40.2229777139        9.8773303535  W2        21326           0.0000000000
     63979     21327  TIP3      OH2            -4.1178666405       40.4681777139       10.6037803535  W2        21327           0.0000000000
     63980     21327  TIP3      H1             -4.0417066405       40.5633377139        9.6543803535  W2        21327           0.0000000000
     63981     21327  TIP3      H2             -4.3929466405       39.5604677139       10.7326903535  W2        21327           0.0000000000
     63982     21328  TIP3      OH2            -2.7646066405       40.4939577139        6.2962803535  W2        21328           0.0000000000
     63983     21328  TIP3      H1             -3.4674966405       41.1088777139        6.0864203535  W2        21328           0.0000000000
     63984     21328  TIP3      H2             -3.2094666405       39.6566277139        6.4273703535  W2        21328           0.0000000000
     63985     21329  TIP3      OH2           -13.5567166405       42.2254477139        3.3873203535  W2        21329           0.0000000000
     63986     21329  TIP3      H1            -13.0653766405       41.5956877139        2.8598703535  W2        21329           0.0000000000
     63987     21329  TIP3      H2            -12.9330866405       42.5213877139        4.0504403535  W2        21329           0.0000000000
     63988     21330  TIP3      OH2            -8.5307066405       42.5185977139        5.8443703535  W2        21330           0.0000000000
     63989     21330  TIP3      H1             -8.3525766405       41.8719177139        6.5272303535  W2        21330           0.0000000000
     63990     21330  TIP3      H2             -8.5840866405       43.3523677139        6.3114803535  W2        21330           0.0000000000
     63991     21331  TIP3      OH2           -14.2961666405       41.0256777139       18.6589203535  W2        21331           0.0000000000
     63992     21331  TIP3      H1            -14.6623466405       40.2599377139       19.1013903535  W2        21331           0.0000000000
     63993     21331  TIP3      H2            -13.3833166405       41.0546977139       18.9454303535  W2        21331           0.0000000000
     63994     21332  TIP3      OH2           -12.3230866405       40.3761177139       20.1946303535  W2        21332           0.0000000000
     63995     21332  TIP3      H1            -11.4247266405       40.1021377139       20.0099703535  W2        21332           0.0000000000
     63996     21332  TIP3      H2            -12.7097766405       39.6337177139       20.6588903535  W2        21332           0.0000000000
     63997     21333  TIP3      OH2            -3.9018566405       39.7086477139       20.3769103535  W2        21333           0.0000000000
     63998     21333  TIP3      H1             -3.8251366405       39.2827177139       21.2306803535  W2        21333           0.0000000000
     63999     21333  TIP3      H2             -3.0081966405       39.7221177139       20.0342603535  W2        21333           0.0000000000
     64000     21334  TIP3      OH2            13.6802933595       49.6677177139        9.1000503535  W2        21334           0.0000000000
     64001     21334  TIP3      H1             13.7694033595       50.6115377139        8.9677603535  W2        21334           0.0000000000
     64002     21334  TIP3      H2             13.0420533595       49.3923577139        8.4419903535  W2        21334           0.0000000000
     64003     21335  TIP3      OH2            12.6134233595       48.9227877139       12.5188703535  W2        21335           0.0000000000
     64004     21335  TIP3      H1             12.5751733595       48.2764177139       13.2238303535  W2        21335           0.0000000000
     64005     21335  TIP3      H2             12.2910733595       48.4562277139       11.7477403535  W2        21335           0.0000000000
     64006     21336  TIP3      OH2             4.9819233595       48.5369977139       14.1118603535  W2        21336           0.0000000000
     64007     21336  TIP3      H1              5.0231333595       47.9113277139       14.8351003535  W2        21336           0.0000000000
     64008     21336  TIP3      H2              5.6846933595       49.1608577139       14.2939003535  W2        21336           0.0000000000
     64009     21337  TIP3      OH2            16.3194433595       51.8618277139       10.8203803535  W2        21337           0.0000000000
     64010     21337  TIP3      H1             15.8787133595       51.1414277139       11.2709403535  W2        21337           0.0000000000
     64011     21337  TIP3      H2             16.3064133595       52.5825477139       11.4501503535  W2        21337           0.0000000000
     64012     21338  TIP3      OH2             5.9052333595       52.9868877139       12.6467703535  W2        21338           0.0000000000
     64013     21338  TIP3      H1              5.5357533595       52.1849377139       12.2772003535  W2        21338           0.0000000000
     64014     21338  TIP3      H2              6.8463433595       52.8183777139       12.6931103535  W2        21338           0.0000000000
     64015     21339  TIP3      OH2             2.5152833595       46.6471477139        8.0396503535  W2        21339           0.0000000000
     64016     21339  TIP3      H1              2.0676233595       47.4930177139        8.0213003535  W2        21339           0.0000000000
     64017     21339  TIP3      H2              1.9544033595       46.0675677139        7.5241603535  W2        21339           0.0000000000
     64018     21340  TIP3      OH2             3.2258933595       48.8091077139       10.1654503535  W2        21340           0.0000000000
     64019     21340  TIP3      H1              3.4392433595       48.0392677139       10.6927503535  W2        21340           0.0000000000
     64020     21340  TIP3      H2              3.9636533595       48.8987777139        9.5622103535  W2        21340           0.0000000000
     64021     21341  TIP3      OH2            11.0028633595       51.3549277139       12.9249703535  W2        21341           0.0000000000
     64022     21341  TIP3      H1             11.3066533595       50.6690677139       12.3303803535  W2        21341           0.0000000000
     64023     21341  TIP3      H2             11.7242633595       51.4737977139       13.5427703535  W2        21341           0.0000000000
     64024     21342  TIP3      OH2            19.6658433595       42.9564577139       13.7855903535  W2        21342           0.0000000000
     64025     21342  TIP3      H1             19.7150633595       43.5665777139       14.5215003535  W2        21342           0.0000000000
     64026     21342  TIP3      H2             20.0913533595       43.4175477139       13.0627003535  W2        21342           0.0000000000
     64027     21343  TIP3      OH2            14.1435633595       45.7491677139       13.2524503535  W2        21343           0.0000000000
     64028     21343  TIP3      H1             14.2861533595       44.8028677139       13.2726103535  W2        21343           0.0000000000
     64029     21343  TIP3      H2             14.0374633595       45.9561477139       12.3239403535  W2        21343           0.0000000000
     64030     21344  TIP3      OH2             7.2983933595       43.8508077139       10.5249303535  W2        21344           0.0000000000
     64031     21344  TIP3      H1              7.3415033595       44.7106577139       10.1065603535  W2        21344           0.0000000000
     64032     21344  TIP3      H2              6.8408033595       43.2982777139        9.8912503535  W2        21344           0.0000000000
     64033     21345  TIP3      OH2            15.0206633595       43.9813677139        8.9257603535  W2        21345           0.0000000000
     64034     21345  TIP3      H1             15.6670933595       43.6526877139        9.5505203535  W2        21345           0.0000000000
     64035     21345  TIP3      H2             15.5306033595       44.4992677139        8.3029003535  W2        21345           0.0000000000
     64036     21346  TIP3      OH2             3.9185433595       46.2473877139       11.2870703535  W2        21346           0.0000000000
     64037     21346  TIP3      H1              4.5722033595       45.6975577139       11.7190803535  W2        21346           0.0000000000
     64038     21346  TIP3      H2              3.9424733595       45.9732877139       10.3702703535  W2        21346           0.0000000000
     64039     21347  TIP3      OH2             9.0749933595       47.7975177139       10.5022203535  W2        21347           0.0000000000
     64040     21347  TIP3      H1              9.6910933595       47.2710577139       11.0116203535  W2        21347           0.0000000000
     64041     21347  TIP3      H2              8.4888733595       47.1573877139       10.0985803535  W2        21347           0.0000000000
     64042     21348  TIP3      OH2            20.0573033595       44.4343777139       16.0215703535  W2        21348           0.0000000000
     64043     21348  TIP3      H1             19.3687633595       45.0924477139       15.9262303535  W2        21348           0.0000000000
     64044     21348  TIP3      H2             20.0727633595       44.2371677139       16.9581103535  W2        21348           0.0000000000
     64045     21349  TIP3      OH2             6.1085833595       42.7686477139       14.5990103535  W2        21349           0.0000000000
     64046     21349  TIP3      H1              5.8897533595       43.2987077139       13.8326103535  W2        21349           0.0000000000
     64047     21349  TIP3      H2              5.4406733595       42.9951977139       15.2461503535  W2        21349           0.0000000000
     64048     21350  TIP3      OH2            13.4775633595       52.2687577139        8.1429203535  W2        21350           0.0000000000
     64049     21350  TIP3      H1             13.1820733595       51.9459877139        7.2916103535  W2        21350           0.0000000000
     64050     21350  TIP3      H2             13.1533433595       53.1684277139        8.1841803535  W2        21350           0.0000000000
     64051     21351  TIP3      OH2             8.6777233595       50.4442177139       14.8863803535  W2        21351           0.0000000000
     64052     21351  TIP3      H1              7.9376333595       51.0423677139       14.9899003535  W2        21351           0.0000000000
     64053     21351  TIP3      H2              9.3916733595       50.9981777139       14.5707403535  W2        21351           0.0000000000
     64054     21352  TIP3      OH2            16.7845033595       43.2722977139       10.9063503535  W2        21352           0.0000000000
     64055     21352  TIP3      H1             16.5693033595       42.5066377139       11.4389503535  W2        21352           0.0000000000
     64056     21352  TIP3      H2             17.4402433595       43.7447577139       11.4192003535  W2        21352           0.0000000000
     64057     21353  TIP3      OH2             5.7023133595       44.6608277139       12.5512303535  W2        21353           0.0000000000
     64058     21353  TIP3      H1              6.3159433595       45.2935877139       12.9244703535  W2        21353           0.0000000000
     64059     21353  TIP3      H2              6.2143833595       44.1883277139       11.8949203535  W2        21353           0.0000000000
     64060     21354  TIP3      OH2             7.0851533595       52.4085177139       15.6735303535  W2        21354           0.0000000000
     64061     21354  TIP3      H1              7.0799133595       53.2878677139       15.2954603535  W2        21354           0.0000000000
     64062     21354  TIP3      H2              6.2315633595       52.3249277139       16.0985203535  W2        21354           0.0000000000
     64063     21355  TIP3      OH2             3.2062433595       52.0793077139        6.4554603535  W2        21355           0.0000000000
     64064     21355  TIP3      H1              2.9343333595       52.3084077139        5.5667503535  W2        21355           0.0000000000
     64065     21355  TIP3      H2              3.2518133595       52.9171877139        6.9159903535  W2        21355           0.0000000000
     64066     21356  TIP3      OH2            16.8312133595       53.7008977139       13.1683103535  W2        21356           0.0000000000
     64067     21356  TIP3      H1             15.8895833595       53.7592877139       13.3300003535  W2        21356           0.0000000000
     64068     21356  TIP3      H2             17.1078233595       54.6069477139       13.0312803535  W2        21356           0.0000000000
     64069     21357  TIP3      OH2            17.1319133595       41.9874277139       14.5857003535  W2        21357           0.0000000000
     64070     21357  TIP3      H1             16.3958333595       42.5981377139       14.5478303535  W2        21357           0.0000000000
     64071     21357  TIP3      H2             17.8153133595       42.4023277139       14.0593403535  W2        21357           0.0000000000
     64072     21358  TIP3      OH2            10.1350533595       40.0741577139       12.0515003535  W2        21358           0.0000000000
     64073     21358  TIP3      H1             10.0174733595       39.1257577139       11.9973303535  W2        21358           0.0000000000
     64074     21358  TIP3      H2              9.2800633595       40.4067677139       12.3246103535  W2        21358           0.0000000000
     64075     21359  TIP3      OH2            16.2429833595       53.3830977139        8.3021303535  W2        21359           0.0000000000
     64076     21359  TIP3      H1             15.9854633595       52.6931077139        7.6907203535  W2        21359           0.0000000000
     64077     21359  TIP3      H2             16.3140633595       52.9402177139        9.1477203535  W2        21359           0.0000000000
     64078     21360  TIP3      OH2            17.9290033595       51.9497677139       16.7794803535  W2        21360           0.0000000000
     64079     21360  TIP3      H1             18.0686333595       51.3580177139       16.0401803535  W2        21360           0.0000000000
     64080     21360  TIP3      H2             18.0962833595       52.8223577139       16.4233603535  W2        21360           0.0000000000
     64081     21361  TIP3      OH2            12.4015433595       48.9117177139        6.5520803535  W2        21361           0.0000000000
     64082     21361  TIP3      H1             11.6900933595       49.4466877139        6.2001303535  W2        21361           0.0000000000
     64083     21361  TIP3      H2             13.0925033595       48.9669277139        5.8919703535  W2        21361           0.0000000000
     64084     21362  TIP3      OH2            12.4554633595       47.3691477139        3.5905803535  W2        21362           0.0000000000
     64085     21362  TIP3      H1             13.1564533595       47.3918377139        4.2419803535  W2        21362           0.0000000000
     64086     21362  TIP3      H2             12.7577533595       46.7411177139        2.9345103535  W2        21362           0.0000000000
     64087     21363  TIP3      OH2            19.7709333595       48.2895677139       14.8455203535  W2        21363           0.0000000000
     64088     21363  TIP3      H1             19.1183433595       48.9841277139       14.9346103535  W2        21363           0.0000000000
     64089     21363  TIP3      H2             20.2359633595       48.4996577139       14.0356803535  W2        21363           0.0000000000
     64090     21364  TIP3      OH2            15.8073133595       49.1210477139        7.5036703535  W2        21364           0.0000000000
     64091     21364  TIP3      H1             15.0754133595       49.3494177139        8.0767303535  W2        21364           0.0000000000
     64092     21364  TIP3      H2             16.2545333595       48.4073177139        7.9584203535  W2        21364           0.0000000000
     64093     21365  TIP3      OH2            15.7046633595       47.2953077139       16.5713703535  W2        21365           0.0000000000
     64094     21365  TIP3      H1             15.7845733595       48.0587477139       17.1432203535  W2        21365           0.0000000000
     64095     21365  TIP3      H2             15.1034333595       47.5745477139       15.8808803535  W2        21365           0.0000000000
     64096     21366  TIP3      OH2             7.4526833595       49.7516677139        9.3861703535  W2        21366           0.0000000000
     64097     21366  TIP3      H1              7.1222033595       49.3810077139        8.5678703535  W2        21366           0.0000000000
     64098     21366  TIP3      H2              8.0410933595       49.0810677139        9.7330003535  W2        21366           0.0000000000
     64099     21367  TIP3      OH2             8.8194333595       53.1797277139       12.0673903535  W2        21367           0.0000000000
     64100     21367  TIP3      H1              8.7245633595       52.6010377139       11.3108503535  W2        21367           0.0000000000
     64101     21367  TIP3      H2              9.5487933595       52.8082977139       12.5636703535  W2        21367           0.0000000000
     64102     21368  TIP3      OH2             7.8192333595       48.5202277139       13.0196703535  W2        21368           0.0000000000
     64103     21368  TIP3      H1              8.3844833595       48.6416477139       12.2567903535  W2        21368           0.0000000000
     64104     21368  TIP3      H2              8.1381233595       49.1577277139       13.6585203535  W2        21368           0.0000000000
     64105     21369  TIP3      OH2            14.1284533595       54.0234177139       13.7537203535  W2        21369           0.0000000000
     64106     21369  TIP3      H1             13.8881133595       54.6857277139       14.4016403535  W2        21369           0.0000000000
     64107     21369  TIP3      H2             13.9302733595       53.1889377139       14.1786803535  W2        21369           0.0000000000
     64108     21370  TIP3      OH2             8.6993033595       52.9194977139       17.7368603535  W2        21370           0.0000000000
     64109     21370  TIP3      H1              8.3880533595       53.7018177139       18.1921803535  W2        21370           0.0000000000
     64110     21370  TIP3      H2              8.0493233595       52.7664077139       17.0510603535  W2        21370           0.0000000000
     64111     21371  TIP3      OH2            14.6782633595       48.2833377139        5.1887903535  W2        21371           0.0000000000
     64112     21371  TIP3      H1             15.2578133595       48.4333677139        5.9356803535  W2        21371           0.0000000000
     64113     21371  TIP3      H2             15.0922633595       48.7540777139        4.4654303535  W2        21371           0.0000000000
     64114     21372  TIP3      OH2             5.6192933595       49.1176077139       16.9654303535  W2        21372           0.0000000000
     64115     21372  TIP3      H1              5.6896133595       49.7682877139       17.6639303535  W2        21372           0.0000000000
     64116     21372  TIP3      H2              4.7285133595       49.2203577139       16.6305203535  W2        21372           0.0000000000
     64117     21373  TIP3      OH2             6.9388933595       54.9909977139       18.5002403535  W2        21373           0.0000000000
     64118     21373  TIP3      H1              6.9464233595       54.8549677139       17.5527903535  W2        21373           0.0000000000
     64119     21373  TIP3      H2              6.0229333595       54.8738077139       18.7522403535  W2        21373           0.0000000000
     64120     21374  TIP3      OH2            18.3771033595       40.0333777139        5.0017603535  W2        21374           0.0000000000
     64121     21374  TIP3      H1             17.4771733595       40.1722777139        5.2968203535  W2        21374           0.0000000000
     64122     21374  TIP3      H2             18.6289433595       40.8648377139        4.5999303535  W2        21374           0.0000000000
     64123     21375  TIP3      OH2             6.4429533595       48.8210977139        6.9754503535  W2        21375           0.0000000000
     64124     21375  TIP3      H1              6.1510833595       49.5892677139        6.4845803535  W2        21375           0.0000000000
     64125     21375  TIP3      H2              5.7684733595       48.1617177139        6.8125903535  W2        21375           0.0000000000
     64126     21376  TIP3      OH2            19.5662433595       54.3996177139        3.3781503535  W2        21376           0.0000000000
     64127     21376  TIP3      H1             19.6395933595       55.3386377139        3.5486803535  W2        21376           0.0000000000
     64128     21376  TIP3      H2             20.4717533595       54.0944777139        3.3218803535  W2        21376           0.0000000000
     64129     21377  TIP3      OH2             2.5359633595       51.1840177139       15.7904303535  W2        21377           0.0000000000
     64130     21377  TIP3      H1              2.0348033595       51.1559577139       14.9754003535  W2        21377           0.0000000000
     64131     21377  TIP3      H2              2.5413333595       50.2783377139       16.1001603535  W2        21377           0.0000000000
     64132     21378  TIP3      OH2             2.2862333595       53.9643977139       12.6744503535  W2        21378           0.0000000000
     64133     21378  TIP3      H1              3.2322933595       53.8200977139       12.6554003535  W2        21378           0.0000000000
     64134     21378  TIP3      H2              2.1738633595       54.7486777139       13.2115703535  W2        21378           0.0000000000
     64135     21379  TIP3      OH2            20.4840833595       54.6303677139       18.3568203535  W2        21379           0.0000000000
     64136     21379  TIP3      H1             20.4347633595       53.6751777139       18.3195803535  W2        21379           0.0000000000
     64137     21379  TIP3      H2             19.6573133595       54.8978977139       18.7582003535  W2        21379           0.0000000000
     64138     21380  TIP3      OH2            11.4624833595       54.2042877139       17.2329603535  W2        21380           0.0000000000
     64139     21380  TIP3      H1             11.5499433595       55.0307477139       17.7078703535  W2        21380           0.0000000000
     64140     21380  TIP3      H2             10.5989933595       53.8746677139       17.4818903535  W2        21380           0.0000000000
     64141     21381  TIP3      OH2            17.6360633595       46.1236177139       18.8370403535  W2        21381           0.0000000000
     64142     21381  TIP3      H1             17.2287433595       46.6041777139       18.1163703535  W2        21381           0.0000000000
     64143     21381  TIP3      H2             17.6766333595       45.2182177139       18.5291203535  W2        21381           0.0000000000
     64144     21382  TIP3      OH2             4.7850133595       52.5075577139       16.8337103535  W2        21382           0.0000000000
     64145     21382  TIP3      H1              5.0011433595       52.1461177139       17.6932903535  W2        21382           0.0000000000
     64146     21382  TIP3      H2              3.9294833595       52.1329377139       16.6240603535  W2        21382           0.0000000000
     64147     21383  TIP3      OH2             7.4038133595       40.9776077139       12.8291303535  W2        21383           0.0000000000
     64148     21383  TIP3      H1              6.5421833595       40.8904277139       12.4214203535  W2        21383           0.0000000000
     64149     21383  TIP3      H2              7.3813833595       41.8336177139       13.2568903535  W2        21383           0.0000000000
     64150     21384  TIP3      OH2            12.0665933595       40.6996477139       16.2038303535  W2        21384           0.0000000000
     64151     21384  TIP3      H1             12.4869033595       40.2843577139       16.9568903535  W2        21384           0.0000000000
     64152     21384  TIP3      H2             11.1335533595       40.5209777139       16.3210303535  W2        21384           0.0000000000
     64153     21385  TIP3      OH2            15.3930833595       44.4551677139       17.0572803535  W2        21385           0.0000000000
     64154     21385  TIP3      H1             14.8790333595       44.3293877139       17.8548803535  W2        21385           0.0000000000
     64155     21385  TIP3      H2             15.2375533595       45.3674777139       16.8129003535  W2        21385           0.0000000000
     64156     21386  TIP3      OH2            16.1555733595       49.3161677139        2.8185803535  W2        21386           0.0000000000
     64157     21386  TIP3      H1             16.1976533595       49.0935577139        1.8885803535  W2        21386           0.0000000000
     64158     21386  TIP3      H2             17.0047833595       49.7148777139        3.0085703535  W2        21386           0.0000000000
     64159     21387  TIP3      OH2            11.7283233595       43.1919877139        3.4889103535  W2        21387           0.0000000000
     64160     21387  TIP3      H1             11.4748033595       43.2111477139        4.4117203535  W2        21387           0.0000000000
     64161     21387  TIP3      H2             11.4715333595       42.3205277139        3.1875303535  W2        21387           0.0000000000
     64162     21388  TIP3      OH2             7.4948233595       45.9430577139       13.9241503535  W2        21388           0.0000000000
     64163     21388  TIP3      H1              6.8530333595       45.9027877139       14.6331603535  W2        21388           0.0000000000
     64164     21388  TIP3      H2              7.5320233595       46.8695277139       13.6864503535  W2        21388           0.0000000000
     64165     21389  TIP3      OH2             7.4917333595       46.1640677139        8.8361503535  W2        21389           0.0000000000
     64166     21389  TIP3      H1              6.5990233595       45.8236777139        8.7775303535  W2        21389           0.0000000000
     64167     21389  TIP3      H2              7.9423933595       45.7871577139        8.0804703535  W2        21389           0.0000000000
     64168     21390  TIP3      OH2            13.0272833595       46.5800977139        7.6532303535  W2        21390           0.0000000000
     64169     21390  TIP3      H1             12.6183133595       47.3949577139        7.3617103535  W2        21390           0.0000000000
     64170     21390  TIP3      H2             13.7479033595       46.4401077139        7.0389403535  W2        21390           0.0000000000
     64171     21391  TIP3      OH2            12.1294433595       46.7557377139       19.1413003535  W2        21391           0.0000000000
     64172     21391  TIP3      H1             11.5668233595       46.0508977139       19.4620803535  W2        21391           0.0000000000
     64173     21391  TIP3      H2             12.9557833595       46.6349277139       19.6090603535  W2        21391           0.0000000000
     64174     21392  TIP3      OH2            14.0320533595       46.0261377139       10.4672003535  W2        21392           0.0000000000
     64175     21392  TIP3      H1             13.8365033595       46.6318177139        9.7522603535  W2        21392           0.0000000000
     64176     21392  TIP3      H2             14.2133133595       45.1926577139       10.0328303535  W2        21392           0.0000000000
     64177     21393  TIP3      OH2             5.2448733595       46.2634077139       15.7913503535  W2        21393           0.0000000000
     64178     21393  TIP3      H1              5.2068133595       46.6635677139       16.6600603535  W2        21393           0.0000000000
     64179     21393  TIP3      H2              4.7539833595       45.4466477139       15.8816403535  W2        21393           0.0000000000
     64180     21394  TIP3      OH2             8.6106133595       43.6376377139        2.5899503535  W2        21394           0.0000000000
     64181     21394  TIP3      H1              8.1796833595       43.1926477139        3.3196903535  W2        21394           0.0000000000
     64182     21394  TIP3      H2              7.8924833595       44.0092677139        2.0777003535  W2        21394           0.0000000000
     64183     21395  TIP3      OH2             1.8529533595       43.3795877139        9.6418203535  W2        21395           0.0000000000
     64184     21395  TIP3      H1              2.4837233595       43.3507977139       10.3612103535  W2        21395           0.0000000000
     64185     21395  TIP3      H2              2.3023833595       42.9544577139        8.9114103535  W2        21395           0.0000000000
     64186     21396  TIP3      OH2             3.1271633595       44.1257877139        5.0658603535  W2        21396           0.0000000000
     64187     21396  TIP3      H1              3.6013333595       44.7167777139        4.4809503535  W2        21396           0.0000000000
     64188     21396  TIP3      H2              2.4098033595       44.6560777139        5.4128703535  W2        21396           0.0000000000
     64189     21397  TIP3      OH2            13.2959733595       47.6642677139       15.1384403535  W2        21397           0.0000000000
     64190     21397  TIP3      H1             13.6194533595       47.0332377139       14.4954903535  W2        21397           0.0000000000
     64191     21397  TIP3      H2             12.8559033595       47.1294877139       15.7991803535  W2        21397           0.0000000000
     64192     21398  TIP3      OH2            10.0732633595       43.5918177139        9.9225603535  W2        21398           0.0000000000
     64193     21398  TIP3      H1              9.1623733595       43.6484977139       10.2111603535  W2        21398           0.0000000000
     64194     21398  TIP3      H2             10.5785533595       43.5313677139       10.7332803535  W2        21398           0.0000000000
     64195     21399  TIP3      OH2             4.9016033595       45.2204477139        8.7493203535  W2        21399           0.0000000000
     64196     21399  TIP3      H1              4.0124033595       45.3199977139        8.4092803535  W2        21399           0.0000000000
     64197     21399  TIP3      H2              5.1980933595       44.3787477139        8.4031103535  W2        21399           0.0000000000
     64198     21400  TIP3      OH2             8.5547833595       45.2207077139        6.4057803535  W2        21400           0.0000000000
     64199     21400  TIP3      H1              9.4863333595       45.3497077139        6.5840903535  W2        21400           0.0000000000
     64200     21400  TIP3      H2              8.3398133595       45.8901377139        5.7562503535  W2        21400           0.0000000000
     64201     21401  TIP3      OH2            14.4784533595       42.8264477139       13.1867403535  W2        21401           0.0000000000
     64202     21401  TIP3      H1             13.8016133595       42.9577577139       13.8507103535  W2        21401           0.0000000000
     64203     21401  TIP3      H2             13.9929433595       42.6713977139       12.3765103535  W2        21401           0.0000000000
     64204     21402  TIP3      OH2             7.2288033595       46.4149277139        3.9723903535  W2        21402           0.0000000000
     64205     21402  TIP3      H1              6.6863133595       46.0353077139        3.2811503535  W2        21402           0.0000000000
     64206     21402  TIP3      H2              8.0622933595       46.6093977139        3.5438003535  W2        21402           0.0000000000
     64207     21403  TIP3      OH2             5.3639433595       50.9721177139       19.0715503535  W2        21403           0.0000000000
     64208     21403  TIP3      H1              6.0961833595       51.2267077139       19.6330003535  W2        21403           0.0000000000
     64209     21403  TIP3      H2              4.5838133595       51.1766577139       19.5870903535  W2        21403           0.0000000000
     64210     21404  TIP3      OH2            11.3932333595       46.3791177139       11.8095203535  W2        21404           0.0000000000
     64211     21404  TIP3      H1             11.9575733595       45.8327777139       11.2624803535  W2        21404           0.0000000000
     64212     21404  TIP3      H2             11.2455733595       45.8573077139       12.5982803535  W2        21404           0.0000000000
     64213     21405  TIP3      OH2             6.3952033595       42.5157277139        8.2280003535  W2        21405           0.0000000000
     64214     21405  TIP3      H1              6.0781533595       41.6132577139        8.1925403535  W2        21405           0.0000000000
     64215     21405  TIP3      H2              7.1766133595       42.5174677139        7.6751603535  W2        21405           0.0000000000
     64216     21406  TIP3      OH2            10.0198233595       44.7677277139       14.2235603535  W2        21406           0.0000000000
     64217     21406  TIP3      H1              9.1843533595       45.2216777139       14.3338003535  W2        21406           0.0000000000
     64218     21406  TIP3      H2             10.5438833595       45.0435777139       14.9755503535  W2        21406           0.0000000000
     64219     21407  TIP3      OH2            10.5640833595       50.9804977139        5.9082003535  W2        21407           0.0000000000
     64220     21407  TIP3      H1              9.8191833595       50.4730277139        5.5859903535  W2        21407           0.0000000000
     64221     21407  TIP3      H2             10.4298033595       51.0292977139        6.8546803535  W2        21407           0.0000000000
     64222     21408  TIP3      OH2            17.7139733595       50.1133177139       14.6949603535  W2        21408           0.0000000000
     64223     21408  TIP3      H1             18.3558533595       50.5699477139       14.1511803535  W2        21408           0.0000000000
     64224     21408  TIP3      H2             16.8836633595       50.2265577139       14.2323703535  W2        21408           0.0000000000
     64225     21409  TIP3      OH2            14.4617633595       43.7944877139        4.1074603535  W2        21409           0.0000000000
     64226     21409  TIP3      H1             13.5231833595       43.9060477139        3.9563403535  W2        21409           0.0000000000
     64227     21409  TIP3      H2             14.7589733595       44.6511777139        4.4140303535  W2        21409           0.0000000000
     64228     21410  TIP3      OH2            12.0832933595       51.1648277139       17.1451103535  W2        21410           0.0000000000
     64229     21410  TIP3      H1             11.7379033595       50.7830677139       17.9520703535  W2        21410           0.0000000000
     64230     21410  TIP3      H2             11.8833033595       52.0981877139       17.2164003535  W2        21410           0.0000000000
     64231     21411  TIP3      OH2            15.1801133595       45.6617577139        5.7682003535  W2        21411           0.0000000000
     64232     21411  TIP3      H1             16.0720133595       45.5242577139        6.0873203535  W2        21411           0.0000000000
     64233     21411  TIP3      H2             15.2364733595       46.4523677139        5.2315503535  W2        21411           0.0000000000
     64234     21412  TIP3      OH2             5.6889133595       50.2754977139       11.6779903535  W2        21412           0.0000000000
     64235     21412  TIP3      H1              6.4336333595       50.2730677139       11.0766403535  W2        21412           0.0000000000
     64236     21412  TIP3      H2              5.7665733595       49.4518777139       12.1595003535  W2        21412           0.0000000000
     64237     21413  TIP3      OH2            12.6894933595       52.4389277139        4.9336603535  W2        21413           0.0000000000
     64238     21413  TIP3      H1             12.3943333595       53.2657177139        5.3151403535  W2        21413           0.0000000000
     64239     21413  TIP3      H2             11.9864933595       51.8196177139        5.1298003535  W2        21413           0.0000000000
     64240     21414  TIP3      OH2             2.6968833595       48.7361877139       16.9928403535  W2        21414           0.0000000000
     64241     21414  TIP3      H1              2.9197433595       48.3181477139       17.8245903535  W2        21414           0.0000000000
     64242     21414  TIP3      H2              2.0948933595       48.1236877139       16.5701203535  W2        21414           0.0000000000
     64243     21415  TIP3      OH2             9.7133733595       48.2531777139       19.2058103535  W2        21415           0.0000000000
     64244     21415  TIP3      H1              9.4174533595       48.0874777139       18.3107203535  W2        21415           0.0000000000
     64245     21415  TIP3      H2             10.6448933595       48.0332077139       19.1952003535  W2        21415           0.0000000000
     64246     21416  TIP3      OH2            14.3336533595       53.6263777139       17.0956103535  W2        21416           0.0000000000
     64247     21416  TIP3      H1             13.4330833595       53.8096377139       16.8280003535  W2        21416           0.0000000000
     64248     21416  TIP3      H2             14.3677633595       53.8853077139       18.0164903535  W2        21416           0.0000000000
     64249     21417  TIP3      OH2            20.0649833595       45.8711677139        5.4628703535  W2        21417           0.0000000000
     64250     21417  TIP3      H1             19.5106133595       45.4749677139        4.7906203535  W2        21417           0.0000000000
     64251     21417  TIP3      H2             20.1653433595       46.7816877139        5.1852003535  W2        21417           0.0000000000
     64252     21418  TIP3      OH2            20.0281833595       51.6713377139       18.3000203535  W2        21418           0.0000000000
     64253     21418  TIP3      H1             19.1770333595       51.9097177139       17.9326603535  W2        21418           0.0000000000
     64254     21418  TIP3      H2             20.6185233595       51.6546577139       17.5467303535  W2        21418           0.0000000000
     64255     21419  TIP3      OH2            18.3601533595       54.6572077139        5.9280803535  W2        21419           0.0000000000
     64256     21419  TIP3      H1             17.9872633595       53.8315877139        6.2371403535  W2        21419           0.0000000000
     64257     21419  TIP3      H2             18.6375033595       54.4741477139        5.0304203535  W2        21419           0.0000000000
     64258     21420  TIP3      OH2            15.5205433595       49.4651577139       12.9492703535  W2        21420           0.0000000000
     64259     21420  TIP3      H1             14.5922333595       49.2333477139       12.9222003535  W2        21420           0.0000000000
     64260     21420  TIP3      H2             15.9716533595       48.6881377139       12.6191503535  W2        21420           0.0000000000
     64261     21421  TIP3      OH2             8.0638533595       53.7933177139        9.0821403535  W2        21421           0.0000000000
     64262     21421  TIP3      H1              8.5910733595       54.5667577139        8.8820203535  W2        21421           0.0000000000
     64263     21421  TIP3      H2              7.1837033595       54.0182377139        8.7805403535  W2        21421           0.0000000000
     64264     21422  TIP3      OH2             3.8186233595       48.6557277139        3.6693803535  W2        21422           0.0000000000
     64265     21422  TIP3      H1              4.4346133595       49.2824477139        4.0488603535  W2        21422           0.0000000000
     64266     21422  TIP3      H2              2.9568833595       48.9717077139        3.9410303535  W2        21422           0.0000000000
     64267     21423  TIP3      OH2             9.4910833595       51.4563077139        8.6585703535  W2        21423           0.0000000000
     64268     21423  TIP3      H1              9.2500833595       52.3817477139        8.7001003535  W2        21423           0.0000000000
     64269     21423  TIP3      H2              8.7504433595       50.9974377139        9.0549603535  W2        21423           0.0000000000
     64270     21424  TIP3      OH2            13.5498233595       51.7047377139       14.6742403535  W2        21424           0.0000000000
     64271     21424  TIP3      H1             13.1239533595       51.4769077139       15.5006403535  W2        21424           0.0000000000
     64272     21424  TIP3      H2             14.1304033595       50.9659177139       14.4917703535  W2        21424           0.0000000000
     64273     21425  TIP3      OH2            15.7527133595       52.6337877139        3.7481403535  W2        21425           0.0000000000
     64274     21425  TIP3      H1             16.1060233595       52.2537677139        4.5524903535  W2        21425           0.0000000000
     64275     21425  TIP3      H2             14.8040633595       52.5402677139        3.8350703535  W2        21425           0.0000000000
     64276     21426  TIP3      OH2             4.3308333595       43.4894577139       16.5509803535  W2        21426           0.0000000000
     64277     21426  TIP3      H1              3.4380633595       43.8279977139       16.4833803535  W2        21426           0.0000000000
     64278     21426  TIP3      H2              4.2321133595       42.6340677139       16.9690603535  W2        21426           0.0000000000
     64279     21427  TIP3      OH2            16.6186433595       51.3059877139        5.9749303535  W2        21427           0.0000000000
     64280     21427  TIP3      H1             16.3414033595       50.5779177139        6.5310403535  W2        21427           0.0000000000
     64281     21427  TIP3      H2             17.5459433595       51.4251877139        6.1801903535  W2        21427           0.0000000000
     64282     21428  TIP3      OH2             9.8434933595       53.7453977139        2.1951403535  W2        21428           0.0000000000
     64283     21428  TIP3      H1             10.0824733595       52.9972077139        1.6480303535  W2        21428           0.0000000000
     64284     21428  TIP3      H2              9.5746233595       53.3575677139        3.0279203535  W2        21428           0.0000000000
     64285     21429  TIP3      OH2             8.7805533595       53.3157777139        4.6514003535  W2        21429           0.0000000000
     64286     21429  TIP3      H1              8.9273533595       52.7957577139        5.4414903535  W2        21429           0.0000000000
     64287     21429  TIP3      H2              8.7777233595       54.2225377139        4.9579903535  W2        21429           0.0000000000
     64288     21430  TIP3      OH2             5.2336633595       50.5681077139        5.1619403535  W2        21430           0.0000000000
     64289     21430  TIP3      H1              4.5475933595       50.9203577139        5.7289103535  W2        21430           0.0000000000
     64290     21430  TIP3      H2              5.7564533595       51.3310677139        4.9153703535  W2        21430           0.0000000000
     64291     21431  TIP3      OH2            13.0651733595       43.2304877139       15.4408403535  W2        21431           0.0000000000
     64292     21431  TIP3      H1             13.7639633595       43.3043577139       16.0908103535  W2        21431           0.0000000000
     64293     21431  TIP3      H2             12.6843133595       42.3659877139       15.5951303535  W2        21431           0.0000000000
     64294     21432  TIP3      OH2            13.8496633595       42.8826577139        6.5380703535  W2        21432           0.0000000000
     64295     21432  TIP3      H1             14.0694933595       43.3541977139        5.7346103535  W2        21432           0.0000000000
     64296     21432  TIP3      H2             14.4080633595       43.2769177139        7.2081303535  W2        21432           0.0000000000
     64297     21433  TIP3      OH2            11.0496533595       44.6105377139        7.3729103535  W2        21433           0.0000000000
     64298     21433  TIP3      H1             11.8619133595       45.1148577139        7.4190803535  W2        21433           0.0000000000
     64299     21433  TIP3      H2             10.8049533595       44.4655077139        8.2868703535  W2        21433           0.0000000000
     64300     21434  TIP3      OH2            11.5852933595       45.5968077139       16.5575703535  W2        21434           0.0000000000
     64301     21434  TIP3      H1             11.7043233595       46.1703477139       17.3146103535  W2        21434           0.0000000000
     64302     21434  TIP3      H2             12.2407533595       44.9087477139       16.6723503535  W2        21434           0.0000000000
     64303     21435  TIP3      OH2            11.9333233595       41.6918377139        8.3110203535  W2        21435           0.0000000000
     64304     21435  TIP3      H1             11.5866733595       42.3088977139        8.9554503535  W2        21435           0.0000000000
     64305     21435  TIP3      H2             12.5920133595       42.1924077139        7.8295703535  W2        21435           0.0000000000
     64306     21436  TIP3      OH2             7.5910233595       42.7547777139        4.9982703535  W2        21436           0.0000000000
     64307     21436  TIP3      H1              7.5075033595       43.6430877139        5.3449103535  W2        21436           0.0000000000
     64308     21436  TIP3      H2              8.4810533595       42.4894477139        5.2299503535  W2        21436           0.0000000000
     64309     21437  TIP3      OH2            17.7898733595       43.5038377139       17.3925403535  W2        21437           0.0000000000
     64310     21437  TIP3      H1             16.8734533595       43.7660077139       17.3049103535  W2        21437           0.0000000000
     64311     21437  TIP3      H2             18.1253733595       43.5007377139       16.4960703535  W2        21437           0.0000000000
     64312     21438  TIP3      OH2            16.3919733595       47.2539377139       11.4882703535  W2        21438           0.0000000000
     64313     21438  TIP3      H1             15.5944133595       46.8389577139       11.1597703535  W2        21438           0.0000000000
     64314     21438  TIP3      H2             16.8370833595       46.5633077139       11.9793203535  W2        21438           0.0000000000
     64315     21439  TIP3      OH2             5.8495533595       53.1819977139        4.0587203535  W2        21439           0.0000000000
     64316     21439  TIP3      H1              6.4417033595       53.8814777139        4.3349603535  W2        21439           0.0000000000
     64317     21439  TIP3      H2              6.3088533595       52.7489477139        3.3391803535  W2        21439           0.0000000000
     64318     21440  TIP3      OH2             4.1654733595       45.8462977139        3.1746603535  W2        21440           0.0000000000
     64319     21440  TIP3      H1              4.1207333595       46.7856077139        3.3533603535  W2        21440           0.0000000000
     64320     21440  TIP3      H2              3.2777933595       45.6107877139        2.9048703535  W2        21440           0.0000000000
     64321     21441  TIP3      OH2             4.9736733595       40.6279577139       11.8477603535  W2        21441           0.0000000000
     64322     21441  TIP3      H1              4.7446533595       40.6872077139       10.9202603535  W2        21441           0.0000000000
     64323     21441  TIP3      H2              4.5310133595       39.8365077139       12.1541703535  W2        21441           0.0000000000
     64324     21442  TIP3      OH2             3.9040033595       54.5686677139        8.0083403535  W2        21442           0.0000000000
     64325     21442  TIP3      H1              3.0718633595       55.0409377139        8.0354803535  W2        21442           0.0000000000
     64326     21442  TIP3      H2              4.4498333595       55.0784277139        7.4096503535  W2        21442           0.0000000000
     64327     21443  TIP3      OH2            14.3665833595       54.4805877139       19.6877103535  W2        21443           0.0000000000
     64328     21443  TIP3      H1             14.0155333595       53.6238877139       19.9307503535  W2        21443           0.0000000000
     64329     21443  TIP3      H2             15.0929033595       54.6232577139       20.2946103535  W2        21443           0.0000000000
     64330     21444  TIP3      OH2             3.0993233595       50.9914477139       20.2925703535  W2        21444           0.0000000000
     64331     21444  TIP3      H1              3.2433733595       50.0895177139       20.0062403535  W2        21444           0.0000000000
     64332     21444  TIP3      H2              2.3270633595       51.2776577139       19.8048003535  W2        21444           0.0000000000
     64333     21445  TIP3      OH2             7.4406933595       51.3350177139        2.4250303535  W2        21445           0.0000000000
     64334     21445  TIP3      H1              7.5051033595       50.5409777139        2.9556703535  W2        21445           0.0000000000
     64335     21445  TIP3      H2              8.0936133595       51.2162977139        1.7352303535  W2        21445           0.0000000000
     64336     21446  TIP3      OH2             9.7549333595       50.9612577139       19.7252103535  W2        21446           0.0000000000
     64337     21446  TIP3      H1              9.4263133595       51.2320677139       18.8679503535  W2        21446           0.0000000000
     64338     21446  TIP3      H2              9.9067533595       50.0202377139       19.6377103535  W2        21446           0.0000000000
     64339     21447  TIP3      OH2            12.7930333595       52.3821877139        2.1608303535  W2        21447           0.0000000000
     64340     21447  TIP3      H1             12.5244433595       52.5623977139        3.0617203535  W2        21447           0.0000000000
     64341     21447  TIP3      H2             12.5865933595       51.4568077139        2.0294103535  W2        21447           0.0000000000
     64342     21448  TIP3      OH2            15.4894533595       50.8769877139       17.1084403535  W2        21448           0.0000000000
     64343     21448  TIP3      H1             16.2349333595       51.4653577139       16.9888403535  W2        21448           0.0000000000
     64344     21448  TIP3      H2             14.7321333595       51.4589577139       17.1717503535  W2        21448           0.0000000000
     64345     21449  TIP3      OH2             3.9319733595       48.1917777139       19.7125003535  W2        21449           0.0000000000
     64346     21449  TIP3      H1              4.3400933595       47.3344377139       19.5915603535  W2        21449           0.0000000000
     64347     21449  TIP3      H2              3.6717333595       48.2059077139       20.6335303535  W2        21449           0.0000000000
     64348     21450  TIP3      OH2             8.5900733595       49.3076377139        4.7308303535  W2        21450           0.0000000000
     64349     21450  TIP3      H1              8.1302733595       48.8234677139        5.4166803535  W2        21450           0.0000000000
     64350     21450  TIP3      H2              8.8449433595       48.6391777139        4.0948803535  W2        21450           0.0000000000
     64351     21451  TIP3      OH2             7.8790033595       47.2003477139       17.0867903535  W2        21451           0.0000000000
     64352     21451  TIP3      H1              7.2606133595       47.8750077139       17.3672603535  W2        21451           0.0000000000
     64353     21451  TIP3      H2              8.2231233595       47.5217377139       16.2534103535  W2        21451           0.0000000000
     64354     21452  TIP3      OH2             9.6611133595       47.5508177139        2.9931503535  W2        21452           0.0000000000
     64355     21452  TIP3      H1              9.4806133595       47.3959377139        2.0659803535  W2        21452           0.0000000000
     64356     21452  TIP3      H2             10.6111633595       47.6586877139        3.0379403535  W2        21452           0.0000000000
     64357     21453  TIP3      OH2            12.8988233595       49.6718777139       20.3642703535  W2        21453           0.0000000000
     64358     21453  TIP3      H1             13.8519433595       49.7557877139       20.3368703535  W2        21453           0.0000000000
     64359     21453  TIP3      H2             12.7382833595       48.9600577139       20.9837603535  W2        21453           0.0000000000
     64360     21454  TIP3      OH2            19.0509433595       49.9052377139        2.4389603535  W2        21454           0.0000000000
     64361     21454  TIP3      H1             18.7774233595       49.4807877139        1.6257903535  W2        21454           0.0000000000
     64362     21454  TIP3      H2             19.0903533595       50.8366877139        2.2220003535  W2        21454           0.0000000000
     64363     21455  TIP3      OH2             8.2183733595       44.5554277139       18.1691003535  W2        21455           0.0000000000
     64364     21455  TIP3      H1              8.3684633595       43.8265577139       17.5670703535  W2        21455           0.0000000000
     64365     21455  TIP3      H2              8.2206133595       45.3325977139       17.6103203535  W2        21455           0.0000000000
     64366     21456  TIP3      OH2             8.6309433595       42.9250077139       15.6618403535  W2        21456           0.0000000000
     64367     21456  TIP3      H1              9.1666933595       43.3766777139       15.0097703535  W2        21456           0.0000000000
     64368     21456  TIP3      H2              7.7789033595       42.8169877139       15.2392503535  W2        21456           0.0000000000
     64369     21457  TIP3      OH2            10.2127833595       48.3646277139       15.9013603535  W2        21457           0.0000000000
     64370     21457  TIP3      H1             10.9632633595       48.2083777139       15.3281403535  W2        21457           0.0000000000
     64371     21457  TIP3      H2              9.8736133595       49.2162877139       15.6259103535  W2        21457           0.0000000000
     64372     21458  TIP3      OH2            14.6284033595       46.1798077139       20.9298903535  W2        21458           0.0000000000
     64373     21458  TIP3      H1             14.8205333595       45.2487477139       20.8183403535  W2        21458           0.0000000000
     64374     21458  TIP3      H2             15.4860333595       46.6047577139       20.9194303535  W2        21458           0.0000000000
     64375     21459  TIP3      OH2            15.9451233595       48.9683277139       19.0071603535  W2        21459           0.0000000000
     64376     21459  TIP3      H1             15.6636233595       49.6777877139       18.4295403535  W2        21459           0.0000000000
     64377     21459  TIP3      H2             16.8875533595       48.8956277139       18.8562803535  W2        21459           0.0000000000
     64378     21460  TIP3      OH2             6.6970033595       45.7537777139       20.0806603535  W2        21460           0.0000000000
     64379     21460  TIP3      H1              5.9299033595       45.2212577139       19.8704203535  W2        21460           0.0000000000
     64380     21460  TIP3      H2              7.3759033595       45.4438177139       19.4812903535  W2        21460           0.0000000000
     64381     21461  TIP3      OH2             9.4364933595       40.3815777139       16.0932003535  W2        21461           0.0000000000
     64382     21461  TIP3      H1              9.3384533595       41.3278977139       15.9878203535  W2        21461           0.0000000000
     64383     21461  TIP3      H2              8.6941133595       40.0089577139       15.6175503535  W2        21461           0.0000000000
     64384     21462  TIP3      OH2            10.7005433595       44.7031177139       19.6570403535  W2        21462           0.0000000000
     64385     21462  TIP3      H1             10.4650833595       44.4837877139       20.5585303535  W2        21462           0.0000000000
     64386     21462  TIP3      H2              9.9172333595       44.4962377139       19.1472903535  W2        21462           0.0000000000
     64387     21463  TIP3      OH2            13.4162033595       43.8304677139       18.7323903535  W2        21463           0.0000000000
     64388     21463  TIP3      H1             12.4687433595       43.8624377139       18.8647203535  W2        21463           0.0000000000
     64389     21463  TIP3      H2             13.7288733595       43.2051777139       19.3862103535  W2        21463           0.0000000000
     64390     21464  TIP3      OH2            15.0503533595       42.4645777139       20.7375803535  W2        21464           0.0000000000
     64391     21464  TIP3      H1             14.9535333595       41.5123077139       20.7317703535  W2        21464           0.0000000000
     64392     21464  TIP3      H2             14.7286633595       42.7332577139       21.5981303535  W2        21464           0.0000000000
     64393     21465  TIP3      OH2             4.8772833595       43.6741577139       19.7851303535  W2        21465           0.0000000000
     64394     21465  TIP3      H1              5.0890233595       42.9677677139       19.1748803535  W2        21465           0.0000000000
     64395     21465  TIP3      H2              4.7660333595       43.2367577139       20.6292503535  W2        21465           0.0000000000
     64396     21466  TIP3      OH2             9.6583033595       39.6753177139       18.7644803535  W2        21466           0.0000000000
     64397     21466  TIP3      H1             10.3701433595       39.0355377139       18.7503903535  W2        21466           0.0000000000
     64398     21466  TIP3      H2              9.5573433595       39.9421477139       17.8507903535  W2        21466           0.0000000000
     64399     21467  TIP3      OH2            10.0120533595       41.3581577139       20.8181103535  W2        21467           0.0000000000
     64400     21467  TIP3      H1              9.8802733595       40.8825377139       19.9979603535  W2        21467           0.0000000000
     64401     21467  TIP3      H2              9.4127933595       42.1025177139       20.7628203535  W2        21467           0.0000000000
     64402     21468  TIP3      OH2             3.1267733595       52.8775677139        3.4773203535  W2        21468           0.0000000000
     64403     21468  TIP3      H1              4.0406933595       52.9564577139        3.7507103535  W2        21468           0.0000000000
     64404     21468  TIP3      H2              3.1340833595       52.1905277139        2.8108803535  W2        21468           0.0000000000
     64405     21469  TIP3      OH2            18.2082533595       52.5176777139       20.8997503535  W2        21469           0.0000000000
     64406     21469  TIP3      H1             17.3423633595       52.4126477139       21.2939803535  W2        21469           0.0000000000
     64407     21469  TIP3      H2             18.5848433595       53.2760077139       21.3462203535  W2        21469           0.0000000000
     64408     21470  TIP3      OH2            19.5092233595       50.7740477139        6.4140003535  W2        21470           0.0000000000
     64409     21470  TIP3      H1             20.3593633595       51.1951377139        6.5411603535  W2        21470           0.0000000000
     64410     21470  TIP3      H2             19.5147333595       50.0340577139        7.0211403535  W2        21470           0.0000000000
     64411     21471  TIP3      OH2            19.9037833595       48.8277877139        8.2375703535  W2        21471           0.0000000000
     64412     21471  TIP3      H1             19.1772433595       48.3480477139        8.6353303535  W2        21471           0.0000000000
     64413     21471  TIP3      H2             20.4851133595       49.0332577139        8.9697303535  W2        21471           0.0000000000
     64414     21472  TIP3      OH2            19.6629033595       51.6125377139       13.1853303535  W2        21472           0.0000000000
     64415     21472  TIP3      H1             20.4963233595       51.2345377139       12.9046903535  W2        21472           0.0000000000
     64416     21472  TIP3      H2             19.7749333595       52.5556577139       13.0662403535  W2        21472           0.0000000000
     64417     21473  TIP3      OH2            18.1491333595       54.4902877139       15.4921703535  W2        21473           0.0000000000
     64418     21473  TIP3      H1             17.5016633595       54.8154377139       16.1176903535  W2        21473           0.0000000000
     64419     21473  TIP3      H2             17.6315333595       54.0500577139       14.8180003535  W2        21473           0.0000000000
     64420     21474  TIP3      OH2            20.1720933595       48.7286377139        4.6287003535  W2        21474           0.0000000000
     64421     21474  TIP3      H1             19.6502033595       49.0850477139        3.9097903535  W2        21474           0.0000000000
     64422     21474  TIP3      H2             20.1390133595       49.4034177139        5.3067903535  W2        21474           0.0000000000
     64423     21475  TIP3      OH2            18.5209933595       45.9681977139        3.1794103535  W2        21475           0.0000000000
     64424     21475  TIP3      H1             18.6174333595       46.6348977139        2.4993803535  W2        21475           0.0000000000
     64425     21475  TIP3      H2             18.3809533595       45.1528277139        2.6979603535  W2        21475           0.0000000000
     64426     21476  TIP3      OH2            17.6904633595       47.3484377139        8.8004403535  W2        21476           0.0000000000
     64427     21476  TIP3      H1             17.5403433595       46.4032977139        8.7802203535  W2        21476           0.0000000000
     64428     21476  TIP3      H2             17.3369133595       47.6295777139        9.6443503535  W2        21476           0.0000000000
     64429     21477  TIP3      OH2             2.7257033595       49.4266577139       12.8108203535  W2        21477           0.0000000000
     64430     21477  TIP3      H1              2.9099933595       49.3448277139       11.8751103535  W2        21477           0.0000000000
     64431     21477  TIP3      H2              3.5749933595       49.3023577139       13.2344603535  W2        21477           0.0000000000
     64432     21478  TIP3      OH2            18.5467533595       49.3187677139       18.4392703535  W2        21478           0.0000000000
     64433     21478  TIP3      H1             19.1294833595       48.5839977139       18.6309903535  W2        21478           0.0000000000
     64434     21478  TIP3      H2             19.1106833595       50.0907977139       18.4858503535  W2        21478           0.0000000000
     64435     21479  TIP3      OH2            20.0434633595       47.2213477139       19.1238103535  W2        21479           0.0000000000
     64436     21479  TIP3      H1             19.1801333595       46.8425577139       18.9582803535  W2        21479           0.0000000000
     64437     21479  TIP3      H2             20.6478333595       46.4828277139       19.0493903535  W2        21479           0.0000000000
     64438     21480  TIP3      OH2            17.7683733595       43.3761777139        2.2969603535  W2        21480           0.0000000000
     64439     21480  TIP3      H1             18.3789533595       43.0048577139        2.9337803535  W2        21480           0.0000000000
     64440     21480  TIP3      H2             16.9315233595       42.9548677139        2.4929603535  W2        21480           0.0000000000
     64441     21481  TIP3      OH2            17.4009433595       44.9310177139        7.2629503535  W2        21481           0.0000000000
     64442     21481  TIP3      H1             17.6806533595       44.0240577139        7.3871203535  W2        21481           0.0000000000
     64443     21481  TIP3      H2             18.1601133595       45.3651677139        6.8738703535  W2        21481           0.0000000000
     64444     21482  TIP3      OH2            18.0127733595       45.5127577139       12.6988403535  W2        21482           0.0000000000
     64445     21482  TIP3      H1             18.9455733595       45.7247477139       12.6644403535  W2        21482           0.0000000000
     64446     21482  TIP3      H2             17.7775233595       45.6139677139       13.6211403535  W2        21482           0.0000000000
     64447     21483  TIP3      OH2            18.0419633595       46.2492877139       15.4747803535  W2        21483           0.0000000000
     64448     21483  TIP3      H1             17.1990933595       46.5173277139       15.8407603535  W2        21483           0.0000000000
     64449     21483  TIP3      H2             18.4843933595       47.0714777139       15.2638903535  W2        21483           0.0000000000
     64450     21484  TIP3      OH2             2.3231833595       44.6971577139       18.9517003535  W2        21484           0.0000000000
     64451     21484  TIP3      H1              3.2426733595       44.5749877139       19.1880103535  W2        21484           0.0000000000
     64452     21484  TIP3      H2              1.8736333595       43.9471277139       19.3410503535  W2        21484           0.0000000000
     64453     21485  TIP3      OH2            20.3251233595       40.2293077139       20.8282803535  W2        21485           0.0000000000
     64454     21485  TIP3      H1             20.6748233595       39.5756577139       20.2227503535  W2        21485           0.0000000000
     64455     21485  TIP3      H2             20.4720733595       41.0667177139       20.3885403535  W2        21485           0.0000000000
     64456     21486  TIP3      OH2            18.0144233595       42.1939477139        7.3111503535  W2        21486           0.0000000000
     64457     21486  TIP3      H1             18.1969233595       41.7450977139        8.1366503535  W2        21486           0.0000000000
     64458     21486  TIP3      H2             17.4147133595       41.6093877139        6.8476103535  W2        21486           0.0000000000
     64459     21487  TIP3      OH2             3.5444333595       43.0093177139       11.8429903535  W2        21487           0.0000000000
     64460     21487  TIP3      H1              3.9895933595       42.2175677139       12.1449603535  W2        21487           0.0000000000
     64461     21487  TIP3      H2              4.0107333595       43.7258377139       12.2735503535  W2        21487           0.0000000000
     64462     21488  TIP3      OH2             1.8484633595       46.0086177139       12.9120103535  W2        21488           0.0000000000
     64463     21488  TIP3      H1              2.3404433595       45.7876677139       12.1212103535  W2        21488           0.0000000000
     64464     21488  TIP3      H2              2.2105533595       46.8489577139       13.1929603535  W2        21488           0.0000000000
     64465     21489  TIP3      OH2            19.8448433595       42.3387677139       19.1774103535  W2        21489           0.0000000000
     64466     21489  TIP3      H1             18.9274133595       42.6094777139       19.1417603535  W2        21489           0.0000000000
     64467     21489  TIP3      H2             19.9677833595       41.8036077139       18.3933803535  W2        21489           0.0000000000
     64468     21490  TIP3      OH2            19.8810433595       42.2617577139        3.8391803535  W2        21490           0.0000000000
     64469     21490  TIP3      H1             20.2933033595       41.5403277139        3.3639803535  W2        21490           0.0000000000
     64470     21490  TIP3      H2             20.5626933595       42.9312177139        3.8976103535  W2        21490           0.0000000000
     64471     21491  TIP3      OH2             2.1621133595       42.2665277139        6.9662503535  W2        21491           0.0000000000
     64472     21491  TIP3      H1              1.2369533595       42.4751877139        6.8368003535  W2        21491           0.0000000000
     64473     21491  TIP3      H2              2.6161033595       42.7506077139        6.2764803535  W2        21491           0.0000000000
     64474     21492  TIP3      OH2             2.1256533595       41.0044277139       15.3105003535  W2        21492           0.0000000000
     64475     21492  TIP3      H1              1.4607033595       40.7584577139       15.9535903535  W2        21492           0.0000000000
     64476     21492  TIP3      H2              1.6827833595       41.6264677139       14.7333003535  W2        21492           0.0000000000
     64477     21493  TIP3      OH2             4.3175833595       54.1798377139       19.4550803535  W2        21493           0.0000000000
     64478     21493  TIP3      H1              3.4968333595       54.3544877139       18.9945503535  W2        21493           0.0000000000
     64479     21493  TIP3      H2              4.0653633595       54.1063077139       20.3755203535  W2        21493           0.0000000000
     64480     21494  TIP3      OH2            18.8454333595       40.4283977139       16.9964903535  W2        21494           0.0000000000
     64481     21494  TIP3      H1             18.0327833595       40.7534277139       16.6089603535  W2        21494           0.0000000000
     64482     21494  TIP3      H2             19.0782833595       39.6682477139       16.4634003535  W2        21494           0.0000000000
     64483     21495  TIP3      OH2            12.2752833595       41.8774577139       11.3193103535  W2        21495           0.0000000000
     64484     21495  TIP3      H1             11.6009633595       41.2480177139       11.5748903535  W2        21495           0.0000000000
     64485     21495  TIP3      H2             12.8392033595       41.3933477139       10.7161003535  W2        21495           0.0000000000
     64486     21496  TIP3      OH2            17.4180033595       39.9848577139       11.4320203535  W2        21496           0.0000000000
     64487     21496  TIP3      H1             18.0217633595       40.5323977139       10.9301203535  W2        21496           0.0000000000
     64488     21496  TIP3      H2             16.5482033595       40.3038977139       11.1914303535  W2        21496           0.0000000000
     64489     21497  TIP3      OH2            19.1450433595       41.1237277139        9.7651103535  W2        21497           0.0000000000
     64490     21497  TIP3      H1             19.7567933595       40.6092977139        9.2384703535  W2        21497           0.0000000000
     64491     21497  TIP3      H2             19.5273833595       42.0009377139        9.7885503535  W2        21497           0.0000000000
     64492     21498  TIP3      OH2             4.6020333595       40.5114877139        9.1413003535  W2        21498           0.0000000000
     64493     21498  TIP3      H1              3.8250133595       40.2769777139        8.6338903535  W2        21498           0.0000000000
     64494     21498  TIP3      H2              5.1323933595       39.7146977139        9.1501003535  W2        21498           0.0000000000
     64495     21499  TIP3      OH2             3.4383733595       40.3092977139        4.9449103535  W2        21499           0.0000000000
     64496     21499  TIP3      H1              3.8774433595       40.9203477139        4.3532603535  W2        21499           0.0000000000
     64497     21499  TIP3      H2              2.8046133595       40.8477077139        5.4189103535  W2        21499           0.0000000000
     64498     21500  TIP3      OH2             9.1812933595       40.4381977139        8.9546103535  W2        21500           0.0000000000
     64499     21500  TIP3      H1             10.0556333595       40.8266277139        8.9250403535  W2        21500           0.0000000000
     64500     21500  TIP3      H2              9.0453733595       40.2229777139        9.8773303535  W2        21500           0.0000000000
     64501     21501  TIP3      OH2            14.7381333595       40.4681777139       10.6037803535  W2        21501           0.0000000000
     64502     21501  TIP3      H1             14.8142933595       40.5633377139        9.6543803535  W2        21501           0.0000000000
     64503     21501  TIP3      H2             14.4630533595       39.5604677139       10.7326903535  W2        21501           0.0000000000
     64504     21502  TIP3      OH2            16.0913933595       40.4939577139        6.2962803535  W2        21502           0.0000000000
     64505     21502  TIP3      H1             15.3885033595       41.1088777139        6.0864203535  W2        21502           0.0000000000
     64506     21502  TIP3      H2             15.6465333595       39.6566277139        6.4273703535  W2        21502           0.0000000000
     64507     21503  TIP3      OH2             5.2992833595       42.2254477139        3.3873203535  W2        21503           0.0000000000
     64508     21503  TIP3      H1              5.7906233595       41.5956877139        2.8598703535  W2        21503           0.0000000000
     64509     21503  TIP3      H2              5.9229133595       42.5213877139        4.0504403535  W2        21503           0.0000000000
     64510     21504  TIP3      OH2            10.3252933595       42.5185977139        5.8443703535  W2        21504           0.0000000000
     64511     21504  TIP3      H1             10.5034233595       41.8719177139        6.5272303535  W2        21504           0.0000000000
     64512     21504  TIP3      H2             10.2719133595       43.3523677139        6.3114803535  W2        21504           0.0000000000
     64513     21505  TIP3      OH2             4.5598333595       41.0256777139       18.6589203535  W2        21505           0.0000000000
     64514     21505  TIP3      H1              4.1936533595       40.2599377139       19.1013903535  W2        21505           0.0000000000
     64515     21505  TIP3      H2              5.4726833595       41.0546977139       18.9454303535  W2        21505           0.0000000000
     64516     21506  TIP3      OH2             6.5329133595       40.3761177139       20.1946303535  W2        21506           0.0000000000
     64517     21506  TIP3      H1              7.4312733595       40.1021377139       20.0099703535  W2        21506           0.0000000000
     64518     21506  TIP3      H2              6.1462233595       39.6337177139       20.6588903535  W2        21506           0.0000000000
     64519     21507  TIP3      OH2            14.9541433595       39.7086477139       20.3769103535  W2        21507           0.0000000000
     64520     21507  TIP3      H1             15.0308633595       39.2827177139       21.2306803535  W2        21507           0.0000000000
     64521     21507  TIP3      H2             15.8478033595       39.7221177139       20.0342603535  W2        21507           0.0000000000
     64522     21508  TIP3      OH2            32.5362933595       49.6677177139        9.1000503535  W2        21508           0.0000000000
     64523     21508  TIP3      H1             32.6254033595       50.6115377139        8.9677603535  W2        21508           0.0000000000
     64524     21508  TIP3      H2             31.8980533595       49.3923577139        8.4419903535  W2        21508           0.0000000000
     64525     21509  TIP3      OH2            31.4694233595       48.9227877139       12.5188703535  W2        21509           0.0000000000
     64526     21509  TIP3      H1             31.4311733595       48.2764177139       13.2238303535  W2        21509           0.0000000000
     64527     21509  TIP3      H2             31.1470733595       48.4562277139       11.7477403535  W2        21509           0.0000000000
     64528     21510  TIP3      OH2            23.8379233595       48.5369977139       14.1118603535  W2        21510           0.0000000000
     64529     21510  TIP3      H1             23.8791333595       47.9113277139       14.8351003535  W2        21510           0.0000000000
     64530     21510  TIP3      H2             24.5406933595       49.1608577139       14.2939003535  W2        21510           0.0000000000
     64531     21511  TIP3      OH2            35.1754433595       51.8618277139       10.8203803535  W2        21511           0.0000000000
     64532     21511  TIP3      H1             34.7347133595       51.1414277139       11.2709403535  W2        21511           0.0000000000
     64533     21511  TIP3      H2             35.1624133595       52.5825477139       11.4501503535  W2        21511           0.0000000000
     64534     21512  TIP3      OH2            24.7612333595       52.9868877139       12.6467703535  W2        21512           0.0000000000
     64535     21512  TIP3      H1             24.3917533595       52.1849377139       12.2772003535  W2        21512           0.0000000000
     64536     21512  TIP3      H2             25.7023433595       52.8183777139       12.6931103535  W2        21512           0.0000000000
     64537     21513  TIP3      OH2            21.3712833595       46.6471477139        8.0396503535  W2        21513           0.0000000000
     64538     21513  TIP3      H1             20.9236233595       47.4930177139        8.0213003535  W2        21513           0.0000000000
     64539     21513  TIP3      H2             20.8104033595       46.0675677139        7.5241603535  W2        21513           0.0000000000
     64540     21514  TIP3      OH2            22.0818933595       48.8091077139       10.1654503535  W2        21514           0.0000000000
     64541     21514  TIP3      H1             22.2952433595       48.0392677139       10.6927503535  W2        21514           0.0000000000
     64542     21514  TIP3      H2             22.8196533595       48.8987777139        9.5622103535  W2        21514           0.0000000000
     64543     21515  TIP3      OH2            29.8588633595       51.3549277139       12.9249703535  W2        21515           0.0000000000
     64544     21515  TIP3      H1             30.1626533595       50.6690677139       12.3303803535  W2        21515           0.0000000000
     64545     21515  TIP3      H2             30.5802633595       51.4737977139       13.5427703535  W2        21515           0.0000000000
     64546     21516  TIP3      OH2            38.5218433595       42.9564577139       13.7855903535  W2        21516           0.0000000000
     64547     21516  TIP3      H1             38.5710633595       43.5665777139       14.5215003535  W2        21516           0.0000000000
     64548     21516  TIP3      H2             38.9473533595       43.4175477139       13.0627003535  W2        21516           0.0000000000
     64549     21517  TIP3      OH2            32.9995633595       45.7491677139       13.2524503535  W2        21517           0.0000000000
     64550     21517  TIP3      H1             33.1421533595       44.8028677139       13.2726103535  W2        21517           0.0000000000
     64551     21517  TIP3      H2             32.8934633595       45.9561477139       12.3239403535  W2        21517           0.0000000000
     64552     21518  TIP3      OH2            26.1543933595       43.8508077139       10.5249303535  W2        21518           0.0000000000
     64553     21518  TIP3      H1             26.1975033595       44.7106577139       10.1065603535  W2        21518           0.0000000000
     64554     21518  TIP3      H2             25.6968033595       43.2982777139        9.8912503535  W2        21518           0.0000000000
     64555     21519  TIP3      OH2            33.8766633595       43.9813677139        8.9257603535  W2        21519           0.0000000000
     64556     21519  TIP3      H1             34.5230933595       43.6526877139        9.5505203535  W2        21519           0.0000000000
     64557     21519  TIP3      H2             34.3866033595       44.4992677139        8.3029003535  W2        21519           0.0000000000
     64558     21520  TIP3      OH2            22.7745433595       46.2473877139       11.2870703535  W2        21520           0.0000000000
     64559     21520  TIP3      H1             23.4282033595       45.6975577139       11.7190803535  W2        21520           0.0000000000
     64560     21520  TIP3      H2             22.7984733595       45.9732877139       10.3702703535  W2        21520           0.0000000000
     64561     21521  TIP3      OH2            27.9309933595       47.7975177139       10.5022203535  W2        21521           0.0000000000
     64562     21521  TIP3      H1             28.5470933595       47.2710577139       11.0116203535  W2        21521           0.0000000000
     64563     21521  TIP3      H2             27.3448733595       47.1573877139       10.0985803535  W2        21521           0.0000000000
     64564     21522  TIP3      OH2            38.9133033595       44.4343777139       16.0215703535  W2        21522           0.0000000000
     64565     21522  TIP3      H1             38.2247633595       45.0924477139       15.9262303535  W2        21522           0.0000000000
     64566     21522  TIP3      H2             38.9287633595       44.2371677139       16.9581103535  W2        21522           0.0000000000
     64567     21523  TIP3      OH2            24.9645833595       42.7686477139       14.5990103535  W2        21523           0.0000000000
     64568     21523  TIP3      H1             24.7457533595       43.2987077139       13.8326103535  W2        21523           0.0000000000
     64569     21523  TIP3      H2             24.2966733595       42.9951977139       15.2461503535  W2        21523           0.0000000000
     64570     21524  TIP3      OH2            32.3335633595       52.2687577139        8.1429203535  W2        21524           0.0000000000
     64571     21524  TIP3      H1             32.0380733595       51.9459877139        7.2916103535  W2        21524           0.0000000000
     64572     21524  TIP3      H2             32.0093433595       53.1684277139        8.1841803535  W2        21524           0.0000000000
     64573     21525  TIP3      OH2            27.5337233595       50.4442177139       14.8863803535  W2        21525           0.0000000000
     64574     21525  TIP3      H1             26.7936333595       51.0423677139       14.9899003535  W2        21525           0.0000000000
     64575     21525  TIP3      H2             28.2476733595       50.9981777139       14.5707403535  W2        21525           0.0000000000
     64576     21526  TIP3      OH2            35.6405033595       43.2722977139       10.9063503535  W2        21526           0.0000000000
     64577     21526  TIP3      H1             35.4253033595       42.5066377139       11.4389503535  W2        21526           0.0000000000
     64578     21526  TIP3      H2             36.2962433595       43.7447577139       11.4192003535  W2        21526           0.0000000000
     64579     21527  TIP3      OH2            24.5583133595       44.6608277139       12.5512303535  W2        21527           0.0000000000
     64580     21527  TIP3      H1             25.1719433595       45.2935877139       12.9244703535  W2        21527           0.0000000000
     64581     21527  TIP3      H2             25.0703833595       44.1883277139       11.8949203535  W2        21527           0.0000000000
     64582     21528  TIP3      OH2            25.9411533595       52.4085177139       15.6735303535  W2        21528           0.0000000000
     64583     21528  TIP3      H1             25.9359133595       53.2878677139       15.2954603535  W2        21528           0.0000000000
     64584     21528  TIP3      H2             25.0875633595       52.3249277139       16.0985203535  W2        21528           0.0000000000
     64585     21529  TIP3      OH2            22.0622433595       52.0793077139        6.4554603535  W2        21529           0.0000000000
     64586     21529  TIP3      H1             21.7903333595       52.3084077139        5.5667503535  W2        21529           0.0000000000
     64587     21529  TIP3      H2             22.1078133595       52.9171877139        6.9159903535  W2        21529           0.0000000000
     64588     21530  TIP3      OH2            35.6872133595       53.7008977139       13.1683103535  W2        21530           0.0000000000
     64589     21530  TIP3      H1             34.7455833595       53.7592877139       13.3300003535  W2        21530           0.0000000000
     64590     21530  TIP3      H2             35.9638233595       54.6069477139       13.0312803535  W2        21530           0.0000000000
     64591     21531  TIP3      OH2            35.9879133595       41.9874277139       14.5857003535  W2        21531           0.0000000000
     64592     21531  TIP3      H1             35.2518333595       42.5981377139       14.5478303535  W2        21531           0.0000000000
     64593     21531  TIP3      H2             36.6713133595       42.4023277139       14.0593403535  W2        21531           0.0000000000
     64594     21532  TIP3      OH2            28.9910533595       40.0741577139       12.0515003535  W2        21532           0.0000000000
     64595     21532  TIP3      H1             28.8734733595       39.1257577139       11.9973303535  W2        21532           0.0000000000
     64596     21532  TIP3      H2             28.1360633595       40.4067677139       12.3246103535  W2        21532           0.0000000000
     64597     21533  TIP3      OH2            35.0989833595       53.3830977139        8.3021303535  W2        21533           0.0000000000
     64598     21533  TIP3      H1             34.8414633595       52.6931077139        7.6907203535  W2        21533           0.0000000000
     64599     21533  TIP3      H2             35.1700633595       52.9402177139        9.1477203535  W2        21533           0.0000000000
     64600     21534  TIP3      OH2            36.7850033595       51.9497677139       16.7794803535  W2        21534           0.0000000000
     64601     21534  TIP3      H1             36.9246333595       51.3580177139       16.0401803535  W2        21534           0.0000000000
     64602     21534  TIP3      H2             36.9522833595       52.8223577139       16.4233603535  W2        21534           0.0000000000
     64603     21535  TIP3      OH2            31.2575433595       48.9117177139        6.5520803535  W2        21535           0.0000000000
     64604     21535  TIP3      H1             30.5460933595       49.4466877139        6.2001303535  W2        21535           0.0000000000
     64605     21535  TIP3      H2             31.9485033595       48.9669277139        5.8919703535  W2        21535           0.0000000000
     64606     21536  TIP3      OH2            31.3114633595       47.3691477139        3.5905803535  W2        21536           0.0000000000
     64607     21536  TIP3      H1             32.0124533595       47.3918377139        4.2419803535  W2        21536           0.0000000000
     64608     21536  TIP3      H2             31.6137533595       46.7411177139        2.9345103535  W2        21536           0.0000000000
     64609     21537  TIP3      OH2            38.6269333595       48.2895677139       14.8455203535  W2        21537           0.0000000000
     64610     21537  TIP3      H1             37.9743433595       48.9841277139       14.9346103535  W2        21537           0.0000000000
     64611     21537  TIP3      H2             39.0919633595       48.4996577139       14.0356803535  W2        21537           0.0000000000
     64612     21538  TIP3      OH2            34.6633133595       49.1210477139        7.5036703535  W2        21538           0.0000000000
     64613     21538  TIP3      H1             33.9314133595       49.3494177139        8.0767303535  W2        21538           0.0000000000
     64614     21538  TIP3      H2             35.1105333595       48.4073177139        7.9584203535  W2        21538           0.0000000000
     64615     21539  TIP3      OH2            34.5606633595       47.2953077139       16.5713703535  W2        21539           0.0000000000
     64616     21539  TIP3      H1             34.6405733595       48.0587477139       17.1432203535  W2        21539           0.0000000000
     64617     21539  TIP3      H2             33.9594333595       47.5745477139       15.8808803535  W2        21539           0.0000000000
     64618     21540  TIP3      OH2            26.3086833595       49.7516677139        9.3861703535  W2        21540           0.0000000000
     64619     21540  TIP3      H1             25.9782033595       49.3810077139        8.5678703535  W2        21540           0.0000000000
     64620     21540  TIP3      H2             26.8970933595       49.0810677139        9.7330003535  W2        21540           0.0000000000
     64621     21541  TIP3      OH2            27.6754333595       53.1797277139       12.0673903535  W2        21541           0.0000000000
     64622     21541  TIP3      H1             27.5805633595       52.6010377139       11.3108503535  W2        21541           0.0000000000
     64623     21541  TIP3      H2             28.4047933595       52.8082977139       12.5636703535  W2        21541           0.0000000000
     64624     21542  TIP3      OH2            26.6752333595       48.5202277139       13.0196703535  W2        21542           0.0000000000
     64625     21542  TIP3      H1             27.2404833595       48.6416477139       12.2567903535  W2        21542           0.0000000000
     64626     21542  TIP3      H2             26.9941233595       49.1577277139       13.6585203535  W2        21542           0.0000000000
     64627     21543  TIP3      OH2            32.9844533595       54.0234177139       13.7537203535  W2        21543           0.0000000000
     64628     21543  TIP3      H1             32.7441133595       54.6857277139       14.4016403535  W2        21543           0.0000000000
     64629     21543  TIP3      H2             32.7862733595       53.1889377139       14.1786803535  W2        21543           0.0000000000
     64630     21544  TIP3      OH2            27.5553033595       52.9194977139       17.7368603535  W2        21544           0.0000000000
     64631     21544  TIP3      H1             27.2440533595       53.7018177139       18.1921803535  W2        21544           0.0000000000
     64632     21544  TIP3      H2             26.9053233595       52.7664077139       17.0510603535  W2        21544           0.0000000000
     64633     21545  TIP3      OH2            33.5342633595       48.2833377139        5.1887903535  W2        21545           0.0000000000
     64634     21545  TIP3      H1             34.1138133595       48.4333677139        5.9356803535  W2        21545           0.0000000000
     64635     21545  TIP3      H2             33.9482633595       48.7540777139        4.4654303535  W2        21545           0.0000000000
     64636     21546  TIP3      OH2            24.4752933595       49.1176077139       16.9654303535  W2        21546           0.0000000000
     64637     21546  TIP3      H1             24.5456133595       49.7682877139       17.6639303535  W2        21546           0.0000000000
     64638     21546  TIP3      H2             23.5845133595       49.2203577139       16.6305203535  W2        21546           0.0000000000
     64639     21547  TIP3      OH2            25.7948933595       54.9909977139       18.5002403535  W2        21547           0.0000000000
     64640     21547  TIP3      H1             25.8024233595       54.8549677139       17.5527903535  W2        21547           0.0000000000
     64641     21547  TIP3      H2             24.8789333595       54.8738077139       18.7522403535  W2        21547           0.0000000000
     64642     21548  TIP3      OH2            37.2331033595       40.0333777139        5.0017603535  W2        21548           0.0000000000
     64643     21548  TIP3      H1             36.3331733595       40.1722777139        5.2968203535  W2        21548           0.0000000000
     64644     21548  TIP3      H2             37.4849433595       40.8648377139        4.5999303535  W2        21548           0.0000000000
     64645     21549  TIP3      OH2            25.2989533595       48.8210977139        6.9754503535  W2        21549           0.0000000000
     64646     21549  TIP3      H1             25.0070833595       49.5892677139        6.4845803535  W2        21549           0.0000000000
     64647     21549  TIP3      H2             24.6244733595       48.1617177139        6.8125903535  W2        21549           0.0000000000
     64648     21550  TIP3      OH2            38.4222433595       54.3996177139        3.3781503535  W2        21550           0.0000000000
     64649     21550  TIP3      H1             38.4955933595       55.3386377139        3.5486803535  W2        21550           0.0000000000
     64650     21550  TIP3      H2             39.3277533595       54.0944777139        3.3218803535  W2        21550           0.0000000000
     64651     21551  TIP3      OH2            21.3919633595       51.1840177139       15.7904303535  W2        21551           0.0000000000
     64652     21551  TIP3      H1             20.8908033595       51.1559577139       14.9754003535  W2        21551           0.0000000000
     64653     21551  TIP3      H2             21.3973333595       50.2783377139       16.1001603535  W2        21551           0.0000000000
     64654     21552  TIP3      OH2            21.1422333595       53.9643977139       12.6744503535  W2        21552           0.0000000000
     64655     21552  TIP3      H1             22.0882933595       53.8200977139       12.6554003535  W2        21552           0.0000000000
     64656     21552  TIP3      H2             21.0298633595       54.7486777139       13.2115703535  W2        21552           0.0000000000
     64657     21553  TIP3      OH2            39.3400833595       54.6303677139       18.3568203535  W2        21553           0.0000000000
     64658     21553  TIP3      H1             39.2907633595       53.6751777139       18.3195803535  W2        21553           0.0000000000
     64659     21553  TIP3      H2             38.5133133595       54.8978977139       18.7582003535  W2        21553           0.0000000000
     64660     21554  TIP3      OH2            30.3184833595       54.2042877139       17.2329603535  W2        21554           0.0000000000
     64661     21554  TIP3      H1             30.4059433595       55.0307477139       17.7078703535  W2        21554           0.0000000000
     64662     21554  TIP3      H2             29.4549933595       53.8746677139       17.4818903535  W2        21554           0.0000000000
     64663     21555  TIP3      OH2            36.4920633595       46.1236177139       18.8370403535  W2        21555           0.0000000000
     64664     21555  TIP3      H1             36.0847433595       46.6041777139       18.1163703535  W2        21555           0.0000000000
     64665     21555  TIP3      H2             36.5326333595       45.2182177139       18.5291203535  W2        21555           0.0000000000
     64666     21556  TIP3      OH2            23.6410133595       52.5075577139       16.8337103535  W2        21556           0.0000000000
     64667     21556  TIP3      H1             23.8571433595       52.1461177139       17.6932903535  W2        21556           0.0000000000
     64668     21556  TIP3      H2             22.7854833595       52.1329377139       16.6240603535  W2        21556           0.0000000000
     64669     21557  TIP3      OH2            26.2598133595       40.9776077139       12.8291303535  W2        21557           0.0000000000
     64670     21557  TIP3      H1             25.3981833595       40.8904277139       12.4214203535  W2        21557           0.0000000000
     64671     21557  TIP3      H2             26.2373833595       41.8336177139       13.2568903535  W2        21557           0.0000000000
     64672     21558  TIP3      OH2            30.9225933595       40.6996477139       16.2038303535  W2        21558           0.0000000000
     64673     21558  TIP3      H1             31.3429033595       40.2843577139       16.9568903535  W2        21558           0.0000000000
     64674     21558  TIP3      H2             29.9895533595       40.5209777139       16.3210303535  W2        21558           0.0000000000
     64675     21559  TIP3      OH2            34.2490833595       44.4551677139       17.0572803535  W2        21559           0.0000000000
     64676     21559  TIP3      H1             33.7350333595       44.3293877139       17.8548803535  W2        21559           0.0000000000
     64677     21559  TIP3      H2             34.0935533595       45.3674777139       16.8129003535  W2        21559           0.0000000000
     64678     21560  TIP3      OH2            35.0115733595       49.3161677139        2.8185803535  W2        21560           0.0000000000
     64679     21560  TIP3      H1             35.0536533595       49.0935577139        1.8885803535  W2        21560           0.0000000000
     64680     21560  TIP3      H2             35.8607833595       49.7148777139        3.0085703535  W2        21560           0.0000000000
     64681     21561  TIP3      OH2            30.5843233595       43.1919877139        3.4889103535  W2        21561           0.0000000000
     64682     21561  TIP3      H1             30.3308033595       43.2111477139        4.4117203535  W2        21561           0.0000000000
     64683     21561  TIP3      H2             30.3275333595       42.3205277139        3.1875303535  W2        21561           0.0000000000
     64684     21562  TIP3      OH2            26.3508233595       45.9430577139       13.9241503535  W2        21562           0.0000000000
     64685     21562  TIP3      H1             25.7090333595       45.9027877139       14.6331603535  W2        21562           0.0000000000
     64686     21562  TIP3      H2             26.3880233595       46.8695277139       13.6864503535  W2        21562           0.0000000000
     64687     21563  TIP3      OH2            26.3477333595       46.1640677139        8.8361503535  W2        21563           0.0000000000
     64688     21563  TIP3      H1             25.4550233595       45.8236777139        8.7775303535  W2        21563           0.0000000000
     64689     21563  TIP3      H2             26.7983933595       45.7871577139        8.0804703535  W2        21563           0.0000000000
     64690     21564  TIP3      OH2            31.8832833595       46.5800977139        7.6532303535  W2        21564           0.0000000000
     64691     21564  TIP3      H1             31.4743133595       47.3949577139        7.3617103535  W2        21564           0.0000000000
     64692     21564  TIP3      H2             32.6039033595       46.4401077139        7.0389403535  W2        21564           0.0000000000
     64693     21565  TIP3      OH2            30.9854433595       46.7557377139       19.1413003535  W2        21565           0.0000000000
     64694     21565  TIP3      H1             30.4228233595       46.0508977139       19.4620803535  W2        21565           0.0000000000
     64695     21565  TIP3      H2             31.8117833595       46.6349277139       19.6090603535  W2        21565           0.0000000000
     64696     21566  TIP3      OH2            32.8880533595       46.0261377139       10.4672003535  W2        21566           0.0000000000
     64697     21566  TIP3      H1             32.6925033595       46.6318177139        9.7522603535  W2        21566           0.0000000000
     64698     21566  TIP3      H2             33.0693133595       45.1926577139       10.0328303535  W2        21566           0.0000000000
     64699     21567  TIP3      OH2            24.1008733595       46.2634077139       15.7913503535  W2        21567           0.0000000000
     64700     21567  TIP3      H1             24.0628133595       46.6635677139       16.6600603535  W2        21567           0.0000000000
     64701     21567  TIP3      H2             23.6099833595       45.4466477139       15.8816403535  W2        21567           0.0000000000
     64702     21568  TIP3      OH2            27.4666133595       43.6376377139        2.5899503535  W2        21568           0.0000000000
     64703     21568  TIP3      H1             27.0356833595       43.1926477139        3.3196903535  W2        21568           0.0000000000
     64704     21568  TIP3      H2             26.7484833595       44.0092677139        2.0777003535  W2        21568           0.0000000000
     64705     21569  TIP3      OH2            20.7089533595       43.3795877139        9.6418203535  W2        21569           0.0000000000
     64706     21569  TIP3      H1             21.3397233595       43.3507977139       10.3612103535  W2        21569           0.0000000000
     64707     21569  TIP3      H2             21.1583833595       42.9544577139        8.9114103535  W2        21569           0.0000000000
     64708     21570  TIP3      OH2            21.9831633595       44.1257877139        5.0658603535  W2        21570           0.0000000000
     64709     21570  TIP3      H1             22.4573333595       44.7167777139        4.4809503535  W2        21570           0.0000000000
     64710     21570  TIP3      H2             21.2658033595       44.6560777139        5.4128703535  W2        21570           0.0000000000
     64711     21571  TIP3      OH2            32.1519733595       47.6642677139       15.1384403535  W2        21571           0.0000000000
     64712     21571  TIP3      H1             32.4754533595       47.0332377139       14.4954903535  W2        21571           0.0000000000
     64713     21571  TIP3      H2             31.7119033595       47.1294877139       15.7991803535  W2        21571           0.0000000000
     64714     21572  TIP3      OH2            28.9292633595       43.5918177139        9.9225603535  W2        21572           0.0000000000
     64715     21572  TIP3      H1             28.0183733595       43.6484977139       10.2111603535  W2        21572           0.0000000000
     64716     21572  TIP3      H2             29.4345533595       43.5313677139       10.7332803535  W2        21572           0.0000000000
     64717     21573  TIP3      OH2            23.7576033595       45.2204477139        8.7493203535  W2        21573           0.0000000000
     64718     21573  TIP3      H1             22.8684033595       45.3199977139        8.4092803535  W2        21573           0.0000000000
     64719     21573  TIP3      H2             24.0540933595       44.3787477139        8.4031103535  W2        21573           0.0000000000
     64720     21574  TIP3      OH2            27.4107833595       45.2207077139        6.4057803535  W2        21574           0.0000000000
     64721     21574  TIP3      H1             28.3423333595       45.3497077139        6.5840903535  W2        21574           0.0000000000
     64722     21574  TIP3      H2             27.1958133595       45.8901377139        5.7562503535  W2        21574           0.0000000000
     64723     21575  TIP3      OH2            33.3344533595       42.8264477139       13.1867403535  W2        21575           0.0000000000
     64724     21575  TIP3      H1             32.6576133595       42.9577577139       13.8507103535  W2        21575           0.0000000000
     64725     21575  TIP3      H2             32.8489433595       42.6713977139       12.3765103535  W2        21575           0.0000000000
     64726     21576  TIP3      OH2            26.0848033595       46.4149277139        3.9723903535  W2        21576           0.0000000000
     64727     21576  TIP3      H1             25.5423133595       46.0353077139        3.2811503535  W2        21576           0.0000000000
     64728     21576  TIP3      H2             26.9182933595       46.6093977139        3.5438003535  W2        21576           0.0000000000
     64729     21577  TIP3      OH2            24.2199433595       50.9721177139       19.0715503535  W2        21577           0.0000000000
     64730     21577  TIP3      H1             24.9521833595       51.2267077139       19.6330003535  W2        21577           0.0000000000
     64731     21577  TIP3      H2             23.4398133595       51.1766577139       19.5870903535  W2        21577           0.0000000000
     64732     21578  TIP3      OH2            30.2492333595       46.3791177139       11.8095203535  W2        21578           0.0000000000
     64733     21578  TIP3      H1             30.8135733595       45.8327777139       11.2624803535  W2        21578           0.0000000000
     64734     21578  TIP3      H2             30.1015733595       45.8573077139       12.5982803535  W2        21578           0.0000000000
     64735     21579  TIP3      OH2            25.2512033595       42.5157277139        8.2280003535  W2        21579           0.0000000000
     64736     21579  TIP3      H1             24.9341533595       41.6132577139        8.1925403535  W2        21579           0.0000000000
     64737     21579  TIP3      H2             26.0326133595       42.5174677139        7.6751603535  W2        21579           0.0000000000
     64738     21580  TIP3      OH2            28.8758233595       44.7677277139       14.2235603535  W2        21580           0.0000000000
     64739     21580  TIP3      H1             28.0403533595       45.2216777139       14.3338003535  W2        21580           0.0000000000
     64740     21580  TIP3      H2             29.3998833595       45.0435777139       14.9755503535  W2        21580           0.0000000000
     64741     21581  TIP3      OH2            29.4200833595       50.9804977139        5.9082003535  W2        21581           0.0000000000
     64742     21581  TIP3      H1             28.6751833595       50.4730277139        5.5859903535  W2        21581           0.0000000000
     64743     21581  TIP3      H2             29.2858033595       51.0292977139        6.8546803535  W2        21581           0.0000000000
     64744     21582  TIP3      OH2            36.5699733595       50.1133177139       14.6949603535  W2        21582           0.0000000000
     64745     21582  TIP3      H1             37.2118533595       50.5699477139       14.1511803535  W2        21582           0.0000000000
     64746     21582  TIP3      H2             35.7396633595       50.2265577139       14.2323703535  W2        21582           0.0000000000
     64747     21583  TIP3      OH2            33.3177633595       43.7944877139        4.1074603535  W2        21583           0.0000000000
     64748     21583  TIP3      H1             32.3791833595       43.9060477139        3.9563403535  W2        21583           0.0000000000
     64749     21583  TIP3      H2             33.6149733595       44.6511777139        4.4140303535  W2        21583           0.0000000000
     64750     21584  TIP3      OH2            30.9392933595       51.1648277139       17.1451103535  W2        21584           0.0000000000
     64751     21584  TIP3      H1             30.5939033595       50.7830677139       17.9520703535  W2        21584           0.0000000000
     64752     21584  TIP3      H2             30.7393033595       52.0981877139       17.2164003535  W2        21584           0.0000000000
     64753     21585  TIP3      OH2            34.0361133595       45.6617577139        5.7682003535  W2        21585           0.0000000000
     64754     21585  TIP3      H1             34.9280133595       45.5242577139        6.0873203535  W2        21585           0.0000000000
     64755     21585  TIP3      H2             34.0924733595       46.4523677139        5.2315503535  W2        21585           0.0000000000
     64756     21586  TIP3      OH2            24.5449133595       50.2754977139       11.6779903535  W2        21586           0.0000000000
     64757     21586  TIP3      H1             25.2896333595       50.2730677139       11.0766403535  W2        21586           0.0000000000
     64758     21586  TIP3      H2             24.6225733595       49.4518777139       12.1595003535  W2        21586           0.0000000000
     64759     21587  TIP3      OH2            31.5454933595       52.4389277139        4.9336603535  W2        21587           0.0000000000
     64760     21587  TIP3      H1             31.2503333595       53.2657177139        5.3151403535  W2        21587           0.0000000000
     64761     21587  TIP3      H2             30.8424933595       51.8196177139        5.1298003535  W2        21587           0.0000000000
     64762     21588  TIP3      OH2            21.5528833595       48.7361877139       16.9928403535  W2        21588           0.0000000000
     64763     21588  TIP3      H1             21.7757433595       48.3181477139       17.8245903535  W2        21588           0.0000000000
     64764     21588  TIP3      H2             20.9508933595       48.1236877139       16.5701203535  W2        21588           0.0000000000
     64765     21589  TIP3      OH2            28.5693733595       48.2531777139       19.2058103535  W2        21589           0.0000000000
     64766     21589  TIP3      H1             28.2734533595       48.0874777139       18.3107203535  W2        21589           0.0000000000
     64767     21589  TIP3      H2             29.5008933595       48.0332077139       19.1952003535  W2        21589           0.0000000000
     64768     21590  TIP3      OH2            33.1896533595       53.6263777139       17.0956103535  W2        21590           0.0000000000
     64769     21590  TIP3      H1             32.2890833595       53.8096377139       16.8280003535  W2        21590           0.0000000000
     64770     21590  TIP3      H2             33.2237633595       53.8853077139       18.0164903535  W2        21590           0.0000000000
     64771     21591  TIP3      OH2            38.9209833595       45.8711677139        5.4628703535  W2        21591           0.0000000000
     64772     21591  TIP3      H1             38.3666133595       45.4749677139        4.7906203535  W2        21591           0.0000000000
     64773     21591  TIP3      H2             39.0213433595       46.7816877139        5.1852003535  W2        21591           0.0000000000
     64774     21592  TIP3      OH2            38.8841833595       51.6713377139       18.3000203535  W2        21592           0.0000000000
     64775     21592  TIP3      H1             38.0330333595       51.9097177139       17.9326603535  W2        21592           0.0000000000
     64776     21592  TIP3      H2             39.4745233595       51.6546577139       17.5467303535  W2        21592           0.0000000000
     64777     21593  TIP3      OH2            37.2161533595       54.6572077139        5.9280803535  W2        21593           0.0000000000
     64778     21593  TIP3      H1             36.8432633595       53.8315877139        6.2371403535  W2        21593           0.0000000000
     64779     21593  TIP3      H2             37.4935033595       54.4741477139        5.0304203535  W2        21593           0.0000000000
     64780     21594  TIP3      OH2            34.3765433595       49.4651577139       12.9492703535  W2        21594           0.0000000000
     64781     21594  TIP3      H1             33.4482333595       49.2333477139       12.9222003535  W2        21594           0.0000000000
     64782     21594  TIP3      H2             34.8276533595       48.6881377139       12.6191503535  W2        21594           0.0000000000
     64783     21595  TIP3      OH2            26.9198533595       53.7933177139        9.0821403535  W2        21595           0.0000000000
     64784     21595  TIP3      H1             27.4470733595       54.5667577139        8.8820203535  W2        21595           0.0000000000
     64785     21595  TIP3      H2             26.0397033595       54.0182377139        8.7805403535  W2        21595           0.0000000000
     64786     21596  TIP3      OH2            22.6746233595       48.6557277139        3.6693803535  W2        21596           0.0000000000
     64787     21596  TIP3      H1             23.2906133595       49.2824477139        4.0488603535  W2        21596           0.0000000000
     64788     21596  TIP3      H2             21.8128833595       48.9717077139        3.9410303535  W2        21596           0.0000000000
     64789     21597  TIP3      OH2            28.3470833595       51.4563077139        8.6585703535  W2        21597           0.0000000000
     64790     21597  TIP3      H1             28.1060833595       52.3817477139        8.7001003535  W2        21597           0.0000000000
     64791     21597  TIP3      H2             27.6064433595       50.9974377139        9.0549603535  W2        21597           0.0000000000
     64792     21598  TIP3      OH2            32.4058233595       51.7047377139       14.6742403535  W2        21598           0.0000000000
     64793     21598  TIP3      H1             31.9799533595       51.4769077139       15.5006403535  W2        21598           0.0000000000
     64794     21598  TIP3      H2             32.9864033595       50.9659177139       14.4917703535  W2        21598           0.0000000000
     64795     21599  TIP3      OH2            34.6087133595       52.6337877139        3.7481403535  W2        21599           0.0000000000
     64796     21599  TIP3      H1             34.9620233595       52.2537677139        4.5524903535  W2        21599           0.0000000000
     64797     21599  TIP3      H2             33.6600633595       52.5402677139        3.8350703535  W2        21599           0.0000000000
     64798     21600  TIP3      OH2            23.1868333595       43.4894577139       16.5509803535  W2        21600           0.0000000000
     64799     21600  TIP3      H1             22.2940633595       43.8279977139       16.4833803535  W2        21600           0.0000000000
     64800     21600  TIP3      H2             23.0881133595       42.6340677139       16.9690603535  W2        21600           0.0000000000
     64801     21601  TIP3      OH2            35.4746433595       51.3059877139        5.9749303535  W2        21601           0.0000000000
     64802     21601  TIP3      H1             35.1974033595       50.5779177139        6.5310403535  W2        21601           0.0000000000
     64803     21601  TIP3      H2             36.4019433595       51.4251877139        6.1801903535  W2        21601           0.0000000000
     64804     21602  TIP3      OH2            28.6994933595       53.7453977139        2.1951403535  W2        21602           0.0000000000
     64805     21602  TIP3      H1             28.9384733595       52.9972077139        1.6480303535  W2        21602           0.0000000000
     64806     21602  TIP3      H2             28.4306233595       53.3575677139        3.0279203535  W2        21602           0.0000000000
     64807     21603  TIP3      OH2            27.6365533595       53.3157777139        4.6514003535  W2        21603           0.0000000000
     64808     21603  TIP3      H1             27.7833533595       52.7957577139        5.4414903535  W2        21603           0.0000000000
     64809     21603  TIP3      H2             27.6337233595       54.2225377139        4.9579903535  W2        21603           0.0000000000
     64810     21604  TIP3      OH2            24.0896633595       50.5681077139        5.1619403535  W2        21604           0.0000000000
     64811     21604  TIP3      H1             23.4035933595       50.9203577139        5.7289103535  W2        21604           0.0000000000
     64812     21604  TIP3      H2             24.6124533595       51.3310677139        4.9153703535  W2        21604           0.0000000000
     64813     21605  TIP3      OH2            31.9211733595       43.2304877139       15.4408403535  W2        21605           0.0000000000
     64814     21605  TIP3      H1             32.6199633595       43.3043577139       16.0908103535  W2        21605           0.0000000000
     64815     21605  TIP3      H2             31.5403133595       42.3659877139       15.5951303535  W2        21605           0.0000000000
     64816     21606  TIP3      OH2            32.7056633595       42.8826577139        6.5380703535  W2        21606           0.0000000000
     64817     21606  TIP3      H1             32.9254933595       43.3541977139        5.7346103535  W2        21606           0.0000000000
     64818     21606  TIP3      H2             33.2640633595       43.2769177139        7.2081303535  W2        21606           0.0000000000
     64819     21607  TIP3      OH2            29.9056533595       44.6105377139        7.3729103535  W2        21607           0.0000000000
     64820     21607  TIP3      H1             30.7179133595       45.1148577139        7.4190803535  W2        21607           0.0000000000
     64821     21607  TIP3      H2             29.6609533595       44.4655077139        8.2868703535  W2        21607           0.0000000000
     64822     21608  TIP3      OH2            30.4412933595       45.5968077139       16.5575703535  W2        21608           0.0000000000
     64823     21608  TIP3      H1             30.5603233595       46.1703477139       17.3146103535  W2        21608           0.0000000000
     64824     21608  TIP3      H2             31.0967533595       44.9087477139       16.6723503535  W2        21608           0.0000000000
     64825     21609  TIP3      OH2            30.7893233595       41.6918377139        8.3110203535  W2        21609           0.0000000000
     64826     21609  TIP3      H1             30.4426733595       42.3088977139        8.9554503535  W2        21609           0.0000000000
     64827     21609  TIP3      H2             31.4480133595       42.1924077139        7.8295703535  W2        21609           0.0000000000
     64828     21610  TIP3      OH2            26.4470233595       42.7547777139        4.9982703535  W2        21610           0.0000000000
     64829     21610  TIP3      H1             26.3635033595       43.6430877139        5.3449103535  W2        21610           0.0000000000
     64830     21610  TIP3      H2             27.3370533595       42.4894477139        5.2299503535  W2        21610           0.0000000000
     64831     21611  TIP3      OH2            36.6458733595       43.5038377139       17.3925403535  W2        21611           0.0000000000
     64832     21611  TIP3      H1             35.7294533595       43.7660077139       17.3049103535  W2        21611           0.0000000000
     64833     21611  TIP3      H2             36.9813733595       43.5007377139       16.4960703535  W2        21611           0.0000000000
     64834     21612  TIP3      OH2            35.2479733595       47.2539377139       11.4882703535  W2        21612           0.0000000000
     64835     21612  TIP3      H1             34.4504133595       46.8389577139       11.1597703535  W2        21612           0.0000000000
     64836     21612  TIP3      H2             35.6930833595       46.5633077139       11.9793203535  W2        21612           0.0000000000
     64837     21613  TIP3      OH2            24.7055533595       53.1819977139        4.0587203535  W2        21613           0.0000000000
     64838     21613  TIP3      H1             25.2977033595       53.8814777139        4.3349603535  W2        21613           0.0000000000
     64839     21613  TIP3      H2             25.1648533595       52.7489477139        3.3391803535  W2        21613           0.0000000000
     64840     21614  TIP3      OH2            23.0214733595       45.8462977139        3.1746603535  W2        21614           0.0000000000
     64841     21614  TIP3      H1             22.9767333595       46.7856077139        3.3533603535  W2        21614           0.0000000000
     64842     21614  TIP3      H2             22.1337933595       45.6107877139        2.9048703535  W2        21614           0.0000000000
     64843     21615  TIP3      OH2            23.8296733595       40.6279577139       11.8477603535  W2        21615           0.0000000000
     64844     21615  TIP3      H1             23.6006533595       40.6872077139       10.9202603535  W2        21615           0.0000000000
     64845     21615  TIP3      H2             23.3870133595       39.8365077139       12.1541703535  W2        21615           0.0000000000
     64846     21616  TIP3      OH2            22.7600033595       54.5686677139        8.0083403535  W2        21616           0.0000000000
     64847     21616  TIP3      H1             21.9278633595       55.0409377139        8.0354803535  W2        21616           0.0000000000
     64848     21616  TIP3      H2             23.3058333595       55.0784277139        7.4096503535  W2        21616           0.0000000000
     64849     21617  TIP3      OH2            33.2225833595       54.4805877139       19.6877103535  W2        21617           0.0000000000
     64850     21617  TIP3      H1             32.8715333595       53.6238877139       19.9307503535  W2        21617           0.0000000000
     64851     21617  TIP3      H2             33.9489033595       54.6232577139       20.2946103535  W2        21617           0.0000000000
     64852     21618  TIP3      OH2            21.9553233595       50.9914477139       20.2925703535  W2        21618           0.0000000000
     64853     21618  TIP3      H1             22.0993733595       50.0895177139       20.0062403535  W2        21618           0.0000000000
     64854     21618  TIP3      H2             21.1830633595       51.2776577139       19.8048003535  W2        21618           0.0000000000
     64855     21619  TIP3      OH2            26.2966933595       51.3350177139        2.4250303535  W2        21619           0.0000000000
     64856     21619  TIP3      H1             26.3611033595       50.5409777139        2.9556703535  W2        21619           0.0000000000
     64857     21619  TIP3      H2             26.9496133595       51.2162977139        1.7352303535  W2        21619           0.0000000000
     64858     21620  TIP3      OH2            28.6109333595       50.9612577139       19.7252103535  W2        21620           0.0000000000
     64859     21620  TIP3      H1             28.2823133595       51.2320677139       18.8679503535  W2        21620           0.0000000000
     64860     21620  TIP3      H2             28.7627533595       50.0202377139       19.6377103535  W2        21620           0.0000000000
     64861     21621  TIP3      OH2            31.6490333595       52.3821877139        2.1608303535  W2        21621           0.0000000000
     64862     21621  TIP3      H1             31.3804433595       52.5623977139        3.0617203535  W2        21621           0.0000000000
     64863     21621  TIP3      H2             31.4425933595       51.4568077139        2.0294103535  W2        21621           0.0000000000
     64864     21622  TIP3      OH2            34.3454533595       50.8769877139       17.1084403535  W2        21622           0.0000000000
     64865     21622  TIP3      H1             35.0909333595       51.4653577139       16.9888403535  W2        21622           0.0000000000
     64866     21622  TIP3      H2             33.5881333595       51.4589577139       17.1717503535  W2        21622           0.0000000000
     64867     21623  TIP3      OH2            22.7879733595       48.1917777139       19.7125003535  W2        21623           0.0000000000
     64868     21623  TIP3      H1             23.1960933595       47.3344377139       19.5915603535  W2        21623           0.0000000000
     64869     21623  TIP3      H2             22.5277333595       48.2059077139       20.6335303535  W2        21623           0.0000000000
     64870     21624  TIP3      OH2            27.4460733595       49.3076377139        4.7308303535  W2        21624           0.0000000000
     64871     21624  TIP3      H1             26.9862733595       48.8234677139        5.4166803535  W2        21624           0.0000000000
     64872     21624  TIP3      H2             27.7009433595       48.6391777139        4.0948803535  W2        21624           0.0000000000
     64873     21625  TIP3      OH2            26.7350033595       47.2003477139       17.0867903535  W2        21625           0.0000000000
     64874     21625  TIP3      H1             26.1166133595       47.8750077139       17.3672603535  W2        21625           0.0000000000
     64875     21625  TIP3      H2             27.0791233595       47.5217377139       16.2534103535  W2        21625           0.0000000000
     64876     21626  TIP3      OH2            28.5171133595       47.5508177139        2.9931503535  W2        21626           0.0000000000
     64877     21626  TIP3      H1             28.3366133595       47.3959377139        2.0659803535  W2        21626           0.0000000000
     64878     21626  TIP3      H2             29.4671633595       47.6586877139        3.0379403535  W2        21626           0.0000000000
     64879     21627  TIP3      OH2            31.7548233595       49.6718777139       20.3642703535  W2        21627           0.0000000000
     64880     21627  TIP3      H1             32.7079433595       49.7557877139       20.3368703535  W2        21627           0.0000000000
     64881     21627  TIP3      H2             31.5942833595       48.9600577139       20.9837603535  W2        21627           0.0000000000
     64882     21628  TIP3      OH2            37.9069433595       49.9052377139        2.4389603535  W2        21628           0.0000000000
     64883     21628  TIP3      H1             37.6334233595       49.4807877139        1.6257903535  W2        21628           0.0000000000
     64884     21628  TIP3      H2             37.9463533595       50.8366877139        2.2220003535  W2        21628           0.0000000000
     64885     21629  TIP3      OH2            27.0743733595       44.5554277139       18.1691003535  W2        21629           0.0000000000
     64886     21629  TIP3      H1             27.2244633595       43.8265577139       17.5670703535  W2        21629           0.0000000000
     64887     21629  TIP3      H2             27.0766133595       45.3325977139       17.6103203535  W2        21629           0.0000000000
     64888     21630  TIP3      OH2            27.4869433595       42.9250077139       15.6618403535  W2        21630           0.0000000000
     64889     21630  TIP3      H1             28.0226933595       43.3766777139       15.0097703535  W2        21630           0.0000000000
     64890     21630  TIP3      H2             26.6349033595       42.8169877139       15.2392503535  W2        21630           0.0000000000
     64891     21631  TIP3      OH2            29.0687833595       48.3646277139       15.9013603535  W2        21631           0.0000000000
     64892     21631  TIP3      H1             29.8192633595       48.2083777139       15.3281403535  W2        21631           0.0000000000
     64893     21631  TIP3      H2             28.7296133595       49.2162877139       15.6259103535  W2        21631           0.0000000000
     64894     21632  TIP3      OH2            33.4844033595       46.1798077139       20.9298903535  W2        21632           0.0000000000
     64895     21632  TIP3      H1             33.6765333595       45.2487477139       20.8183403535  W2        21632           0.0000000000
     64896     21632  TIP3      H2             34.3420333595       46.6047577139       20.9194303535  W2        21632           0.0000000000
     64897     21633  TIP3      OH2            34.8011233595       48.9683277139       19.0071603535  W2        21633           0.0000000000
     64898     21633  TIP3      H1             34.5196233595       49.6777877139       18.4295403535  W2        21633           0.0000000000
     64899     21633  TIP3      H2             35.7435533595       48.8956277139       18.8562803535  W2        21633           0.0000000000
     64900     21634  TIP3      OH2            25.5530033595       45.7537777139       20.0806603535  W2        21634           0.0000000000
     64901     21634  TIP3      H1             24.7859033595       45.2212577139       19.8704203535  W2        21634           0.0000000000
     64902     21634  TIP3      H2             26.2319033595       45.4438177139       19.4812903535  W2        21634           0.0000000000
     64903     21635  TIP3      OH2            28.2924933595       40.3815777139       16.0932003535  W2        21635           0.0000000000
     64904     21635  TIP3      H1             28.1944533595       41.3278977139       15.9878203535  W2        21635           0.0000000000
     64905     21635  TIP3      H2             27.5501133595       40.0089577139       15.6175503535  W2        21635           0.0000000000
     64906     21636  TIP3      OH2            29.5565433595       44.7031177139       19.6570403535  W2        21636           0.0000000000
     64907     21636  TIP3      H1             29.3210833595       44.4837877139       20.5585303535  W2        21636           0.0000000000
     64908     21636  TIP3      H2             28.7732333595       44.4962377139       19.1472903535  W2        21636           0.0000000000
     64909     21637  TIP3      OH2            32.2722033595       43.8304677139       18.7323903535  W2        21637           0.0000000000
     64910     21637  TIP3      H1             31.3247433595       43.8624377139       18.8647203535  W2        21637           0.0000000000
     64911     21637  TIP3      H2             32.5848733595       43.2051777139       19.3862103535  W2        21637           0.0000000000
     64912     21638  TIP3      OH2            33.9063533595       42.4645777139       20.7375803535  W2        21638           0.0000000000
     64913     21638  TIP3      H1             33.8095333595       41.5123077139       20.7317703535  W2        21638           0.0000000000
     64914     21638  TIP3      H2             33.5846633595       42.7332577139       21.5981303535  W2        21638           0.0000000000
     64915     21639  TIP3      OH2            23.7332833595       43.6741577139       19.7851303535  W2        21639           0.0000000000
     64916     21639  TIP3      H1             23.9450233595       42.9677677139       19.1748803535  W2        21639           0.0000000000
     64917     21639  TIP3      H2             23.6220333595       43.2367577139       20.6292503535  W2        21639           0.0000000000
     64918     21640  TIP3      OH2            28.5143033595       39.6753177139       18.7644803535  W2        21640           0.0000000000
     64919     21640  TIP3      H1             29.2261433595       39.0355377139       18.7503903535  W2        21640           0.0000000000
     64920     21640  TIP3      H2             28.4133433595       39.9421477139       17.8507903535  W2        21640           0.0000000000
     64921     21641  TIP3      OH2            28.8680533595       41.3581577139       20.8181103535  W2        21641           0.0000000000
     64922     21641  TIP3      H1             28.7362733595       40.8825377139       19.9979603535  W2        21641           0.0000000000
     64923     21641  TIP3      H2             28.2687933595       42.1025177139       20.7628203535  W2        21641           0.0000000000
     64924     21642  TIP3      OH2            21.9827733595       52.8775677139        3.4773203535  W2        21642           0.0000000000
     64925     21642  TIP3      H1             22.8966933595       52.9564577139        3.7507103535  W2        21642           0.0000000000
     64926     21642  TIP3      H2             21.9900833595       52.1905277139        2.8108803535  W2        21642           0.0000000000
     64927     21643  TIP3      OH2            37.0642533595       52.5176777139       20.8997503535  W2        21643           0.0000000000
     64928     21643  TIP3      H1             36.1983633595       52.4126477139       21.2939803535  W2        21643           0.0000000000
     64929     21643  TIP3      H2             37.4408433595       53.2760077139       21.3462203535  W2        21643           0.0000000000
     64930     21644  TIP3      OH2            38.3652233595       50.7740477139        6.4140003535  W2        21644           0.0000000000
     64931     21644  TIP3      H1             39.2153633595       51.1951377139        6.5411603535  W2        21644           0.0000000000
     64932     21644  TIP3      H2             38.3707333595       50.0340577139        7.0211403535  W2        21644           0.0000000000
     64933     21645  TIP3      OH2            38.7597833595       48.8277877139        8.2375703535  W2        21645           0.0000000000
     64934     21645  TIP3      H1             38.0332433595       48.3480477139        8.6353303535  W2        21645           0.0000000000
     64935     21645  TIP3      H2             39.3411133595       49.0332577139        8.9697303535  W2        21645           0.0000000000
     64936     21646  TIP3      OH2            38.5189033595       51.6125377139       13.1853303535  W2        21646           0.0000000000
     64937     21646  TIP3      H1             39.3523233595       51.2345377139       12.9046903535  W2        21646           0.0000000000
     64938     21646  TIP3      H2             38.6309333595       52.5556577139       13.0662403535  W2        21646           0.0000000000
     64939     21647  TIP3      OH2            37.0051333595       54.4902877139       15.4921703535  W2        21647           0.0000000000
     64940     21647  TIP3      H1             36.3576633595       54.8154377139       16.1176903535  W2        21647           0.0000000000
     64941     21647  TIP3      H2             36.4875333595       54.0500577139       14.8180003535  W2        21647           0.0000000000
     64942     21648  TIP3      OH2            39.0280933595       48.7286377139        4.6287003535  W2        21648           0.0000000000
     64943     21648  TIP3      H1             38.5062033595       49.0850477139        3.9097903535  W2        21648           0.0000000000
     64944     21648  TIP3      H2             38.9950133595       49.4034177139        5.3067903535  W2        21648           0.0000000000
     64945     21649  TIP3      OH2            37.3769933595       45.9681977139        3.1794103535  W2        21649           0.0000000000
     64946     21649  TIP3      H1             37.4734333595       46.6348977139        2.4993803535  W2        21649           0.0000000000
     64947     21649  TIP3      H2             37.2369533595       45.1528277139        2.6979603535  W2        21649           0.0000000000
     64948     21650  TIP3      OH2            36.5464633595       47.3484377139        8.8004403535  W2        21650           0.0000000000
     64949     21650  TIP3      H1             36.3963433595       46.4032977139        8.7802203535  W2        21650           0.0000000000
     64950     21650  TIP3      H2             36.1929133595       47.6295777139        9.6443503535  W2        21650           0.0000000000
     64951     21651  TIP3      OH2            21.5817033595       49.4266577139       12.8108203535  W2        21651           0.0000000000
     64952     21651  TIP3      H1             21.7659933595       49.3448277139       11.8751103535  W2        21651           0.0000000000
     64953     21651  TIP3      H2             22.4309933595       49.3023577139       13.2344603535  W2        21651           0.0000000000
     64954     21652  TIP3      OH2            37.4027533595       49.3187677139       18.4392703535  W2        21652           0.0000000000
     64955     21652  TIP3      H1             37.9854833595       48.5839977139       18.6309903535  W2        21652           0.0000000000
     64956     21652  TIP3      H2             37.9666833595       50.0907977139       18.4858503535  W2        21652           0.0000000000
     64957     21653  TIP3      OH2            38.8994633595       47.2213477139       19.1238103535  W2        21653           0.0000000000
     64958     21653  TIP3      H1             38.0361333595       46.8425577139       18.9582803535  W2        21653           0.0000000000
     64959     21653  TIP3      H2             39.5038333595       46.4828277139       19.0493903535  W2        21653           0.0000000000
     64960     21654  TIP3      OH2            36.6243733595       43.3761777139        2.2969603535  W2        21654           0.0000000000
     64961     21654  TIP3      H1             37.2349533595       43.0048577139        2.9337803535  W2        21654           0.0000000000
     64962     21654  TIP3      H2             35.7875233595       42.9548677139        2.4929603535  W2        21654           0.0000000000
     64963     21655  TIP3      OH2            36.2569433595       44.9310177139        7.2629503535  W2        21655           0.0000000000
     64964     21655  TIP3      H1             36.5366533595       44.0240577139        7.3871203535  W2        21655           0.0000000000
     64965     21655  TIP3      H2             37.0161133595       45.3651677139        6.8738703535  W2        21655           0.0000000000
     64966     21656  TIP3      OH2            36.8687733595       45.5127577139       12.6988403535  W2        21656           0.0000000000
     64967     21656  TIP3      H1             37.8015733595       45.7247477139       12.6644403535  W2        21656           0.0000000000
     64968     21656  TIP3      H2             36.6335233595       45.6139677139       13.6211403535  W2        21656           0.0000000000
     64969     21657  TIP3      OH2            36.8979633595       46.2492877139       15.4747803535  W2        21657           0.0000000000
     64970     21657  TIP3      H1             36.0550933595       46.5173277139       15.8407603535  W2        21657           0.0000000000
     64971     21657  TIP3      H2             37.3403933595       47.0714777139       15.2638903535  W2        21657           0.0000000000
     64972     21658  TIP3      OH2            21.1791833595       44.6971577139       18.9517003535  W2        21658           0.0000000000
     64973     21658  TIP3      H1             22.0986733595       44.5749877139       19.1880103535  W2        21658           0.0000000000
     64974     21658  TIP3      H2             20.7296333595       43.9471277139       19.3410503535  W2        21658           0.0000000000
     64975     21659  TIP3      OH2            39.1811233595       40.2293077139       20.8282803535  W2        21659           0.0000000000
     64976     21659  TIP3      H1             39.5308233595       39.5756577139       20.2227503535  W2        21659           0.0000000000
     64977     21659  TIP3      H2             39.3280733595       41.0667177139       20.3885403535  W2        21659           0.0000000000
     64978     21660  TIP3      OH2            36.8704233595       42.1939477139        7.3111503535  W2        21660           0.0000000000
     64979     21660  TIP3      H1             37.0529233595       41.7450977139        8.1366503535  W2        21660           0.0000000000
     64980     21660  TIP3      H2             36.2707133595       41.6093877139        6.8476103535  W2        21660           0.0000000000
     64981     21661  TIP3      OH2            22.4004333595       43.0093177139       11.8429903535  W2        21661           0.0000000000
     64982     21661  TIP3      H1             22.8455933595       42.2175677139       12.1449603535  W2        21661           0.0000000000
     64983     21661  TIP3      H2             22.8667333595       43.7258377139       12.2735503535  W2        21661           0.0000000000
     64984     21662  TIP3      OH2            20.7044633595       46.0086177139       12.9120103535  W2        21662           0.0000000000
     64985     21662  TIP3      H1             21.1964433595       45.7876677139       12.1212103535  W2        21662           0.0000000000
     64986     21662  TIP3      H2             21.0665533595       46.8489577139       13.1929603535  W2        21662           0.0000000000
     64987     21663  TIP3      OH2            38.7008433595       42.3387677139       19.1774103535  W2        21663           0.0000000000
     64988     21663  TIP3      H1             37.7834133595       42.6094777139       19.1417603535  W2        21663           0.0000000000
     64989     21663  TIP3      H2             38.8237833595       41.8036077139       18.3933803535  W2        21663           0.0000000000
     64990     21664  TIP3      OH2            38.7370433595       42.2617577139        3.8391803535  W2        21664           0.0000000000
     64991     21664  TIP3      H1             39.1493033595       41.5403277139        3.3639803535  W2        21664           0.0000000000
     64992     21664  TIP3      H2             39.4186933595       42.9312177139        3.8976103535  W2        21664           0.0000000000
     64993     21665  TIP3      OH2            21.0181133595       42.2665277139        6.9662503535  W2        21665           0.0000000000
     64994     21665  TIP3      H1             20.0929533595       42.4751877139        6.8368003535  W2        21665           0.0000000000
     64995     21665  TIP3      H2             21.4721033595       42.7506077139        6.2764803535  W2        21665           0.0000000000
     64996     21666  TIP3      OH2            20.9816533595       41.0044277139       15.3105003535  W2        21666           0.0000000000
     64997     21666  TIP3      H1             20.3167033595       40.7584577139       15.9535903535  W2        21666           0.0000000000
     64998     21666  TIP3      H2             20.5387833595       41.6264677139       14.7333003535  W2        21666           0.0000000000
     64999     21667  TIP3      OH2            23.1735833595       54.1798377139       19.4550803535  W2        21667           0.0000000000
     65000     21667  TIP3      H1             22.3528333595       54.3544877139       18.9945503535  W2        21667           0.0000000000
     65001     21667  TIP3      H2             22.9213633595       54.1063077139       20.3755203535  W2        21667           0.0000000000
     65002     21668  TIP3      OH2            37.7014333595       40.4283977139       16.9964903535  W2        21668           0.0000000000
     65003     21668  TIP3      H1             36.8887833595       40.7534277139       16.6089603535  W2        21668           0.0000000000
     65004     21668  TIP3      H2             37.9342833595       39.6682477139       16.4634003535  W2        21668           0.0000000000
     65005     21669  TIP3      OH2            31.1312833595       41.8774577139       11.3193103535  W2        21669           0.0000000000
     65006     21669  TIP3      H1             30.4569633595       41.2480177139       11.5748903535  W2        21669           0.0000000000
     65007     21669  TIP3      H2             31.6952033595       41.3933477139       10.7161003535  W2        21669           0.0000000000
     65008     21670  TIP3      OH2            36.2740033595       39.9848577139       11.4320203535  W2        21670           0.0000000000
     65009     21670  TIP3      H1             36.8777633595       40.5323977139       10.9301203535  W2        21670           0.0000000000
     65010     21670  TIP3      H2             35.4042033595       40.3038977139       11.1914303535  W2        21670           0.0000000000
     65011     21671  TIP3      OH2            38.0010433595       41.1237277139        9.7651103535  W2        21671           0.0000000000
     65012     21671  TIP3      H1             38.6127933595       40.6092977139        9.2384703535  W2        21671           0.0000000000
     65013     21671  TIP3      H2             38.3833833595       42.0009377139        9.7885503535  W2        21671           0.0000000000
     65014     21672  TIP3      OH2            23.4580333595       40.5114877139        9.1413003535  W2        21672           0.0000000000
     65015     21672  TIP3      H1             22.6810133595       40.2769777139        8.6338903535  W2        21672           0.0000000000
     65016     21672  TIP3      H2             23.9883933595       39.7146977139        9.1501003535  W2        21672           0.0000000000
     65017     21673  TIP3      OH2            22.2943733595       40.3092977139        4.9449103535  W2        21673           0.0000000000
     65018     21673  TIP3      H1             22.7334433595       40.9203477139        4.3532603535  W2        21673           0.0000000000
     65019     21673  TIP3      H2             21.6606133595       40.8477077139        5.4189103535  W2        21673           0.0000000000
     65020     21674  TIP3      OH2            28.0372933595       40.4381977139        8.9546103535  W2        21674           0.0000000000
     65021     21674  TIP3      H1             28.9116333595       40.8266277139        8.9250403535  W2        21674           0.0000000000
     65022     21674  TIP3      H2             27.9013733595       40.2229777139        9.8773303535  W2        21674           0.0000000000
     65023     21675  TIP3      OH2            33.5941333595       40.4681777139       10.6037803535  W2        21675           0.0000000000
     65024     21675  TIP3      H1             33.6702933595       40.5633377139        9.6543803535  W2        21675           0.0000000000
     65025     21675  TIP3      H2             33.3190533595       39.5604677139       10.7326903535  W2        21675           0.0000000000
     65026     21676  TIP3      OH2            34.9473933595       40.4939577139        6.2962803535  W2        21676           0.0000000000
     65027     21676  TIP3      H1             34.2445033595       41.1088777139        6.0864203535  W2        21676           0.0000000000
     65028     21676  TIP3      H2             34.5025333595       39.6566277139        6.4273703535  W2        21676           0.0000000000
     65029     21677  TIP3      OH2            24.1552833595       42.2254477139        3.3873203535  W2        21677           0.0000000000
     65030     21677  TIP3      H1             24.6466233595       41.5956877139        2.8598703535  W2        21677           0.0000000000
     65031     21677  TIP3      H2             24.7789133595       42.5213877139        4.0504403535  W2        21677           0.0000000000
     65032     21678  TIP3      OH2            29.1812933595       42.5185977139        5.8443703535  W2        21678           0.0000000000
     65033     21678  TIP3      H1             29.3594233595       41.8719177139        6.5272303535  W2        21678           0.0000000000
     65034     21678  TIP3      H2             29.1279133595       43.3523677139        6.3114803535  W2        21678           0.0000000000
     65035     21679  TIP3      OH2            23.4158333595       41.0256777139       18.6589203535  W2        21679           0.0000000000
     65036     21679  TIP3      H1             23.0496533595       40.2599377139       19.1013903535  W2        21679           0.0000000000
     65037     21679  TIP3      H2             24.3286833595       41.0546977139       18.9454303535  W2        21679           0.0000000000
     65038     21680  TIP3      OH2            25.3889133595       40.3761177139       20.1946303535  W2        21680           0.0000000000
     65039     21680  TIP3      H1             26.2872733595       40.1021377139       20.0099703535  W2        21680           0.0000000000
     65040     21680  TIP3      H2             25.0022233595       39.6337177139       20.6588903535  W2        21680           0.0000000000
     65041     21681  TIP3      OH2            33.8101433595       39.7086477139       20.3769103535  W2        21681           0.0000000000
     65042     21681  TIP3      H1             33.8868633595       39.2827177139       21.2306803535  W2        21681           0.0000000000
     65043     21681  TIP3      H2             34.7038033595       39.7221177139       20.0342603535  W2        21681           0.0000000000
     65044     21682  TIP3      OH2            51.3922933595       49.6677177139        9.1000503535  W2        21682           0.0000000000
     65045     21682  TIP3      H1             51.4814033595       50.6115377139        8.9677603535  W2        21682           0.0000000000
     65046     21682  TIP3      H2             50.7540533595       49.3923577139        8.4419903535  W2        21682           0.0000000000
     65047     21683  TIP3      OH2            50.3254233595       48.9227877139       12.5188703535  W2        21683           0.0000000000
     65048     21683  TIP3      H1             50.2871733595       48.2764177139       13.2238303535  W2        21683           0.0000000000
     65049     21683  TIP3      H2             50.0030733595       48.4562277139       11.7477403535  W2        21683           0.0000000000
     65050     21684  TIP3      OH2            42.6939233595       48.5369977139       14.1118603535  W2        21684           0.0000000000
     65051     21684  TIP3      H1             42.7351333595       47.9113277139       14.8351003535  W2        21684           0.0000000000
     65052     21684  TIP3      H2             43.3966933595       49.1608577139       14.2939003535  W2        21684           0.0000000000
     65053     21685  TIP3      OH2            54.0314433595       51.8618277139       10.8203803535  W2        21685           0.0000000000
     65054     21685  TIP3      H1             53.5907133595       51.1414277139       11.2709403535  W2        21685           0.0000000000
     65055     21685  TIP3      H2             54.0184133595       52.5825477139       11.4501503535  W2        21685           0.0000000000
     65056     21686  TIP3      OH2            43.6172333595       52.9868877139       12.6467703535  W2        21686           0.0000000000
     65057     21686  TIP3      H1             43.2477533595       52.1849377139       12.2772003535  W2        21686           0.0000000000
     65058     21686  TIP3      H2             44.5583433595       52.8183777139       12.6931103535  W2        21686           0.0000000000
     65059     21687  TIP3      OH2            40.2272833595       46.6471477139        8.0396503535  W2        21687           0.0000000000
     65060     21687  TIP3      H1             39.7796233595       47.4930177139        8.0213003535  W2        21687           0.0000000000
     65061     21687  TIP3      H2             39.6664033595       46.0675677139        7.5241603535  W2        21687           0.0000000000
     65062     21688  TIP3      OH2            40.9378933595       48.8091077139       10.1654503535  W2        21688           0.0000000000
     65063     21688  TIP3      H1             41.1512433595       48.0392677139       10.6927503535  W2        21688           0.0000000000
     65064     21688  TIP3      H2             41.6756533595       48.8987777139        9.5622103535  W2        21688           0.0000000000
     65065     21689  TIP3      OH2            48.7148633595       51.3549277139       12.9249703535  W2        21689           0.0000000000
     65066     21689  TIP3      H1             49.0186533595       50.6690677139       12.3303803535  W2        21689           0.0000000000
     65067     21689  TIP3      H2             49.4362633595       51.4737977139       13.5427703535  W2        21689           0.0000000000
     65068     21690  TIP3      OH2            51.8555633595       45.7491677139       13.2524503535  W2        21690           0.0000000000
     65069     21690  TIP3      H1             51.9981533595       44.8028677139       13.2726103535  W2        21690           0.0000000000
     65070     21690  TIP3      H2             51.7494633595       45.9561477139       12.3239403535  W2        21690           0.0000000000
     65071     21691  TIP3      OH2            45.0103933595       43.8508077139       10.5249303535  W2        21691           0.0000000000
     65072     21691  TIP3      H1             45.0535033595       44.7106577139       10.1065603535  W2        21691           0.0000000000
     65073     21691  TIP3      H2             44.5528033595       43.2982777139        9.8912503535  W2        21691           0.0000000000
     65074     21692  TIP3      OH2            52.7326633595       43.9813677139        8.9257603535  W2        21692           0.0000000000
     65075     21692  TIP3      H1             53.3790933595       43.6526877139        9.5505203535  W2        21692           0.0000000000
     65076     21692  TIP3      H2             53.2426033595       44.4992677139        8.3029003535  W2        21692           0.0000000000
     65077     21693  TIP3      OH2            41.6305433595       46.2473877139       11.2870703535  W2        21693           0.0000000000
     65078     21693  TIP3      H1             42.2842033595       45.6975577139       11.7190803535  W2        21693           0.0000000000
     65079     21693  TIP3      H2             41.6544733595       45.9732877139       10.3702703535  W2        21693           0.0000000000
     65080     21694  TIP3      OH2            46.7869933595       47.7975177139       10.5022203535  W2        21694           0.0000000000
     65081     21694  TIP3      H1             47.4030933595       47.2710577139       11.0116203535  W2        21694           0.0000000000
     65082     21694  TIP3      H2             46.2008733595       47.1573877139       10.0985803535  W2        21694           0.0000000000
     65083     21695  TIP3      OH2            43.8205833595       42.7686477139       14.5990103535  W2        21695           0.0000000000
     65084     21695  TIP3      H1             43.6017533595       43.2987077139       13.8326103535  W2        21695           0.0000000000
     65085     21695  TIP3      H2             43.1526733595       42.9951977139       15.2461503535  W2        21695           0.0000000000
     65086     21696  TIP3      OH2            51.1895633595       52.2687577139        8.1429203535  W2        21696           0.0000000000
     65087     21696  TIP3      H1             50.8940733595       51.9459877139        7.2916103535  W2        21696           0.0000000000
     65088     21696  TIP3      H2             50.8653433595       53.1684277139        8.1841803535  W2        21696           0.0000000000
     65089     21697  TIP3      OH2            46.3897233595       50.4442177139       14.8863803535  W2        21697           0.0000000000
     65090     21697  TIP3      H1             45.6496333595       51.0423677139       14.9899003535  W2        21697           0.0000000000
     65091     21697  TIP3      H2             47.1036733595       50.9981777139       14.5707403535  W2        21697           0.0000000000
     65092     21698  TIP3      OH2            54.4965033595       43.2722977139       10.9063503535  W2        21698           0.0000000000
     65093     21698  TIP3      H1             54.2813033595       42.5066377139       11.4389503535  W2        21698           0.0000000000
     65094     21698  TIP3      H2             55.1522433595       43.7447577139       11.4192003535  W2        21698           0.0000000000
     65095     21699  TIP3      OH2            43.4143133595       44.6608277139       12.5512303535  W2        21699           0.0000000000
     65096     21699  TIP3      H1             44.0279433595       45.2935877139       12.9244703535  W2        21699           0.0000000000
     65097     21699  TIP3      H2             43.9263833595       44.1883277139       11.8949203535  W2        21699           0.0000000000
     65098     21700  TIP3      OH2            44.7971533595       52.4085177139       15.6735303535  W2        21700           0.0000000000
     65099     21700  TIP3      H1             44.7919133595       53.2878677139       15.2954603535  W2        21700           0.0000000000
     65100     21700  TIP3      H2             43.9435633595       52.3249277139       16.0985203535  W2        21700           0.0000000000
     65101     21701  TIP3      OH2            40.9182433595       52.0793077139        6.4554603535  W2        21701           0.0000000000
     65102     21701  TIP3      H1             40.6463333595       52.3084077139        5.5667503535  W2        21701           0.0000000000
     65103     21701  TIP3      H2             40.9638133595       52.9171877139        6.9159903535  W2        21701           0.0000000000
     65104     21702  TIP3      OH2            54.5432133595       53.7008977139       13.1683103535  W2        21702           0.0000000000
     65105     21702  TIP3      H1             53.6015833595       53.7592877139       13.3300003535  W2        21702           0.0000000000
     65106     21702  TIP3      H2             54.8198233595       54.6069477139       13.0312803535  W2        21702           0.0000000000
     65107     21703  TIP3      OH2            47.8470533595       40.0741577139       12.0515003535  W2        21703           0.0000000000
     65108     21703  TIP3      H1             47.7294733595       39.1257577139       11.9973303535  W2        21703           0.0000000000
     65109     21703  TIP3      H2             46.9920633595       40.4067677139       12.3246103535  W2        21703           0.0000000000
     65110     21704  TIP3      OH2            53.9549833595       53.3830977139        8.3021303535  W2        21704           0.0000000000
     65111     21704  TIP3      H1             53.6974633595       52.6931077139        7.6907203535  W2        21704           0.0000000000
     65112     21704  TIP3      H2             54.0260633595       52.9402177139        9.1477203535  W2        21704           0.0000000000
     65113     21705  TIP3      OH2            50.1135433595       48.9117177139        6.5520803535  W2        21705           0.0000000000
     65114     21705  TIP3      H1             49.4020933595       49.4466877139        6.2001303535  W2        21705           0.0000000000
     65115     21705  TIP3      H2             50.8045033595       48.9669277139        5.8919703535  W2        21705           0.0000000000
     65116     21706  TIP3      OH2            50.1674633595       47.3691477139        3.5905803535  W2        21706           0.0000000000
     65117     21706  TIP3      H1             50.8684533595       47.3918377139        4.2419803535  W2        21706           0.0000000000
     65118     21706  TIP3      H2             50.4697533595       46.7411177139        2.9345103535  W2        21706           0.0000000000
     65119     21707  TIP3      OH2            53.5193133595       49.1210477139        7.5036703535  W2        21707           0.0000000000
     65120     21707  TIP3      H1             52.7874133595       49.3494177139        8.0767303535  W2        21707           0.0000000000
     65121     21707  TIP3      H2             53.9665333595       48.4073177139        7.9584203535  W2        21707           0.0000000000
     65122     21708  TIP3      OH2            53.4166633595       47.2953077139       16.5713703535  W2        21708           0.0000000000
     65123     21708  TIP3      H1             53.4965733595       48.0587477139       17.1432203535  W2        21708           0.0000000000
     65124     21708  TIP3      H2             52.8154333595       47.5745477139       15.8808803535  W2        21708           0.0000000000
     65125     21709  TIP3      OH2            45.1646833595       49.7516677139        9.3861703535  W2        21709           0.0000000000
     65126     21709  TIP3      H1             44.8342033595       49.3810077139        8.5678703535  W2        21709           0.0000000000
     65127     21709  TIP3      H2             45.7530933595       49.0810677139        9.7330003535  W2        21709           0.0000000000
     65128     21710  TIP3      OH2            46.5314333595       53.1797277139       12.0673903535  W2        21710           0.0000000000
     65129     21710  TIP3      H1             46.4365633595       52.6010377139       11.3108503535  W2        21710           0.0000000000
     65130     21710  TIP3      H2             47.2607933595       52.8082977139       12.5636703535  W2        21710           0.0000000000
     65131     21711  TIP3      OH2            45.5312333595       48.5202277139       13.0196703535  W2        21711           0.0000000000
     65132     21711  TIP3      H1             46.0964833595       48.6416477139       12.2567903535  W2        21711           0.0000000000
     65133     21711  TIP3      H2             45.8501233595       49.1577277139       13.6585203535  W2        21711           0.0000000000
     65134     21712  TIP3      OH2            51.8404533595       54.0234177139       13.7537203535  W2        21712           0.0000000000
     65135     21712  TIP3      H1             51.6001133595       54.6857277139       14.4016403535  W2        21712           0.0000000000
     65136     21712  TIP3      H2             51.6422733595       53.1889377139       14.1786803535  W2        21712           0.0000000000
     65137     21713  TIP3      OH2            46.4113033595       52.9194977139       17.7368603535  W2        21713           0.0000000000
     65138     21713  TIP3      H1             46.1000533595       53.7018177139       18.1921803535  W2        21713           0.0000000000
     65139     21713  TIP3      H2             45.7613233595       52.7664077139       17.0510603535  W2        21713           0.0000000000
     65140     21714  TIP3      OH2            52.3902633595       48.2833377139        5.1887903535  W2        21714           0.0000000000
     65141     21714  TIP3      H1             52.9698133595       48.4333677139        5.9356803535  W2        21714           0.0000000000
     65142     21714  TIP3      H2             52.8042633595       48.7540777139        4.4654303535  W2        21714           0.0000000000
     65143     21715  TIP3      OH2            43.3312933595       49.1176077139       16.9654303535  W2        21715           0.0000000000
     65144     21715  TIP3      H1             43.4016133595       49.7682877139       17.6639303535  W2        21715           0.0000000000
     65145     21715  TIP3      H2             42.4405133595       49.2203577139       16.6305203535  W2        21715           0.0000000000
     65146     21716  TIP3      OH2            44.6508933595       54.9909977139       18.5002403535  W2        21716           0.0000000000
     65147     21716  TIP3      H1             44.6584233595       54.8549677139       17.5527903535  W2        21716           0.0000000000
     65148     21716  TIP3      H2             43.7349333595       54.8738077139       18.7522403535  W2        21716           0.0000000000
     65149     21717  TIP3      OH2            44.1549533595       48.8210977139        6.9754503535  W2        21717           0.0000000000
     65150     21717  TIP3      H1             43.8630833595       49.5892677139        6.4845803535  W2        21717           0.0000000000
     65151     21717  TIP3      H2             43.4804733595       48.1617177139        6.8125903535  W2        21717           0.0000000000
     65152     21718  TIP3      OH2            40.2479633595       51.1840177139       15.7904303535  W2        21718           0.0000000000
     65153     21718  TIP3      H1             39.7468033595       51.1559577139       14.9754003535  W2        21718           0.0000000000
     65154     21718  TIP3      H2             40.2533333595       50.2783377139       16.1001603535  W2        21718           0.0000000000
     65155     21719  TIP3      OH2            39.9982333595       53.9643977139       12.6744503535  W2        21719           0.0000000000
     65156     21719  TIP3      H1             40.9442933595       53.8200977139       12.6554003535  W2        21719           0.0000000000
     65157     21719  TIP3      H2             39.8858633595       54.7486777139       13.2115703535  W2        21719           0.0000000000
     65158     21720  TIP3      OH2            49.1744833595       54.2042877139       17.2329603535  W2        21720           0.0000000000
     65159     21720  TIP3      H1             49.2619433595       55.0307477139       17.7078703535  W2        21720           0.0000000000
     65160     21720  TIP3      H2             48.3109933595       53.8746677139       17.4818903535  W2        21720           0.0000000000
     65161     21721  TIP3      OH2            42.4970133595       52.5075577139       16.8337103535  W2        21721           0.0000000000
     65162     21721  TIP3      H1             42.7131433595       52.1461177139       17.6932903535  W2        21721           0.0000000000
     65163     21721  TIP3      H2             41.6414833595       52.1329377139       16.6240603535  W2        21721           0.0000000000
     65164     21722  TIP3      OH2            45.1158133595       40.9776077139       12.8291303535  W2        21722           0.0000000000
     65165     21722  TIP3      H1             44.2541833595       40.8904277139       12.4214203535  W2        21722           0.0000000000
     65166     21722  TIP3      H2             45.0933833595       41.8336177139       13.2568903535  W2        21722           0.0000000000
     65167     21723  TIP3      OH2            49.7785933595       40.6996477139       16.2038303535  W2        21723           0.0000000000
     65168     21723  TIP3      H1             50.1989033595       40.2843577139       16.9568903535  W2        21723           0.0000000000
     65169     21723  TIP3      H2             48.8455533595       40.5209777139       16.3210303535  W2        21723           0.0000000000
     65170     21724  TIP3      OH2            53.1050833595       44.4551677139       17.0572803535  W2        21724           0.0000000000
     65171     21724  TIP3      H1             52.5910333595       44.3293877139       17.8548803535  W2        21724           0.0000000000
     65172     21724  TIP3      H2             52.9495533595       45.3674777139       16.8129003535  W2        21724           0.0000000000
     65173     21725  TIP3      OH2            53.8675733595       49.3161677139        2.8185803535  W2        21725           0.0000000000
     65174     21725  TIP3      H1             53.9096533595       49.0935577139        1.8885803535  W2        21725           0.0000000000
     65175     21725  TIP3      H2             54.7167833595       49.7148777139        3.0085703535  W2        21725           0.0000000000
     65176     21726  TIP3      OH2            49.4403233595       43.1919877139        3.4889103535  W2        21726           0.0000000000
     65177     21726  TIP3      H1             49.1868033595       43.2111477139        4.4117203535  W2        21726           0.0000000000
     65178     21726  TIP3      H2             49.1835333595       42.3205277139        3.1875303535  W2        21726           0.0000000000
     65179     21727  TIP3      OH2            45.2068233595       45.9430577139       13.9241503535  W2        21727           0.0000000000
     65180     21727  TIP3      H1             44.5650333595       45.9027877139       14.6331603535  W2        21727           0.0000000000
     65181     21727  TIP3      H2             45.2440233595       46.8695277139       13.6864503535  W2        21727           0.0000000000
     65182     21728  TIP3      OH2            45.2037333595       46.1640677139        8.8361503535  W2        21728           0.0000000000
     65183     21728  TIP3      H1             44.3110233595       45.8236777139        8.7775303535  W2        21728           0.0000000000
     65184     21728  TIP3      H2             45.6543933595       45.7871577139        8.0804703535  W2        21728           0.0000000000
     65185     21729  TIP3      OH2            50.7392833595       46.5800977139        7.6532303535  W2        21729           0.0000000000
     65186     21729  TIP3      H1             50.3303133595       47.3949577139        7.3617103535  W2        21729           0.0000000000
     65187     21729  TIP3      H2             51.4599033595       46.4401077139        7.0389403535  W2        21729           0.0000000000
     65188     21730  TIP3      OH2            49.8414433595       46.7557377139       19.1413003535  W2        21730           0.0000000000
     65189     21730  TIP3      H1             49.2788233595       46.0508977139       19.4620803535  W2        21730           0.0000000000
     65190     21730  TIP3      H2             50.6677833595       46.6349277139       19.6090603535  W2        21730           0.0000000000
     65191     21731  TIP3      OH2            51.7440533595       46.0261377139       10.4672003535  W2        21731           0.0000000000
     65192     21731  TIP3      H1             51.5485033595       46.6318177139        9.7522603535  W2        21731           0.0000000000
     65193     21731  TIP3      H2             51.9253133595       45.1926577139       10.0328303535  W2        21731           0.0000000000
     65194     21732  TIP3      OH2            42.9568733595       46.2634077139       15.7913503535  W2        21732           0.0000000000
     65195     21732  TIP3      H1             42.9188133595       46.6635677139       16.6600603535  W2        21732           0.0000000000
     65196     21732  TIP3      H2             42.4659833595       45.4466477139       15.8816403535  W2        21732           0.0000000000
     65197     21733  TIP3      OH2            46.3226133595       43.6376377139        2.5899503535  W2        21733           0.0000000000
     65198     21733  TIP3      H1             45.8916833595       43.1926477139        3.3196903535  W2        21733           0.0000000000
     65199     21733  TIP3      H2             45.6044833595       44.0092677139        2.0777003535  W2        21733           0.0000000000
     65200     21734  TIP3      OH2            39.5649533595       43.3795877139        9.6418203535  W2        21734           0.0000000000
     65201     21734  TIP3      H1             40.1957233595       43.3507977139       10.3612103535  W2        21734           0.0000000000
     65202     21734  TIP3      H2             40.0143833595       42.9544577139        8.9114103535  W2        21734           0.0000000000
     65203     21735  TIP3      OH2            40.8391633595       44.1257877139        5.0658603535  W2        21735           0.0000000000
     65204     21735  TIP3      H1             41.3133333595       44.7167777139        4.4809503535  W2        21735           0.0000000000
     65205     21735  TIP3      H2             40.1218033595       44.6560777139        5.4128703535  W2        21735           0.0000000000
     65206     21736  TIP3      OH2            51.0079733595       47.6642677139       15.1384403535  W2        21736           0.0000000000
     65207     21736  TIP3      H1             51.3314533595       47.0332377139       14.4954903535  W2        21736           0.0000000000
     65208     21736  TIP3      H2             50.5679033595       47.1294877139       15.7991803535  W2        21736           0.0000000000
     65209     21737  TIP3      OH2            47.7852633595       43.5918177139        9.9225603535  W2        21737           0.0000000000
     65210     21737  TIP3      H1             46.8743733595       43.6484977139       10.2111603535  W2        21737           0.0000000000
     65211     21737  TIP3      H2             48.2905533595       43.5313677139       10.7332803535  W2        21737           0.0000000000
     65212     21738  TIP3      OH2            42.6136033595       45.2204477139        8.7493203535  W2        21738           0.0000000000
     65213     21738  TIP3      H1             41.7244033595       45.3199977139        8.4092803535  W2        21738           0.0000000000
     65214     21738  TIP3      H2             42.9100933595       44.3787477139        8.4031103535  W2        21738           0.0000000000
     65215     21739  TIP3      OH2            46.2667833595       45.2207077139        6.4057803535  W2        21739           0.0000000000
     65216     21739  TIP3      H1             47.1983333595       45.3497077139        6.5840903535  W2        21739           0.0000000000
     65217     21739  TIP3      H2             46.0518133595       45.8901377139        5.7562503535  W2        21739           0.0000000000
     65218     21740  TIP3      OH2            52.1904533595       42.8264477139       13.1867403535  W2        21740           0.0000000000
     65219     21740  TIP3      H1             51.5136133595       42.9577577139       13.8507103535  W2        21740           0.0000000000
     65220     21740  TIP3      H2             51.7049433595       42.6713977139       12.3765103535  W2        21740           0.0000000000
     65221     21741  TIP3      OH2            44.9408033595       46.4149277139        3.9723903535  W2        21741           0.0000000000
     65222     21741  TIP3      H1             44.3983133595       46.0353077139        3.2811503535  W2        21741           0.0000000000
     65223     21741  TIP3      H2             45.7742933595       46.6093977139        3.5438003535  W2        21741           0.0000000000
     65224     21742  TIP3      OH2            43.0759433595       50.9721177139       19.0715503535  W2        21742           0.0000000000
     65225     21742  TIP3      H1             43.8081833595       51.2267077139       19.6330003535  W2        21742           0.0000000000
     65226     21742  TIP3      H2             42.2958133595       51.1766577139       19.5870903535  W2        21742           0.0000000000
     65227     21743  TIP3      OH2            49.1052333595       46.3791177139       11.8095203535  W2        21743           0.0000000000
     65228     21743  TIP3      H1             49.6695733595       45.8327777139       11.2624803535  W2        21743           0.0000000000
     65229     21743  TIP3      H2             48.9575733595       45.8573077139       12.5982803535  W2        21743           0.0000000000
     65230     21744  TIP3      OH2            44.1072033595       42.5157277139        8.2280003535  W2        21744           0.0000000000
     65231     21744  TIP3      H1             43.7901533595       41.6132577139        8.1925403535  W2        21744           0.0000000000
     65232     21744  TIP3      H2             44.8886133595       42.5174677139        7.6751603535  W2        21744           0.0000000000
     65233     21745  TIP3      OH2            47.7318233595       44.7677277139       14.2235603535  W2        21745           0.0000000000
     65234     21745  TIP3      H1             46.8963533595       45.2216777139       14.3338003535  W2        21745           0.0000000000
     65235     21745  TIP3      H2             48.2558833595       45.0435777139       14.9755503535  W2        21745           0.0000000000
     65236     21746  TIP3      OH2            48.2760833595       50.9804977139        5.9082003535  W2        21746           0.0000000000
     65237     21746  TIP3      H1             47.5311833595       50.4730277139        5.5859903535  W2        21746           0.0000000000
     65238     21746  TIP3      H2             48.1418033595       51.0292977139        6.8546803535  W2        21746           0.0000000000
     65239     21747  TIP3      OH2            52.1737633595       43.7944877139        4.1074603535  W2        21747           0.0000000000
     65240     21747  TIP3      H1             51.2351833595       43.9060477139        3.9563403535  W2        21747           0.0000000000
     65241     21747  TIP3      H2             52.4709733595       44.6511777139        4.4140303535  W2        21747           0.0000000000
     65242     21748  TIP3      OH2            49.7952933595       51.1648277139       17.1451103535  W2        21748           0.0000000000
     65243     21748  TIP3      H1             49.4499033595       50.7830677139       17.9520703535  W2        21748           0.0000000000
     65244     21748  TIP3      H2             49.5953033595       52.0981877139       17.2164003535  W2        21748           0.0000000000
     65245     21749  TIP3      OH2            52.8921133595       45.6617577139        5.7682003535  W2        21749           0.0000000000
     65246     21749  TIP3      H1             53.7840133595       45.5242577139        6.0873203535  W2        21749           0.0000000000
     65247     21749  TIP3      H2             52.9484733595       46.4523677139        5.2315503535  W2        21749           0.0000000000
     65248     21750  TIP3      OH2            43.4009133595       50.2754977139       11.6779903535  W2        21750           0.0000000000
     65249     21750  TIP3      H1             44.1456333595       50.2730677139       11.0766403535  W2        21750           0.0000000000
     65250     21750  TIP3      H2             43.4785733595       49.4518777139       12.1595003535  W2        21750           0.0000000000
     65251     21751  TIP3      OH2            50.4014933595       52.4389277139        4.9336603535  W2        21751           0.0000000000
     65252     21751  TIP3      H1             50.1063333595       53.2657177139        5.3151403535  W2        21751           0.0000000000
     65253     21751  TIP3      H2             49.6984933595       51.8196177139        5.1298003535  W2        21751           0.0000000000
     65254     21752  TIP3      OH2            40.4088833595       48.7361877139       16.9928403535  W2        21752           0.0000000000
     65255     21752  TIP3      H1             40.6317433595       48.3181477139       17.8245903535  W2        21752           0.0000000000
     65256     21752  TIP3      H2             39.8068933595       48.1236877139       16.5701203535  W2        21752           0.0000000000
     65257     21753  TIP3      OH2            47.4253733595       48.2531777139       19.2058103535  W2        21753           0.0000000000
     65258     21753  TIP3      H1             47.1294533595       48.0874777139       18.3107203535  W2        21753           0.0000000000
     65259     21753  TIP3      H2             48.3568933595       48.0332077139       19.1952003535  W2        21753           0.0000000000
     65260     21754  TIP3      OH2            52.0456533595       53.6263777139       17.0956103535  W2        21754           0.0000000000
     65261     21754  TIP3      H1             51.1450833595       53.8096377139       16.8280003535  W2        21754           0.0000000000
     65262     21754  TIP3      H2             52.0797633595       53.8853077139       18.0164903535  W2        21754           0.0000000000
     65263     21755  TIP3      OH2            53.2325433595       49.4651577139       12.9492703535  W2        21755           0.0000000000
     65264     21755  TIP3      H1             52.3042333595       49.2333477139       12.9222003535  W2        21755           0.0000000000
     65265     21755  TIP3      H2             53.6836533595       48.6881377139       12.6191503535  W2        21755           0.0000000000
     65266     21756  TIP3      OH2            45.7758533595       53.7933177139        9.0821403535  W2        21756           0.0000000000
     65267     21756  TIP3      H1             46.3030733595       54.5667577139        8.8820203535  W2        21756           0.0000000000
     65268     21756  TIP3      H2             44.8957033595       54.0182377139        8.7805403535  W2        21756           0.0000000000
     65269     21757  TIP3      OH2            41.5306233595       48.6557277139        3.6693803535  W2        21757           0.0000000000
     65270     21757  TIP3      H1             42.1466133595       49.2824477139        4.0488603535  W2        21757           0.0000000000
     65271     21757  TIP3      H2             40.6688833595       48.9717077139        3.9410303535  W2        21757           0.0000000000
     65272     21758  TIP3      OH2            47.2030833595       51.4563077139        8.6585703535  W2        21758           0.0000000000
     65273     21758  TIP3      H1             46.9620833595       52.3817477139        8.7001003535  W2        21758           0.0000000000
     65274     21758  TIP3      H2             46.4624433595       50.9974377139        9.0549603535  W2        21758           0.0000000000
     65275     21759  TIP3      OH2            51.2618233595       51.7047377139       14.6742403535  W2        21759           0.0000000000
     65276     21759  TIP3      H1             50.8359533595       51.4769077139       15.5006403535  W2        21759           0.0000000000
     65277     21759  TIP3      H2             51.8424033595       50.9659177139       14.4917703535  W2        21759           0.0000000000
     65278     21760  TIP3      OH2            53.4647133595       52.6337877139        3.7481403535  W2        21760           0.0000000000
     65279     21760  TIP3      H1             53.8180233595       52.2537677139        4.5524903535  W2        21760           0.0000000000
     65280     21760  TIP3      H2             52.5160633595       52.5402677139        3.8350703535  W2        21760           0.0000000000
     65281     21761  TIP3      OH2            42.0428333595       43.4894577139       16.5509803535  W2        21761           0.0000000000
     65282     21761  TIP3      H1             41.1500633595       43.8279977139       16.4833803535  W2        21761           0.0000000000
     65283     21761  TIP3      H2             41.9441133595       42.6340677139       16.9690603535  W2        21761           0.0000000000
     65284     21762  TIP3      OH2            54.3306433595       51.3059877139        5.9749303535  W2        21762           0.0000000000
     65285     21762  TIP3      H1             54.0534033595       50.5779177139        6.5310403535  W2        21762           0.0000000000
     65286     21762  TIP3      H2             55.2579433595       51.4251877139        6.1801903535  W2        21762           0.0000000000
     65287     21763  TIP3      OH2            47.5554933595       53.7453977139        2.1951403535  W2        21763           0.0000000000
     65288     21763  TIP3      H1             47.7944733595       52.9972077139        1.6480303535  W2        21763           0.0000000000
     65289     21763  TIP3      H2             47.2866233595       53.3575677139        3.0279203535  W2        21763           0.0000000000
     65290     21764  TIP3      OH2            46.4925533595       53.3157777139        4.6514003535  W2        21764           0.0000000000
     65291     21764  TIP3      H1             46.6393533595       52.7957577139        5.4414903535  W2        21764           0.0000000000
     65292     21764  TIP3      H2             46.4897233595       54.2225377139        4.9579903535  W2        21764           0.0000000000
     65293     21765  TIP3      OH2            42.9456633595       50.5681077139        5.1619403535  W2        21765           0.0000000000
     65294     21765  TIP3      H1             42.2595933595       50.9203577139        5.7289103535  W2        21765           0.0000000000
     65295     21765  TIP3      H2             43.4684533595       51.3310677139        4.9153703535  W2        21765           0.0000000000
     65296     21766  TIP3      OH2            50.7771733595       43.2304877139       15.4408403535  W2        21766           0.0000000000
     65297     21766  TIP3      H1             51.4759633595       43.3043577139       16.0908103535  W2        21766           0.0000000000
     65298     21766  TIP3      H2             50.3963133595       42.3659877139       15.5951303535  W2        21766           0.0000000000
     65299     21767  TIP3      OH2            51.5616633595       42.8826577139        6.5380703535  W2        21767           0.0000000000
     65300     21767  TIP3      H1             51.7814933595       43.3541977139        5.7346103535  W2        21767           0.0000000000
     65301     21767  TIP3      H2             52.1200633595       43.2769177139        7.2081303535  W2        21767           0.0000000000
     65302     21768  TIP3      OH2            48.7616533595       44.6105377139        7.3729103535  W2        21768           0.0000000000
     65303     21768  TIP3      H1             49.5739133595       45.1148577139        7.4190803535  W2        21768           0.0000000000
     65304     21768  TIP3      H2             48.5169533595       44.4655077139        8.2868703535  W2        21768           0.0000000000
     65305     21769  TIP3      OH2            49.2972933595       45.5968077139       16.5575703535  W2        21769           0.0000000000
     65306     21769  TIP3      H1             49.4163233595       46.1703477139       17.3146103535  W2        21769           0.0000000000
     65307     21769  TIP3      H2             49.9527533595       44.9087477139       16.6723503535  W2        21769           0.0000000000
     65308     21770  TIP3      OH2            49.6453233595       41.6918377139        8.3110203535  W2        21770           0.0000000000
     65309     21770  TIP3      H1             49.2986733595       42.3088977139        8.9554503535  W2        21770           0.0000000000
     65310     21770  TIP3      H2             50.3040133595       42.1924077139        7.8295703535  W2        21770           0.0000000000
     65311     21771  TIP3      OH2            45.3030233595       42.7547777139        4.9982703535  W2        21771           0.0000000000
     65312     21771  TIP3      H1             45.2195033595       43.6430877139        5.3449103535  W2        21771           0.0000000000
     65313     21771  TIP3      H2             46.1930533595       42.4894477139        5.2299503535  W2        21771           0.0000000000
     65314     21772  TIP3      OH2            54.1039733595       47.2539377139       11.4882703535  W2        21772           0.0000000000
     65315     21772  TIP3      H1             53.3064133595       46.8389577139       11.1597703535  W2        21772           0.0000000000
     65316     21772  TIP3      H2             54.5490833595       46.5633077139       11.9793203535  W2        21772           0.0000000000
     65317     21773  TIP3      OH2            43.5615533595       53.1819977139        4.0587203535  W2        21773           0.0000000000
     65318     21773  TIP3      H1             44.1537033595       53.8814777139        4.3349603535  W2        21773           0.0000000000
     65319     21773  TIP3      H2             44.0208533595       52.7489477139        3.3391803535  W2        21773           0.0000000000
     65320     21774  TIP3      OH2            41.8774733595       45.8462977139        3.1746603535  W2        21774           0.0000000000
     65321     21774  TIP3      H1             41.8327333595       46.7856077139        3.3533603535  W2        21774           0.0000000000
     65322     21774  TIP3      H2             40.9897933595       45.6107877139        2.9048703535  W2        21774           0.0000000000
     65323     21775  TIP3      OH2            42.6856733595       40.6279577139       11.8477603535  W2        21775           0.0000000000
     65324     21775  TIP3      H1             42.4566533595       40.6872077139       10.9202603535  W2        21775           0.0000000000
     65325     21775  TIP3      H2             42.2430133595       39.8365077139       12.1541703535  W2        21775           0.0000000000
     65326     21776  TIP3      OH2            41.6160033595       54.5686677139        8.0083403535  W2        21776           0.0000000000
     65327     21776  TIP3      H1             40.7838633595       55.0409377139        8.0354803535  W2        21776           0.0000000000
     65328     21776  TIP3      H2             42.1618333595       55.0784277139        7.4096503535  W2        21776           0.0000000000
     65329     21777  TIP3      OH2            52.0785833595       54.4805877139       19.6877103535  W2        21777           0.0000000000
     65330     21777  TIP3      H1             51.7275333595       53.6238877139       19.9307503535  W2        21777           0.0000000000
     65331     21777  TIP3      H2             52.8049033595       54.6232577139       20.2946103535  W2        21777           0.0000000000
     65332     21778  TIP3      OH2            40.8113233595       50.9914477139       20.2925703535  W2        21778           0.0000000000
     65333     21778  TIP3      H1             40.9553733595       50.0895177139       20.0062403535  W2        21778           0.0000000000
     65334     21778  TIP3      H2             40.0390633595       51.2776577139       19.8048003535  W2        21778           0.0000000000
     65335     21779  TIP3      OH2            45.1526933595       51.3350177139        2.4250303535  W2        21779           0.0000000000
     65336     21779  TIP3      H1             45.2171033595       50.5409777139        2.9556703535  W2        21779           0.0000000000
     65337     21779  TIP3      H2             45.8056133595       51.2162977139        1.7352303535  W2        21779           0.0000000000
     65338     21780  TIP3      OH2            47.4669333595       50.9612577139       19.7252103535  W2        21780           0.0000000000
     65339     21780  TIP3      H1             47.1383133595       51.2320677139       18.8679503535  W2        21780           0.0000000000
     65340     21780  TIP3      H2             47.6187533595       50.0202377139       19.6377103535  W2        21780           0.0000000000
     65341     21781  TIP3      OH2            50.5050333595       52.3821877139        2.1608303535  W2        21781           0.0000000000
     65342     21781  TIP3      H1             50.2364433595       52.5623977139        3.0617203535  W2        21781           0.0000000000
     65343     21781  TIP3      H2             50.2985933595       51.4568077139        2.0294103535  W2        21781           0.0000000000
     65344     21782  TIP3      OH2            53.2014533595       50.8769877139       17.1084403535  W2        21782           0.0000000000
     65345     21782  TIP3      H1             53.9469333595       51.4653577139       16.9888403535  W2        21782           0.0000000000
     65346     21782  TIP3      H2             52.4441333595       51.4589577139       17.1717503535  W2        21782           0.0000000000
     65347     21783  TIP3      OH2            41.6439733595       48.1917777139       19.7125003535  W2        21783           0.0000000000
     65348     21783  TIP3      H1             42.0520933595       47.3344377139       19.5915603535  W2        21783           0.0000000000
     65349     21783  TIP3      H2             41.3837333595       48.2059077139       20.6335303535  W2        21783           0.0000000000
     65350     21784  TIP3      OH2            46.3020733595       49.3076377139        4.7308303535  W2        21784           0.0000000000
     65351     21784  TIP3      H1             45.8422733595       48.8234677139        5.4166803535  W2        21784           0.0000000000
     65352     21784  TIP3      H2             46.5569433595       48.6391777139        4.0948803535  W2        21784           0.0000000000
     65353     21785  TIP3      OH2            45.5910033595       47.2003477139       17.0867903535  W2        21785           0.0000000000
     65354     21785  TIP3      H1             44.9726133595       47.8750077139       17.3672603535  W2        21785           0.0000000000
     65355     21785  TIP3      H2             45.9351233595       47.5217377139       16.2534103535  W2        21785           0.0000000000
     65356     21786  TIP3      OH2            47.3731133595       47.5508177139        2.9931503535  W2        21786           0.0000000000
     65357     21786  TIP3      H1             47.1926133595       47.3959377139        2.0659803535  W2        21786           0.0000000000
     65358     21786  TIP3      H2             48.3231633595       47.6586877139        3.0379403535  W2        21786           0.0000000000
     65359     21787  TIP3      OH2            50.6108233595       49.6718777139       20.3642703535  W2        21787           0.0000000000
     65360     21787  TIP3      H1             51.5639433595       49.7557877139       20.3368703535  W2        21787           0.0000000000
     65361     21787  TIP3      H2             50.4502833595       48.9600577139       20.9837603535  W2        21787           0.0000000000
     65362     21788  TIP3      OH2            45.9303733595       44.5554277139       18.1691003535  W2        21788           0.0000000000
     65363     21788  TIP3      H1             46.0804633595       43.8265577139       17.5670703535  W2        21788           0.0000000000
     65364     21788  TIP3      H2             45.9326133595       45.3325977139       17.6103203535  W2        21788           0.0000000000
     65365     21789  TIP3      OH2            46.3429433595       42.9250077139       15.6618403535  W2        21789           0.0000000000
     65366     21789  TIP3      H1             46.8786933595       43.3766777139       15.0097703535  W2        21789           0.0000000000
     65367     21789  TIP3      H2             45.4909033595       42.8169877139       15.2392503535  W2        21789           0.0000000000
     65368     21790  TIP3      OH2            47.9247833595       48.3646277139       15.9013603535  W2        21790           0.0000000000
     65369     21790  TIP3      H1             48.6752633595       48.2083777139       15.3281403535  W2        21790           0.0000000000
     65370     21790  TIP3      H2             47.5856133595       49.2162877139       15.6259103535  W2        21790           0.0000000000
     65371     21791  TIP3      OH2            52.3404033595       46.1798077139       20.9298903535  W2        21791           0.0000000000
     65372     21791  TIP3      H1             52.5325333595       45.2487477139       20.8183403535  W2        21791           0.0000000000
     65373     21791  TIP3      H2             53.1980333595       46.6047577139       20.9194303535  W2        21791           0.0000000000
     65374     21792  TIP3      OH2            53.6571233595       48.9683277139       19.0071603535  W2        21792           0.0000000000
     65375     21792  TIP3      H1             53.3756233595       49.6777877139       18.4295403535  W2        21792           0.0000000000
     65376     21792  TIP3      H2             54.5995533595       48.8956277139       18.8562803535  W2        21792           0.0000000000
     65377     21793  TIP3      OH2            44.4090033595       45.7537777139       20.0806603535  W2        21793           0.0000000000
     65378     21793  TIP3      H1             43.6419033595       45.2212577139       19.8704203535  W2        21793           0.0000000000
     65379     21793  TIP3      H2             45.0879033595       45.4438177139       19.4812903535  W2        21793           0.0000000000
     65380     21794  TIP3      OH2            47.1484933595       40.3815777139       16.0932003535  W2        21794           0.0000000000
     65381     21794  TIP3      H1             47.0504533595       41.3278977139       15.9878203535  W2        21794           0.0000000000
     65382     21794  TIP3      H2             46.4061133595       40.0089577139       15.6175503535  W2        21794           0.0000000000
     65383     21795  TIP3      OH2            48.4125433595       44.7031177139       19.6570403535  W2        21795           0.0000000000
     65384     21795  TIP3      H1             48.1770833595       44.4837877139       20.5585303535  W2        21795           0.0000000000
     65385     21795  TIP3      H2             47.6292333595       44.4962377139       19.1472903535  W2        21795           0.0000000000
     65386     21796  TIP3      OH2            51.1282033595       43.8304677139       18.7323903535  W2        21796           0.0000000000
     65387     21796  TIP3      H1             50.1807433595       43.8624377139       18.8647203535  W2        21796           0.0000000000
     65388     21796  TIP3      H2             51.4408733595       43.2051777139       19.3862103535  W2        21796           0.0000000000
     65389     21797  TIP3      OH2            52.7623533595       42.4645777139       20.7375803535  W2        21797           0.0000000000
     65390     21797  TIP3      H1             52.6655333595       41.5123077139       20.7317703535  W2        21797           0.0000000000
     65391     21797  TIP3      H2             52.4406633595       42.7332577139       21.5981303535  W2        21797           0.0000000000
     65392     21798  TIP3      OH2            42.5892833595       43.6741577139       19.7851303535  W2        21798           0.0000000000
     65393     21798  TIP3      H1             42.8010233595       42.9677677139       19.1748803535  W2        21798           0.0000000000
     65394     21798  TIP3      H2             42.4780333595       43.2367577139       20.6292503535  W2        21798           0.0000000000
     65395     21799  TIP3      OH2            47.3703033595       39.6753177139       18.7644803535  W2        21799           0.0000000000
     65396     21799  TIP3      H1             48.0821433595       39.0355377139       18.7503903535  W2        21799           0.0000000000
     65397     21799  TIP3      H2             47.2693433595       39.9421477139       17.8507903535  W2        21799           0.0000000000
     65398     21800  TIP3      OH2            47.7240533595       41.3581577139       20.8181103535  W2        21800           0.0000000000
     65399     21800  TIP3      H1             47.5922733595       40.8825377139       19.9979603535  W2        21800           0.0000000000
     65400     21800  TIP3      H2             47.1247933595       42.1025177139       20.7628203535  W2        21800           0.0000000000
     65401     21801  TIP3      OH2            40.8387733595       52.8775677139        3.4773203535  W2        21801           0.0000000000
     65402     21801  TIP3      H1             41.7526933595       52.9564577139        3.7507103535  W2        21801           0.0000000000
     65403     21801  TIP3      H2             40.8460833595       52.1905277139        2.8108803535  W2        21801           0.0000000000
     65404     21802  TIP3      OH2            40.4377033595       49.4266577139       12.8108203535  W2        21802           0.0000000000
     65405     21802  TIP3      H1             40.6219933595       49.3448277139       11.8751103535  W2        21802           0.0000000000
     65406     21802  TIP3      H2             41.2869933595       49.3023577139       13.2344603535  W2        21802           0.0000000000
     65407     21803  TIP3      OH2            40.0351833595       44.6971577139       18.9517003535  W2        21803           0.0000000000
     65408     21803  TIP3      H1             40.9546733595       44.5749877139       19.1880103535  W2        21803           0.0000000000
     65409     21803  TIP3      H2             39.5856333595       43.9471277139       19.3410503535  W2        21803           0.0000000000
     65410     21804  TIP3      OH2            41.2564333595       43.0093177139       11.8429903535  W2        21804           0.0000000000
     65411     21804  TIP3      H1             41.7015933595       42.2175677139       12.1449603535  W2        21804           0.0000000000
     65412     21804  TIP3      H2             41.7227333595       43.7258377139       12.2735503535  W2        21804           0.0000000000
     65413     21805  TIP3      OH2            39.5604633595       46.0086177139       12.9120103535  W2        21805           0.0000000000
     65414     21805  TIP3      H1             40.0524433595       45.7876677139       12.1212103535  W2        21805           0.0000000000
     65415     21805  TIP3      H2             39.9225533595       46.8489577139       13.1929603535  W2        21805           0.0000000000
     65416     21806  TIP3      OH2            39.8741133595       42.2665277139        6.9662503535  W2        21806           0.0000000000
     65417     21806  TIP3      H1             38.9489533595       42.4751877139        6.8368003535  W2        21806           0.0000000000
     65418     21806  TIP3      H2             40.3281033595       42.7506077139        6.2764803535  W2        21806           0.0000000000
     65419     21807  TIP3      OH2            39.8376533595       41.0044277139       15.3105003535  W2        21807           0.0000000000
     65420     21807  TIP3      H1             39.1727033595       40.7584577139       15.9535903535  W2        21807           0.0000000000
     65421     21807  TIP3      H2             39.3947833595       41.6264677139       14.7333003535  W2        21807           0.0000000000
     65422     21808  TIP3      OH2            42.0295833595       54.1798377139       19.4550803535  W2        21808           0.0000000000
     65423     21808  TIP3      H1             41.2088333595       54.3544877139       18.9945503535  W2        21808           0.0000000000
     65424     21808  TIP3      H2             41.7773633595       54.1063077139       20.3755203535  W2        21808           0.0000000000
     65425     21809  TIP3      OH2            49.9872833595       41.8774577139       11.3193103535  W2        21809           0.0000000000
     65426     21809  TIP3      H1             49.3129633595       41.2480177139       11.5748903535  W2        21809           0.0000000000
     65427     21809  TIP3      H2             50.5512033595       41.3933477139       10.7161003535  W2        21809           0.0000000000
     65428     21810  TIP3      OH2            42.3140333595       40.5114877139        9.1413003535  W2        21810           0.0000000000
     65429     21810  TIP3      H1             41.5370133595       40.2769777139        8.6338903535  W2        21810           0.0000000000
     65430     21810  TIP3      H2             42.8443933595       39.7146977139        9.1501003535  W2        21810           0.0000000000
     65431     21811  TIP3      OH2            41.1503733595       40.3092977139        4.9449103535  W2        21811           0.0000000000
     65432     21811  TIP3      H1             41.5894433595       40.9203477139        4.3532603535  W2        21811           0.0000000000
     65433     21811  TIP3      H2             40.5166133595       40.8477077139        5.4189103535  W2        21811           0.0000000000
     65434     21812  TIP3      OH2            46.8932933595       40.4381977139        8.9546103535  W2        21812           0.0000000000
     65435     21812  TIP3      H1             47.7676333595       40.8266277139        8.9250403535  W2        21812           0.0000000000
     65436     21812  TIP3      H2             46.7573733595       40.2229777139        9.8773303535  W2        21812           0.0000000000
     65437     21813  TIP3      OH2            52.4501333595       40.4681777139       10.6037803535  W2        21813           0.0000000000
     65438     21813  TIP3      H1             52.5262933595       40.5633377139        9.6543803535  W2        21813           0.0000000000
     65439     21813  TIP3      H2             52.1750533595       39.5604677139       10.7326903535  W2        21813           0.0000000000
     65440     21814  TIP3      OH2            53.8033933595       40.4939577139        6.2962803535  W2        21814           0.0000000000
     65441     21814  TIP3      H1             53.1005033595       41.1088777139        6.0864203535  W2        21814           0.0000000000
     65442     21814  TIP3      H2             53.3585333595       39.6566277139        6.4273703535  W2        21814           0.0000000000
     65443     21815  TIP3      OH2            43.0112833595       42.2254477139        3.3873203535  W2        21815           0.0000000000
     65444     21815  TIP3      H1             43.5026233595       41.5956877139        2.8598703535  W2        21815           0.0000000000
     65445     21815  TIP3      H2             43.6349133595       42.5213877139        4.0504403535  W2        21815           0.0000000000
     65446     21816  TIP3      OH2            48.0372933595       42.5185977139        5.8443703535  W2        21816           0.0000000000
     65447     21816  TIP3      H1             48.2154233595       41.8719177139        6.5272303535  W2        21816           0.0000000000
     65448     21816  TIP3      H2             47.9839133595       43.3523677139        6.3114803535  W2        21816           0.0000000000
     65449     21817  TIP3      OH2            42.2718333595       41.0256777139       18.6589203535  W2        21817           0.0000000000
     65450     21817  TIP3      H1             41.9056533595       40.2599377139       19.1013903535  W2        21817           0.0000000000
     65451     21817  TIP3      H2             43.1846833595       41.0546977139       18.9454303535  W2        21817           0.0000000000
     65452     21818  TIP3      OH2            44.2449133595       40.3761177139       20.1946303535  W2        21818           0.0000000000
     65453     21818  TIP3      H1             45.1432733595       40.1021377139       20.0099703535  W2        21818           0.0000000000
     65454     21818  TIP3      H2             43.8582233595       39.6337177139       20.6588903535  W2        21818           0.0000000000
     65455     21819  TIP3      OH2            52.6661433595       39.7086477139       20.3769103535  W2        21819           0.0000000000
     65456     21819  TIP3      H1             52.7428633595       39.2827177139       21.2306803535  W2        21819           0.0000000000
     65457     21819  TIP3      H2             53.5598033595       39.7221177139       20.0342603535  W2        21819           0.0000000000
     65458     21820  TIP3      OH2           -42.8877066405      -44.6122822861       27.9560503535  W2        21820           0.0000000000
     65459     21820  TIP3      H1            -42.7985966405      -43.6684622861       27.8237603535  W2        21820           0.0000000000
     65460     21820  TIP3      H2            -43.5259466405      -44.8876422861       27.2979903535  W2        21820           0.0000000000
     65461     21821  TIP3      OH2           -43.9545766405      -45.3572122861       31.3748703535  W2        21821           0.0000000000
     65462     21821  TIP3      H1            -43.9928266405      -46.0035822861       32.0798303535  W2        21821           0.0000000000
     65463     21821  TIP3      H2            -44.2769266405      -45.8237722861       30.6037403535  W2        21821           0.0000000000
     65464     21822  TIP3      OH2           -51.5860766405      -45.7430022861       32.9678603535  W2        21822           0.0000000000
     65465     21822  TIP3      H1            -51.5448666405      -46.3686722861       33.6911003535  W2        21822           0.0000000000
     65466     21822  TIP3      H2            -50.8833066405      -45.1191422861       33.1499003535  W2        21822           0.0000000000
     65467     21823  TIP3      OH2           -40.2485566405      -42.4181722861       29.6763803535  W2        21823           0.0000000000
     65468     21823  TIP3      H1            -40.6892866405      -43.1385722861       30.1269403535  W2        21823           0.0000000000
     65469     21823  TIP3      H2            -40.2615866405      -41.6974522861       30.3061503535  W2        21823           0.0000000000
     65470     21824  TIP3      OH2           -50.6627666405      -41.2931122861       31.5027703535  W2        21824           0.0000000000
     65471     21824  TIP3      H1            -51.0322466405      -42.0950622861       31.1332003535  W2        21824           0.0000000000
     65472     21824  TIP3      H2            -49.7216566405      -41.4616222861       31.5491103535  W2        21824           0.0000000000
     65473     21825  TIP3      OH2           -54.0527166405      -47.6328522861       26.8956503535  W2        21825           0.0000000000
     65474     21825  TIP3      H1            -54.5003766405      -46.7869822861       26.8773003535  W2        21825           0.0000000000
     65475     21825  TIP3      H2            -54.6135966405      -48.2124322861       26.3801603535  W2        21825           0.0000000000
     65476     21826  TIP3      OH2           -53.3421066405      -45.4708922861       29.0214503535  W2        21826           0.0000000000
     65477     21826  TIP3      H1            -53.1287566405      -46.2407322861       29.5487503535  W2        21826           0.0000000000
     65478     21826  TIP3      H2            -52.6043466405      -45.3812222861       28.4182103535  W2        21826           0.0000000000
     65479     21827  TIP3      OH2           -43.1370066405      -37.3140022861       29.8884203535  W2        21827           0.0000000000
     65480     21827  TIP3      H1            -42.5173666405      -37.9905322861       29.6153403535  W2        21827           0.0000000000
     65481     21827  TIP3      H2            -43.3452666405      -37.5319222861       30.7969103535  W2        21827           0.0000000000
     65482     21828  TIP3      OH2           -45.5651366405      -42.9250722861       31.7809703535  W2        21828           0.0000000000
     65483     21828  TIP3      H1            -45.2613466405      -43.6109322861       31.1863803535  W2        21828           0.0000000000
     65484     21828  TIP3      H2            -44.8437366405      -42.8062022861       32.3987703535  W2        21828           0.0000000000
     65485     21829  TIP3      OH2           -36.9021566405      -51.3235422861       32.6415903535  W2        21829           0.0000000000
     65486     21829  TIP3      H1            -36.8529366405      -50.7134222861       33.3775003535  W2        21829           0.0000000000
     65487     21829  TIP3      H2            -36.4766466405      -50.8624522861       31.9187003535  W2        21829           0.0000000000
     65488     21830  TIP3      OH2           -42.4244366405      -48.5308322861       32.1084503535  W2        21830           0.0000000000
     65489     21830  TIP3      H1            -42.2818466405      -49.4771322861       32.1286103535  W2        21830           0.0000000000
     65490     21830  TIP3      H2            -42.5305366405      -48.3238522861       31.1799403535  W2        21830           0.0000000000
     65491     21831  TIP3      OH2           -49.2696066405      -50.4291922861       29.3809303535  W2        21831           0.0000000000
     65492     21831  TIP3      H1            -49.2264966405      -49.5693422861       28.9625603535  W2        21831           0.0000000000
     65493     21831  TIP3      H2            -49.7271966405      -50.9817222861       28.7472503535  W2        21831           0.0000000000
     65494     21832  TIP3      OH2           -41.5473366405      -50.2986322861       27.7817603535  W2        21832           0.0000000000
     65495     21832  TIP3      H1            -40.9009066405      -50.6273122861       28.4065203535  W2        21832           0.0000000000
     65496     21832  TIP3      H2            -41.0373966405      -49.7807322861       27.1589003535  W2        21832           0.0000000000
     65497     21833  TIP3      OH2           -52.6494566405      -48.0326122861       30.1430703535  W2        21833           0.0000000000
     65498     21833  TIP3      H1            -51.9957966405      -48.5824422861       30.5750803535  W2        21833           0.0000000000
     65499     21833  TIP3      H2            -52.6255266405      -48.3067122861       29.2262703535  W2        21833           0.0000000000
     65500     21834  TIP3      OH2           -47.4930066405      -46.4824822861       29.3582203535  W2        21834           0.0000000000
     65501     21834  TIP3      H1            -46.8769066405      -47.0089422861       29.8676203535  W2        21834           0.0000000000
     65502     21834  TIP3      H2            -48.0791266405      -47.1226122861       28.9545803535  W2        21834           0.0000000000
     65503     21835  TIP3      OH2           -36.5106966405      -49.8456222861       34.8775703535  W2        21835           0.0000000000
     65504     21835  TIP3      H1            -37.1992366405      -49.1875522861       34.7822303535  W2        21835           0.0000000000
     65505     21835  TIP3      H2            -36.4952366405      -50.0428322861       35.8141103535  W2        21835           0.0000000000
     65506     21836  TIP3      OH2           -50.4594166405      -51.5113522861       33.4550103535  W2        21836           0.0000000000
     65507     21836  TIP3      H1            -50.6782466405      -50.9812922861       32.6886103535  W2        21836           0.0000000000
     65508     21836  TIP3      H2            -51.1273266405      -51.2848022861       34.1021503535  W2        21836           0.0000000000
     65509     21837  TIP3      OH2           -43.0904366405      -42.0112422861       26.9989203535  W2        21837           0.0000000000
     65510     21837  TIP3      H1            -43.3859266405      -42.3340122861       26.1476103535  W2        21837           0.0000000000
     65511     21837  TIP3      H2            -43.4146566405      -41.1115722861       27.0401803535  W2        21837           0.0000000000
     65512     21838  TIP3      OH2           -47.8902766405      -43.8357822861       33.7423803535  W2        21838           0.0000000000
     65513     21838  TIP3      H1            -48.6303666405      -43.2376322861       33.8459003535  W2        21838           0.0000000000
     65514     21838  TIP3      H2            -47.1763266405      -43.2818222861       33.4267403535  W2        21838           0.0000000000
     65515     21839  TIP3      OH2           -39.7834966405      -51.0077022861       29.7623503535  W2        21839           0.0000000000
     65516     21839  TIP3      H1            -39.9986966405      -51.7733622861       30.2949503535  W2        21839           0.0000000000
     65517     21839  TIP3      H2            -39.1277566405      -50.5352422861       30.2752003535  W2        21839           0.0000000000
     65518     21840  TIP3      OH2           -50.8656866405      -49.6191722861       31.4072303535  W2        21840           0.0000000000
     65519     21840  TIP3      H1            -50.2520566405      -48.9864122861       31.7804703535  W2        21840           0.0000000000
     65520     21840  TIP3      H2            -50.3536166405      -50.0916722861       30.7509203535  W2        21840           0.0000000000
     65521     21841  TIP3      OH2           -49.4828466405      -41.8714822861       34.5295303535  W2        21841           0.0000000000
     65522     21841  TIP3      H1            -49.4880866405      -40.9921322861       34.1514603535  W2        21841           0.0000000000
     65523     21841  TIP3      H2            -50.3364366405      -41.9550722861       34.9545203535  W2        21841           0.0000000000
     65524     21842  TIP3      OH2           -53.3617566405      -42.2006922861       25.3114603535  W2        21842           0.0000000000
     65525     21842  TIP3      H1            -53.6336666405      -41.9715922861       24.4227503535  W2        21842           0.0000000000
     65526     21842  TIP3      H2            -53.3161866405      -41.3628122861       25.7719903535  W2        21842           0.0000000000
     65527     21843  TIP3      OH2           -39.7367866405      -40.5791022861       32.0243103535  W2        21843           0.0000000000
     65528     21843  TIP3      H1            -40.6784166405      -40.5207122861       32.1860003535  W2        21843           0.0000000000
     65529     21843  TIP3      H2            -39.4601766405      -39.6730522861       31.8872803535  W2        21843           0.0000000000
     65530     21844  TIP3      OH2           -39.4360866405      -52.2925722861       33.4417003535  W2        21844           0.0000000000
     65531     21844  TIP3      H1            -40.1721666405      -51.6818622861       33.4038303535  W2        21844           0.0000000000
     65532     21844  TIP3      H2            -38.7526866405      -51.8776722861       32.9153403535  W2        21844           0.0000000000
     65533     21845  TIP3      OH2           -46.4329466405      -54.2058422861       30.9075003535  W2        21845           0.0000000000
     65534     21845  TIP3      H1            -46.5505266405      -55.1542422861       30.8533303535  W2        21845           0.0000000000
     65535     21845  TIP3      H2            -47.2879366405      -53.8732322861       31.1806103535  W2        21845           0.0000000000
     65536     21846  TIP3      OH2           -41.4846666405      -38.7977522861       28.6494703535  W2        21846           0.0000000000
     65537     21846  TIP3      H1            -41.0594366405      -39.5049622861       28.1644303535  W2        21846           0.0000000000
     65538     21846  TIP3      H2            -41.1676666405      -37.9964822861       28.2326903535  W2        21846           0.0000000000
     65539     21847  TIP3      OH2           -40.3250166405      -40.8969022861       27.1581303535  W2        21847           0.0000000000
     65540     21847  TIP3      H1            -40.5825366405      -41.5868922861       26.5467203535  W2        21847           0.0000000000
     65541     21847  TIP3      H2            -40.2539366405      -41.3397822861       28.0037203535  W2        21847           0.0000000000
     65542     21848  TIP3      OH2           -44.1664566405      -45.3682822861       25.4080803535  W2        21849           0.0000000000
     65543     21848  TIP3      H1            -44.8779066405      -44.8333122861       25.0561303535  W2        21849           0.0000000000
     65544     21848  TIP3      H2            -43.4754966405      -45.3130722861       24.7479703535  W2        21849           0.0000000000
     65545     21849  TIP3      OH2           -44.1125366405      -46.9108522861       22.4465803535  W2        21850           0.0000000000
     65546     21849  TIP3      H1            -43.4115466405      -46.8881622861       23.0979803535  W2        21850           0.0000000000
     65547     21849  TIP3      H2            -43.8102466405      -47.5388822861       21.7905103535  W2        21850           0.0000000000
     65548     21850  TIP3      OH2           -36.7970666405      -45.9904322861       33.7015203535  W2        21851           0.0000000000
     65549     21850  TIP3      H1            -37.4496566405      -45.2958722861       33.7906103535  W2        21851           0.0000000000
     65550     21850  TIP3      H2            -36.3320366405      -45.7803422861       32.8916803535  W2        21851           0.0000000000
     65551     21851  TIP3      OH2           -40.7606866405      -45.1589522861       26.3596703535  W2        21852           0.0000000000
     65552     21851  TIP3      H1            -41.4925866405      -44.9305822861       26.9327303535  W2        21852           0.0000000000
     65553     21851  TIP3      H2            -40.3134666405      -45.8726822861       26.8144203535  W2        21852           0.0000000000
     65554     21852  TIP3      OH2           -40.8633366405      -46.9846922861       35.4273703535  W2        21853           0.0000000000
     65555     21852  TIP3      H1            -40.7834266405      -46.2212522861       35.9992203535  W2        21853           0.0000000000
     65556     21852  TIP3      H2            -41.4645666405      -46.7054522861       34.7368803535  W2        21853           0.0000000000
     65557     21853  TIP3      OH2           -49.1153166405      -44.5283322861       28.2421703535  W2        21854           0.0000000000
     65558     21853  TIP3      H1            -49.4457966405      -44.8989922861       27.4238703535  W2        21854           0.0000000000
     65559     21853  TIP3      H2            -48.5269066405      -45.1989322861       28.5890003535  W2        21854           0.0000000000
     65560     21854  TIP3      OH2           -47.7485666405      -41.1002722861       30.9233903535  W2        21855           0.0000000000
     65561     21854  TIP3      H1            -47.8434366405      -41.6789622861       30.1668503535  W2        21855           0.0000000000
     65562     21854  TIP3      H2            -47.0192066405      -41.4717022861       31.4196703535  W2        21855           0.0000000000
     65563     21855  TIP3      OH2           -48.7487666405      -45.7597722861       31.8756703535  W2        21856           0.0000000000
     65564     21855  TIP3      H1            -48.1835166405      -45.6383522861       31.1127903535  W2        21856           0.0000000000
     65565     21855  TIP3      H2            -48.4298766405      -45.1222722861       32.5145203535  W2        21856           0.0000000000
     65566     21856  TIP3      OH2           -42.4395466405      -40.2565822861       32.6097203535  W2        21857           0.0000000000
     65567     21856  TIP3      H1            -42.6798866405      -39.5942722861       33.2576403535  W2        21857           0.0000000000
     65568     21856  TIP3      H2            -42.6377266405      -41.0910622861       33.0346803535  W2        21857           0.0000000000
     65569     21857  TIP3      OH2           -41.8897366405      -45.9966622861       24.0447903535  W2        21859           0.0000000000
     65570     21857  TIP3      H1            -41.3101866405      -45.8466322861       24.7916803535  W2        21859           0.0000000000
     65571     21857  TIP3      H2            -41.4757366405      -45.5259222861       23.3214303535  W2        21859           0.0000000000
     65572     21858  TIP3      OH2           -44.1632466405      -39.2598122861       27.4801003535  W2        21861           0.0000000000
     65573     21858  TIP3      H1            -43.6894866405      -38.9641822861       28.2575203535  W2        21861           0.0000000000
     65574     21858  TIP3      H2            -44.7263166405      -38.5216522861       27.2470603535  W2        21861           0.0000000000
     65575     21859  TIP3      OH2           -38.1908966405      -54.2466222861       23.8577603535  W2        21863           0.0000000000
     65576     21859  TIP3      H1            -39.0908266405      -54.1077222861       24.1528203535  W2        21863           0.0000000000
     65577     21859  TIP3      H2            -37.9390566405      -53.4151622861       23.4559303535  W2        21863           0.0000000000
     65578     21860  TIP3      OH2           -50.1250466405      -45.4589022861       25.8314503535  W2        21864           0.0000000000
     65579     21860  TIP3      H1            -50.4169166405      -44.6907322861       25.3405803535  W2        21864           0.0000000000
     65580     21860  TIP3      H2            -50.7995266405      -46.1182822861       25.6685903535  W2        21864           0.0000000000
     65581     21861  TIP3      OH2           -37.0017566405      -39.8803822861       22.2341503535  W2        21865           0.0000000000
     65582     21861  TIP3      H1            -36.9284066405      -38.9413622861       22.4046803535  W2        21865           0.0000000000
     65583     21861  TIP3      H2            -36.0962466405      -40.1855222861       22.1778803535  W2        21865           0.0000000000
     65584     21862  TIP3      OH2           -54.0320366405      -43.0959822861       34.6464303535  W2        21866           0.0000000000
     65585     21862  TIP3      H1            -54.5331966405      -43.1240422861       33.8314003535  W2        21866           0.0000000000
     65586     21862  TIP3      H2            -54.0266666405      -44.0016622861       34.9561603535  W2        21866           0.0000000000
     65587     21863  TIP3      OH2           -54.2817666405      -40.3156022861       31.5304503535  W2        21867           0.0000000000
     65588     21863  TIP3      H1            -53.3357066405      -40.4599022861       31.5114003535  W2        21867           0.0000000000
     65589     21863  TIP3      H2            -54.3941366405      -39.5313222861       32.0675703535  W2        21867           0.0000000000
     65590     21864  TIP3      OH2           -44.6909366405      -36.3033422861       25.8950203535  W2        21870           0.0000000000
     65591     21864  TIP3      H1            -44.7663366405      -36.4246222861       24.9485403535  W2        21870           0.0000000000
     65592     21864  TIP3      H2            -44.6580666405      -35.3540722861       26.0134803535  W2        21870           0.0000000000
     65593     21865  TIP3      OH2           -51.0375566405      -37.5146422861       27.6759203535  W2        21871           0.0000000000
     65594     21865  TIP3      H1            -50.8855166405      -37.8626022861       28.5545703535  W2        21871           0.0000000000
     65595     21865  TIP3      H2            -51.8885166405      -37.8709122861       27.4206403535  W2        21871           0.0000000000
     65596     21866  TIP3      OH2           -41.5893366405      -37.1493222861       22.8972603535  W2        21872           0.0000000000
     65597     21866  TIP3      H1            -41.2144966405      -37.8937122861       22.4265203535  W2        21872           0.0000000000
     65598     21866  TIP3      H2            -41.5849666405      -37.4192622861       23.8155903535  W2        21872           0.0000000000
     65599     21867  TIP3      OH2           -41.9205266405      -37.2236122861       25.6464803535  W2        21873           0.0000000000
     65600     21867  TIP3      H1            -42.8555466405      -37.1234222861       25.8251803535  W2        21873           0.0000000000
     65601     21867  TIP3      H2            -41.6403366405      -37.9330122861       26.2248003535  W2        21873           0.0000000000
     65602     21868  TIP3      OH2           -49.1641866405      -53.3023922861       31.6851303535  W2        21876           0.0000000000
     65603     21868  TIP3      H1            -50.0258166405      -53.3895722861       31.2774203535  W2        21876           0.0000000000
     65604     21868  TIP3      H2            -49.1866166405      -52.4463822861       32.1128903535  W2        21876           0.0000000000
     65605     21869  TIP3      OH2           -44.5014066405      -53.5803522861       35.0598303535  W2        21877           0.0000000000
     65606     21869  TIP3      H1            -44.0810966405      -53.9956422861       35.8128903535  W2        21877           0.0000000000
     65607     21869  TIP3      H2            -45.4344466405      -53.7590222861       35.1770303535  W2        21877           0.0000000000
     65608     21870  TIP3      OH2           -40.4124266405      -44.9638322861       21.6745803535  W2        21879           0.0000000000
     65609     21870  TIP3      H1            -40.3703466405      -45.1864422861       20.7445803535  W2        21879           0.0000000000
     65610     21870  TIP3      H2            -39.5632166405      -44.5651222861       21.8645703535  W2        21879           0.0000000000
     65611     21871  TIP3      OH2           -44.8396766405      -51.0880122861       22.3449103535  W2        21880           0.0000000000
     65612     21871  TIP3      H1            -45.0931966405      -51.0688522861       23.2677203535  W2        21880           0.0000000000
     65613     21871  TIP3      H2            -45.0964666405      -51.9594722861       22.0435303535  W2        21880           0.0000000000
     65614     21872  TIP3      OH2           -49.0731766405      -48.3369422861       32.7801503535  W2        21881           0.0000000000
     65615     21872  TIP3      H1            -49.7149666405      -48.3772122861       33.4891603535  W2        21881           0.0000000000
     65616     21872  TIP3      H2            -49.0359766405      -47.4104722861       32.5424503535  W2        21881           0.0000000000
     65617     21873  TIP3      OH2           -49.0762666405      -48.1159322861       27.6921503535  W2        21882           0.0000000000
     65618     21873  TIP3      H1            -49.9689766405      -48.4563222861       27.6335303535  W2        21882           0.0000000000
     65619     21873  TIP3      H2            -48.6256066405      -48.4928422861       26.9364703535  W2        21882           0.0000000000
     65620     21874  TIP3      OH2           -43.5407166405      -47.6999022861       26.5092303535  W2        21883           0.0000000000
     65621     21874  TIP3      H1            -43.9496866405      -46.8850422861       26.2177103535  W2        21883           0.0000000000
     65622     21874  TIP3      H2            -42.8200966405      -47.8398922861       25.8949403535  W2        21883           0.0000000000
     65623     21875  TIP3      OH2           -42.5359466405      -48.2538622861       29.3232003535  W2        21885           0.0000000000
     65624     21875  TIP3      H1            -42.7314966405      -47.6481822861       28.6082603535  W2        21885           0.0000000000
     65625     21875  TIP3      H2            -42.3546866405      -49.0873422861       28.8888303535  W2        21885           0.0000000000
     65626     21876  TIP3      OH2           -51.3231266405      -48.0165922861       34.6473503535  W2        21886           0.0000000000
     65627     21876  TIP3      H1            -51.3611866405      -47.6164322861       35.5160603535  W2        21886           0.0000000000
     65628     21876  TIP3      H2            -51.8140166405      -48.8333522861       34.7376403535  W2        21886           0.0000000000
     65629     21877  TIP3      OH2           -47.9573866405      -50.6423622861       21.4459503535  W2        21887           0.0000000000
     65630     21877  TIP3      H1            -48.3883166405      -51.0873522861       22.1756903535  W2        21887           0.0000000000
     65631     21877  TIP3      H2            -48.6755166405      -50.2707322861       20.9337003535  W2        21887           0.0000000000
     65632     21878  TIP3      OH2           -54.7150466405      -50.9004122861       28.4978203535  W2        21888           0.0000000000
     65633     21878  TIP3      H1            -54.0842766405      -50.9292022861       29.2172103535  W2        21888           0.0000000000
     65634     21878  TIP3      H2            -54.2656166405      -51.3255422861       27.7674103535  W2        21888           0.0000000000
     65635     21879  TIP3      OH2           -53.4408366405      -50.1542122861       23.9218603535  W2        21889           0.0000000000
     65636     21879  TIP3      H1            -52.9666666405      -49.5632222861       23.3369503535  W2        21889           0.0000000000
     65637     21879  TIP3      H2            -54.1581966405      -49.6239222861       24.2688703535  W2        21889           0.0000000000
     65638     21880  TIP3      OH2           -43.2720266405      -46.6157322861       33.9944403535  W2        21890           0.0000000000
     65639     21880  TIP3      H1            -42.9485466405      -47.2467622861       33.3514903535  W2        21890           0.0000000000
     65640     21880  TIP3      H2            -43.7120966405      -47.1505122861       34.6551803535  W2        21890           0.0000000000
     65641     21881  TIP3      OH2           -46.4947366405      -50.6881822861       28.7785603535  W2        21891           0.0000000000
     65642     21881  TIP3      H1            -47.4056266405      -50.6315022861       29.0671603535  W2        21891           0.0000000000
     65643     21881  TIP3      H2            -45.9894466405      -50.7486322861       29.5892803535  W2        21891           0.0000000000
     65644     21882  TIP3      OH2           -51.6663966405      -49.0595522861       27.6053203535  W2        21892           0.0000000000
     65645     21882  TIP3      H1            -52.5555966405      -48.9600022861       27.2652803535  W2        21892           0.0000000000
     65646     21882  TIP3      H2            -51.3699066405      -49.9012522861       27.2591103535  W2        21892           0.0000000000
     65647     21883  TIP3      OH2           -48.0132166405      -49.0592922861       25.2617803535  W2        21893           0.0000000000
     65648     21883  TIP3      H1            -47.0816666405      -48.9302922861       25.4400903535  W2        21893           0.0000000000
     65649     21883  TIP3      H2            -48.2281866405      -48.3898622861       24.6122503535  W2        21893           0.0000000000
     65650     21884  TIP3      OH2           -42.0895466405      -51.4535522861       32.0427403535  W2        21894           0.0000000000
     65651     21884  TIP3      H1            -42.7663866405      -51.3222422861       32.7067103535  W2        21894           0.0000000000
     65652     21884  TIP3      H2            -42.5750566405      -51.6086022861       31.2325103535  W2        21894           0.0000000000
     65653     21885  TIP3      OH2           -49.3391966405      -47.8650722861       22.8283903535  W2        21895           0.0000000000
     65654     21885  TIP3      H1            -49.8816866405      -48.2446922861       22.1371503535  W2        21895           0.0000000000
     65655     21885  TIP3      H2            -48.5057066405      -47.6706022861       22.3998003535  W2        21895           0.0000000000
     65656     21886  TIP3      OH2           -45.1747666405      -47.9008822861       30.6655203535  W2        21898           0.0000000000
     65657     21886  TIP3      H1            -44.6104266405      -48.4472222861       30.1184803535  W2        21898           0.0000000000
     65658     21886  TIP3      H2            -45.3224266405      -48.4226922861       31.4542803535  W2        21898           0.0000000000
     65659     21887  TIP3      OH2           -50.1727966405      -51.7642722861       27.0840003535  W2        21899           0.0000000000
     65660     21887  TIP3      H1            -50.4898466405      -52.6667422861       27.0485403535  W2        21899           0.0000000000
     65661     21887  TIP3      H2            -49.3913866405      -51.7625322861       26.5311603535  W2        21899           0.0000000000
     65662     21888  TIP3      OH2           -46.5481766405      -49.5122722861       33.0795603535  W2        21900           0.0000000000
     65663     21888  TIP3      H1            -47.3836466405      -49.0583222861       33.1898003535  W2        21900           0.0000000000
     65664     21888  TIP3      H2            -46.0241166405      -49.2364222861       33.8315503535  W2        21900           0.0000000000
     65665     21889  TIP3      OH2           -46.0039166405      -43.2995022861       24.7642003535  W2        21901           0.0000000000
     65666     21889  TIP3      H1            -46.7488166405      -43.8069722861       24.4419903535  W2        21901           0.0000000000
     65667     21889  TIP3      H2            -46.1381966405      -43.2507022861       25.7106803535  W2        21901           0.0000000000
     65668     21890  TIP3      OH2           -38.8540266405      -44.1666822861       33.5509603535  W2        21902           0.0000000000
     65669     21890  TIP3      H1            -38.2121466405      -43.7100522861       33.0071803535  W2        21902           0.0000000000
     65670     21890  TIP3      H2            -39.6843366405      -44.0534422861       33.0883703535  W2        21902           0.0000000000
     65671     21891  TIP3      OH2           -42.1062366405      -50.4855122861       22.9634603535  W2        21903           0.0000000000
     65672     21891  TIP3      H1            -43.0448166405      -50.3739522861       22.8123403535  W2        21903           0.0000000000
     65673     21891  TIP3      H2            -41.8090266405      -49.6288222861       23.2700303535  W2        21903           0.0000000000
     65674     21892  TIP3      OH2           -41.3878866405      -48.6182422861       24.6242003535  W2        21905           0.0000000000
     65675     21892  TIP3      H1            -40.4959866405      -48.7557422861       24.9433203535  W2        21905           0.0000000000
     65676     21892  TIP3      H2            -41.3315266405      -47.8276322861       24.0875503535  W2        21905           0.0000000000
     65677     21893  TIP3      OH2           -50.8790866405      -44.0045022861       30.5339903535  W2        21906           0.0000000000
     65678     21893  TIP3      H1            -50.1343666405      -44.0069322861       29.9326403535  W2        21906           0.0000000000
     65679     21893  TIP3      H2            -50.8014266405      -44.8281222861       31.0155003535  W2        21906           0.0000000000
     65680     21894  TIP3      OH2           -43.8785066405      -41.8410722861       23.7896603535  W2        21907           0.0000000000
     65681     21894  TIP3      H1            -44.1736666405      -41.0142822861       24.1711403535  W2        21907           0.0000000000
     65682     21894  TIP3      H2            -44.5815066405      -42.4603822861       23.9858003535  W2        21907           0.0000000000
     65683     21895  TIP3      OH2           -36.5030166405      -48.4088322861       24.3188703535  W2        21911           0.0000000000
     65684     21895  TIP3      H1            -37.0573866405      -48.8050322861       23.6466203535  W2        21911           0.0000000000
     65685     21895  TIP3      H2            -36.4026566405      -47.4983122861       24.0412003535  W2        21911           0.0000000000
     65686     21896  TIP3      OH2           -38.2078466405      -39.6227922861       24.7840803535  W2        21913           0.0000000000
     65687     21896  TIP3      H1            -38.5807366405      -40.4484122861       25.0931403535  W2        21913           0.0000000000
     65688     21896  TIP3      H2            -37.9304966405      -39.8058522861       23.8864203535  W2        21913           0.0000000000
     65689     21897  TIP3      OH2           -41.0474566405      -44.8148422861       31.8052703535  W2        21914           0.0000000000
     65690     21897  TIP3      H1            -41.9757666405      -45.0466522861       31.7782003535  W2        21914           0.0000000000
     65691     21897  TIP3      H2            -40.5963466405      -45.5918622861       31.4751503535  W2        21914           0.0000000000
     65692     21898  TIP3      OH2           -48.5041466405      -40.4866822861       27.9381403535  W2        21915           0.0000000000
     65693     21898  TIP3      H1            -47.9769266405      -39.7132422861       27.7380203535  W2        21915           0.0000000000
     65694     21898  TIP3      H2            -49.3842966405      -40.2617622861       27.6365403535  W2        21915           0.0000000000
     65695     21899  TIP3      OH2           -52.7493766405      -45.6242722861       22.5253803535  W2        21916           0.0000000000
     65696     21899  TIP3      H1            -52.1333866405      -44.9975522861       22.9048603535  W2        21916           0.0000000000
     65697     21899  TIP3      H2            -53.6111166405      -45.3082922861       22.7970303535  W2        21916           0.0000000000
     65698     21900  TIP3      OH2           -47.0769166405      -42.8236922861       27.5145703535  W2        21917           0.0000000000
     65699     21900  TIP3      H1            -47.3179166405      -41.8982522861       27.5561003535  W2        21917           0.0000000000
     65700     21900  TIP3      H2            -47.8175566405      -43.2825622861       27.9109603535  W2        21917           0.0000000000
     65701     21901  TIP3      OH2           -46.5622566405      -38.6743322861       33.8296803535  W2        21918           0.0000000000
     65702     21901  TIP3      H1            -46.1997866405      -37.8197722861       33.5961203535  W2        21918           0.0000000000
     65703     21901  TIP3      H2            -46.0307366405      -38.9661722861       34.5703103535  W2        21918           0.0000000000
     65704     21902  TIP3      OH2           -48.3938366405      -37.8019322861       27.0597903535  W2        21919           0.0000000000
     65705     21902  TIP3      H1            -49.3437866405      -37.6961922861       27.1111203535  W2        21919           0.0000000000
     65706     21902  TIP3      H2            -48.0420266405      -36.9811922861       27.4045403535  W2        21919           0.0000000000
     65707     21903  TIP3      OH2           -43.0181766405      -42.5752622861       33.5302403535  W2        21920           0.0000000000
     65708     21903  TIP3      H1            -43.4440466405      -42.8030922861       34.3566403535  W2        21920           0.0000000000
     65709     21903  TIP3      H2            -42.4375966405      -43.3140822861       33.3477703535  W2        21920           0.0000000000
     65710     21904  TIP3      OH2           -40.8152866405      -41.6462122861       22.6041403535  W2        21921           0.0000000000
     65711     21904  TIP3      H1            -40.4619766405      -42.0262322861       23.4084903535  W2        21921           0.0000000000
     65712     21904  TIP3      H2            -41.7639366405      -41.7397322861       22.6910703535  W2        21921           0.0000000000
     65713     21905  TIP3      OH2           -36.3118466405      -37.1669622861       22.8051603535  W2        21923           0.0000000000
     65714     21905  TIP3      H1            -35.5680566405      -36.5809122861       22.6653203535  W2        21923           0.0000000000
     65715     21905  TIP3      H2            -37.0060366405      -36.5983822861       23.1384003535  W2        21923           0.0000000000
     65716     21906  TIP3      OH2           -52.2371666405      -50.7905422861       35.4069803535  W2        21924           0.0000000000
     65717     21906  TIP3      H1            -53.1299366405      -50.4520022861       35.3393803535  W2        21924           0.0000000000
     65718     21906  TIP3      H2            -52.3358866405      -51.6459322861       35.8250603535  W2        21924           0.0000000000
     65719     21907  TIP3      OH2           -39.9493566405      -42.9740122861       24.8309303535  W2        21925           0.0000000000
     65720     21907  TIP3      H1            -40.2265966405      -43.7020822861       25.3870403535  W2        21925           0.0000000000
     65721     21907  TIP3      H2            -39.0220566405      -42.8548122861       25.0361903535  W2        21925           0.0000000000
     65722     21908  TIP3      OH2           -52.5859666405      -38.9861022861       33.8419203535  W2        21926           0.0000000000
     65723     21908  TIP3      H1            -52.3689366405      -39.9178622861       33.8108903535  W2        21926           0.0000000000
     65724     21908  TIP3      H2            -52.3396166405      -38.7116022861       34.7252003535  W2        21926           0.0000000000
     65725     21909  TIP3      OH2           -46.7245066405      -40.5346022861       21.0511403535  W2        21927           0.0000000000
     65726     21909  TIP3      H1            -46.4855266405      -41.2827922861       20.5040303535  W2        21927           0.0000000000
     65727     21909  TIP3      H2            -46.9933766405      -40.9224322861       21.8839203535  W2        21927           0.0000000000
     65728     21910  TIP3      OH2           -47.7874466405      -40.9642222861       23.5074003535  W2        21928           0.0000000000
     65729     21910  TIP3      H1            -47.6406466405      -41.4842422861       24.2974903535  W2        21928           0.0000000000
     65730     21910  TIP3      H2            -47.7902766405      -40.0574622861       23.8139903535  W2        21928           0.0000000000
     65731     21911  TIP3      OH2           -51.3343366405      -43.7118922861       24.0179403535  W2        21929           0.0000000000
     65732     21911  TIP3      H1            -52.0204066405      -43.3596422861       24.5849103535  W2        21929           0.0000000000
     65733     21911  TIP3      H2            -50.8115466405      -42.9489322861       23.7713703535  W2        21929           0.0000000000
     65734     21912  TIP3      OH2           -43.5028266405      -51.0495122861       34.2968403535  W2        21930           0.0000000000
     65735     21912  TIP3      H1            -42.8040366405      -50.9756422861       34.9468103535  W2        21930           0.0000000000
     65736     21912  TIP3      H2            -43.8836866405      -51.9140122861       34.4511303535  W2        21930           0.0000000000
     65737     21913  TIP3      OH2           -42.7183366405      -51.3973422861       25.3940703535  W2        21931           0.0000000000
     65738     21913  TIP3      H1            -42.4985066405      -50.9258022861       24.5906103535  W2        21931           0.0000000000
     65739     21913  TIP3      H2            -42.1599366405      -51.0030822861       26.0641303535  W2        21931           0.0000000000
     65740     21914  TIP3      OH2           -45.0497266405      -39.2668622861       24.2568203535  W2        21932           0.0000000000
     65741     21914  TIP3      H1            -45.8661166405      -38.7698922861       24.3092503535  W2        21932           0.0000000000
     65742     21914  TIP3      H2            -44.5200966405      -38.7915122861       23.6167003535  W2        21932           0.0000000000
     65743     21915  TIP3      OH2           -45.5183466405      -49.6694622861       26.2289103535  W2        21933           0.0000000000
     65744     21915  TIP3      H1            -44.7060866405      -49.1651422861       26.2750803535  W2        21933           0.0000000000
     65745     21915  TIP3      H2            -45.7630466405      -49.8144922861       27.1428703535  W2        21933           0.0000000000
     65746     21916  TIP3      OH2           -44.9827066405      -48.6831922861       35.4135703535  W2        21934           0.0000000000
     65747     21916  TIP3      H1            -44.8636766405      -48.1096522861       36.1706103535  W2        21934           0.0000000000
     65748     21916  TIP3      H2            -44.3272466405      -49.3712522861       35.5283503535  W2        21934           0.0000000000
     65749     21917  TIP3      OH2           -44.6346766405      -52.5881622861       27.1670203535  W2        21935           0.0000000000
     65750     21917  TIP3      H1            -44.9813266405      -51.9711022861       27.8114503535  W2        21935           0.0000000000
     65751     21917  TIP3      H2            -43.9759866405      -52.0875922861       26.6855703535  W2        21935           0.0000000000
     65752     21918  TIP3      OH2           -47.7114166405      -38.2231422861       24.2385103535  W2        21936           0.0000000000
     65753     21918  TIP3      H1            -47.5505466405      -37.4233922861       23.7377703535  W2        21936           0.0000000000
     65754     21918  TIP3      H2            -47.9086366405      -37.9165422861       25.1235703535  W2        21936           0.0000000000
     65755     21919  TIP3      OH2           -48.9769766405      -51.5252222861       23.8542703535  W2        21937           0.0000000000
     65756     21919  TIP3      H1            -49.0604966405      -50.6369122861       24.2009103535  W2        21937           0.0000000000
     65757     21919  TIP3      H2            -48.0869466405      -51.7905522861       24.0859503535  W2        21937           0.0000000000
     65758     21920  TIP3      OH2           -40.1760266405      -47.0260622861       30.3442703535  W2        21939           0.0000000000
     65759     21920  TIP3      H1            -40.9735866405      -47.4410422861       30.0157703535  W2        21939           0.0000000000
     65760     21920  TIP3      H2            -39.7309166405      -47.7166922861       30.8353203535  W2        21939           0.0000000000
     65761     21921  TIP3      OH2           -50.7184466405      -41.0980022861       22.9147203535  W2        21940           0.0000000000
     65762     21921  TIP3      H1            -50.1262966405      -40.3985222861       23.1909603535  W2        21940           0.0000000000
     65763     21921  TIP3      H2            -50.2591466405      -41.5310522861       22.1951803535  W2        21940           0.0000000000
     65764     21922  TIP3      OH2           -52.4025266405      -48.4337022861       22.0306603535  W2        21941           0.0000000000
     65765     21922  TIP3      H1            -52.4472666405      -47.4943922861       22.2093603535  W2        21941           0.0000000000
     65766     21922  TIP3      H2            -53.2902066405      -48.6692122861       21.7608703535  W2        21941           0.0000000000
     65767     21923  TIP3      OH2           -39.0895666405      -37.7698122861       31.9666203535  W2        21942           0.0000000000
     65768     21923  TIP3      H1            -39.2451366405      -37.0913722861       31.3095503535  W2        21942           0.0000000000
     65769     21923  TIP3      H2            -38.1569266405      -37.6978822861       32.1696803535  W2        21942           0.0000000000
     65770     21924  TIP3      OH2           -51.5943266405      -53.6520422861       30.7037603535  W2        21943           0.0000000000
     65771     21924  TIP3      H1            -51.8233466405      -53.5927922861       29.7762603535  W2        21943           0.0000000000
     65772     21924  TIP3      H2            -52.0369866405      -54.4434922861       31.0101703535  W2        21943           0.0000000000
     65773     21925  TIP3      OH2           -52.6639966405      -39.7113322861       26.8643403535  W2        21944           0.0000000000
     65774     21925  TIP3      H1            -53.4961366405      -39.2390622861       26.8914803535  W2        21944           0.0000000000
     65775     21925  TIP3      H2            -52.1181666405      -39.2015722861       26.2656503535  W2        21944           0.0000000000
     65776     21926  TIP3      OH2           -44.6863266405      -38.6714622861       21.1897403535  W2        21947           0.0000000000
     65777     21926  TIP3      H1            -45.3302266405      -39.3026022861       21.5111103535  W2        21947           0.0000000000
     65778     21926  TIP3      H2            -43.9244966405      -39.2026622861       20.9580903535  W2        21947           0.0000000000
     65779     21927  TIP3      OH2           -40.0820366405      -38.8544722861       21.4235403535  W2        21949           0.0000000000
     65780     21927  TIP3      H1            -39.7989966405      -39.6489522861       21.8762303535  W2        21949           0.0000000000
     65781     21927  TIP3      H2            -39.3422466405      -38.6213722861       20.8626503535  W2        21949           0.0000000000
     65782     21928  TIP3      OH2           -49.1273066405      -42.9449822861       21.2810303535  W2        21951           0.0000000000
     65783     21928  TIP3      H1            -49.0628966405      -43.7390222861       21.8116703535  W2        21951           0.0000000000
     65784     21928  TIP3      H2            -48.4743866405      -43.0637022861       20.5912303535  W2        21951           0.0000000000
     65785     21929  TIP3      OH2           -43.7749666405      -41.8978122861       21.0168303535  W2        21953           0.0000000000
     65786     21929  TIP3      H1            -44.0435566405      -41.7176022861       21.9177203535  W2        21953           0.0000000000
     65787     21929  TIP3      H2            -43.9814066405      -42.8231922861       20.8854103535  W2        21953           0.0000000000
     65788     21930  TIP3      OH2           -47.9779266405      -44.9723622861       23.5868303535  W2        21956           0.0000000000
     65789     21930  TIP3      H1            -48.4377266405      -45.4565322861       24.2726803535  W2        21956           0.0000000000
     65790     21930  TIP3      H2            -47.7230566405      -45.6408222861       22.9508803535  W2        21956           0.0000000000
     65791     21931  TIP3      OH2           -46.9068866405      -46.7291822861       21.8491503535  W2        21958           0.0000000000
     65792     21931  TIP3      H1            -47.0873866405      -46.8840622861       20.9219803535  W2        21958           0.0000000000
     65793     21931  TIP3      H2            -45.9568366405      -46.6213122861       21.8939403535  W2        21958           0.0000000000
     65794     21932  TIP3      OH2           -37.5170566405      -44.3747622861       21.2949603535  W2        21960           0.0000000000
     65795     21932  TIP3      H1            -37.7905766405      -44.7992122861       20.4817903535  W2        21960           0.0000000000
     65796     21932  TIP3      H2            -37.4776466405      -43.4433122861       21.0780003535  W2        21960           0.0000000000
     65797     21933  TIP3      OH2           -47.9370566405      -51.3549922861       34.5178403535  W2        21962           0.0000000000
     65798     21933  TIP3      H1            -47.4013066405      -50.9033222861       33.8657703535  W2        21962           0.0000000000
     65799     21933  TIP3      H2            -48.7890966405      -51.4630122861       34.0952503535  W2        21962           0.0000000000
     65800     21934  TIP3      OH2           -46.3552166405      -45.9153722861       34.7573603535  W2        21963           0.0000000000
     65801     21934  TIP3      H1            -45.6047366405      -46.0716222861       34.1841403535  W2        21963           0.0000000000
     65802     21934  TIP3      H2            -46.6943866405      -45.0637122861       34.4819103535  W2        21963           0.0000000000
     65803     21935  TIP3      OH2           -47.1315066405      -53.8984222861       34.9492003535  W2        21967           0.0000000000
     65804     21935  TIP3      H1            -47.2295466405      -52.9521022861       34.8438203535  W2        21967           0.0000000000
     65805     21935  TIP3      H2            -47.8738866405      -54.2710422861       34.4735503535  W2        21967           0.0000000000
     65806     21936  TIP3      OH2           -47.0097166405      -36.0388122861       22.8505103535  W2        21974           0.0000000000
     65807     21936  TIP3      H1            -46.0766466405      -35.8809422861       22.9943503535  W2        21974           0.0000000000
     65808     21936  TIP3      H2            -47.2738366405      -35.3635122861       22.2256603535  W2        21974           0.0000000000
     65809     21937  TIP3      OH2           -53.4412266405      -41.4024322861       22.3333203535  W2        21975           0.0000000000
     65810     21937  TIP3      H1            -52.5273066405      -41.3235422861       22.6067103535  W2        21975           0.0000000000
     65811     21937  TIP3      H2            -53.4339166405      -42.0894722861       21.6668803535  W2        21975           0.0000000000
     65812     21938  TIP3      OH2           -54.7921666405      -36.0095822861       27.4107103535  W2        21976           0.0000000000
     65813     21938  TIP3      H1            -55.4394566405      -36.4714122861       26.8778303535  W2        21976           0.0000000000
     65814     21938  TIP3      H2            -54.4377066405      -36.6812522861       27.9933303535  W2        21976           0.0000000000
     65815     21939  TIP3      OH2           -53.9222466405      -37.9288822861       29.2153303535  W2        21977           0.0000000000
     65816     21939  TIP3      H1            -54.2565666405      -38.8091522861       29.3873503535  W2        21977           0.0000000000
     65817     21939  TIP3      H2            -53.7000066405      -37.5833822861       30.0798903535  W2        21977           0.0000000000
     65818     21940  TIP3      OH2           -36.3737666405      -37.1192422861       32.1958103535  W2        21978           0.0000000000
     65819     21940  TIP3      H1            -36.3950966405      -36.9344022861       33.1347503535  W2        21978           0.0000000000
     65820     21940  TIP3      H2            -35.6831466405      -36.5508422861       31.8549503535  W2        21978           0.0000000000
     65821     21941  TIP3      OH2           -36.8104766405      -37.5521322861       35.1177203535  W2        21979           0.0000000000
     65822     21941  TIP3      H1            -37.2976066405      -38.2877222861       34.7464603535  W2        21979           0.0000000000
     65823     21941  TIP3      H2            -36.2612066405      -37.9457422861       35.7956603535  W2        21979           0.0000000000
     65824     21942  TIP3      OH2           -37.0587766405      -43.5059522861       25.2700003535  W2        21981           0.0000000000
     65825     21942  TIP3      H1            -36.2086366405      -43.0848622861       25.3971603535  W2        21981           0.0000000000
     65826     21942  TIP3      H2            -37.0532666405      -44.2459422861       25.8771403535  W2        21981           0.0000000000
     65827     21943  TIP3      OH2           -36.6642166405      -45.4522122861       27.0935703535  W2        21982           0.0000000000
     65828     21943  TIP3      H1            -37.3907566405      -45.9319522861       27.4913303535  W2        21982           0.0000000000
     65829     21943  TIP3      H2            -36.0828866405      -45.2467422861       27.8257303535  W2        21982           0.0000000000
     65830     21944  TIP3      OH2           -36.9050966405      -42.6674622861       32.0413303535  W2        21983           0.0000000000
     65831     21944  TIP3      H1            -36.0716766405      -43.0454622861       31.7606903535  W2        21983           0.0000000000
     65832     21944  TIP3      H2            -36.7930666405      -41.7243422861       31.9222403535  W2        21983           0.0000000000
     65833     21945  TIP3      OH2           -38.4188666405      -39.7897122861       34.3481703535  W2        21984           0.0000000000
     65834     21945  TIP3      H1            -39.0663366405      -39.4645622861       34.9736903535  W2        21984           0.0000000000
     65835     21945  TIP3      H2            -38.9364666405      -40.2299422861       33.6740003535  W2        21984           0.0000000000
     65836     21946  TIP3      OH2           -36.3959066405      -45.5513622861       23.4847003535  W2        21985           0.0000000000
     65837     21946  TIP3      H1            -36.9177966405      -45.1949522861       22.7657903535  W2        21985           0.0000000000
     65838     21946  TIP3      H2            -36.4289866405      -44.8765822861       24.1627903535  W2        21985           0.0000000000
     65839     21947  TIP3      OH2           -38.0470066405      -48.3118022861       22.0354103535  W2        21986           0.0000000000
     65840     21947  TIP3      H1            -37.9505666405      -47.6451022861       21.3553803535  W2        21986           0.0000000000
     65841     21947  TIP3      H2            -38.1870466405      -49.1271722861       21.5539603535  W2        21986           0.0000000000
     65842     21948  TIP3      OH2           -38.8775366405      -46.9315622861       27.6564403535  W2        21987           0.0000000000
     65843     21948  TIP3      H1            -39.0276566405      -47.8767022861       27.6362203535  W2        21987           0.0000000000
     65844     21948  TIP3      H2            -39.2310866405      -46.6504222861       28.5003503535  W2        21987           0.0000000000
     65845     21949  TIP3      OH2           -53.8422966405      -44.8533422861       31.6668203535  W2        21988           0.0000000000
     65846     21949  TIP3      H1            -53.6580066405      -44.9351722861       30.7311103535  W2        21988           0.0000000000
     65847     21949  TIP3      H2            -52.9930066405      -44.9776422861       32.0904603535  W2        21988           0.0000000000
     65848     21950  TIP3      OH2           -38.7996266405      -50.9038222861       21.1529603535  W2        21991           0.0000000000
     65849     21950  TIP3      H1            -38.1890466405      -51.2751422861       21.7897803535  W2        21991           0.0000000000
     65850     21950  TIP3      H2            -39.6364766405      -51.3251322861       21.3489603535  W2        21991           0.0000000000
     65851     21951  TIP3      OH2           -39.1670566405      -49.3489822861       26.1189503535  W2        21992           0.0000000000
     65852     21951  TIP3      H1            -38.8873466405      -50.2559422861       26.2431203535  W2        21992           0.0000000000
     65853     21951  TIP3      H2            -38.4078866405      -48.9148322861       25.7298703535  W2        21992           0.0000000000
     65854     21952  TIP3      OH2           -38.5552266405      -48.7672422861       31.5548403535  W2        21993           0.0000000000
     65855     21952  TIP3      H1            -37.6224266405      -48.5552522861       31.5204403535  W2        21993           0.0000000000
     65856     21952  TIP3      H2            -38.7904766405      -48.6660322861       32.4771403535  W2        21993           0.0000000000
     65857     21953  TIP3      OH2           -38.5260366405      -48.0307122861       34.3307803535  W2        21994           0.0000000000
     65858     21953  TIP3      H1            -39.3689066405      -47.7626722861       34.6967603535  W2        21994           0.0000000000
     65859     21953  TIP3      H2            -38.0836066405      -47.2085222861       34.1198903535  W2        21994           0.0000000000
     65860     21954  TIP3      OH2           -38.5535766405      -52.0860522861       26.1671503535  W2        21997           0.0000000000
     65861     21954  TIP3      H1            -38.3710766405      -52.5349022861       26.9926503535  W2        21997           0.0000000000
     65862     21954  TIP3      H2            -39.1532866405      -52.6706122861       25.7036103535  W2        21997           0.0000000000
     65863     21955  TIP3      OH2           -53.0235666405      -51.2706822861       30.6989903535  W2        21998           0.0000000000
     65864     21955  TIP3      H1            -52.5784066405      -52.0624322861       31.0009603535  W2        21998           0.0000000000
     65865     21955  TIP3      H2            -52.5572666405      -50.5541622861       31.1295503535  W2        21998           0.0000000000
     65866     21956  TIP3      OH2           -54.7195366405      -48.2713822861       31.7680103535  W2        21999           0.0000000000
     65867     21956  TIP3      H1            -54.2275566405      -48.4923322861       30.9772103535  W2        21999           0.0000000000
     65868     21956  TIP3      H2            -54.3574466405      -47.4310422861       32.0489603535  W2        21999           0.0000000000
     65869     21957  TIP3      OH2           -36.6869566405      -52.0182422861       22.6951803535  W2        22001           0.0000000000
     65870     21957  TIP3      H1            -36.2746966405      -52.7396722861       22.2199803535  W2        22001           0.0000000000
     65871     21957  TIP3      H2            -36.0053066405      -51.3487822861       22.7536103535  W2        22001           0.0000000000
     65872     21958  TIP3      OH2           -54.4058866405      -52.0134722861       25.8222503535  W2        22002           0.0000000000
     65873     21958  TIP3      H1            -55.3310466405      -51.8048122861       25.6928003535  W2        22002           0.0000000000
     65874     21958  TIP3      H2            -53.9518966405      -51.5293922861       25.1324803535  W2        22002           0.0000000000
     65875     21959  TIP3      OH2           -39.6351666405      -37.0293022861       27.7679903535  W2        22003           0.0000000000
     65876     21959  TIP3      H1            -38.9828766405      -37.3770922861       27.1599003535  W2        22003           0.0000000000
     65877     21959  TIP3      H2            -39.1247866405      -36.5409822861       28.4139603535  W2        22003           0.0000000000
     65878     21960  TIP3      OH2           -54.4423466405      -53.2755722861       34.1665003535  W2        22004           0.0000000000
     65879     21960  TIP3      H1            -55.1072966405      -53.5215422861       34.8095903535  W2        22004           0.0000000000
     65880     21960  TIP3      H2            -54.8852166405      -52.6535322861       33.5893003535  W2        22004           0.0000000000
     65881     21961  TIP3      OH2           -49.2961266405      -39.1260422861       34.5694803535  W2        22006           0.0000000000
     65882     21961  TIP3      H1            -49.7210166405      -38.3161922861       34.2869403535  W2        22006           0.0000000000
     65883     21961  TIP3      H2            -48.3918466405      -39.0406322861       34.2674603535  W2        22006           0.0000000000
     65884     21962  TIP3      OH2           -51.8944566405      -35.8696522861       34.6170103535  W2        22010           0.0000000000
     65885     21962  TIP3      H1            -52.6148166405      -35.4295522861       34.1657803535  W2        22010           0.0000000000
     65886     21962  TIP3      H2            -52.2600566405      -36.1201822861       35.4654103535  W2        22010           0.0000000000
     65887     21963  TIP3      OH2           -49.4271966405      -36.2692622861       33.6467303535  W2        22011           0.0000000000
     65888     21963  TIP3      H1            -50.2919766405      -36.1974122861       34.0507403535  W2        22011           0.0000000000
     65889     21963  TIP3      H2            -49.4822966405      -35.7225322861       32.8629803535  W2        22011           0.0000000000
     65890     21964  TIP3      OH2           -44.7166366405      -36.3813722861       32.8223303535  W2        22012           0.0000000000
     65891     21964  TIP3      H1            -45.1732366405      -35.8524022861       32.1681703535  W2        22012           0.0000000000
     65892     21964  TIP3      H2            -44.5538366405      -35.7782322861       33.5475603535  W2        22012           0.0000000000
     65893     21965  TIP3      OH2           -42.3890066405      -37.5034122861       33.7673603535  W2        22013           0.0000000000
     65894     21965  TIP3      H1            -43.2936366405      -37.3383922861       33.5015703535  W2        22013           0.0000000000
     65895     21965  TIP3      H2            -41.9601466405      -36.6501922861       33.7017003535  W2        22013           0.0000000000
     65896     21966  TIP3      OH2           -39.7848166405      -35.9335022861       34.0621403535  W2        22014           0.0000000000
     65897     21966  TIP3      H1            -39.9666166405      -35.0176122861       33.8516303535  W2        22014           0.0000000000
     65898     21966  TIP3      H2            -39.6080366405      -36.3437922861       33.2156003535  W2        22014           0.0000000000
     65899     21967  TIP3      OH2           -52.4796466405      -37.2464022861       31.5271903535  W2        22015           0.0000000000
     65900     21967  TIP3      H1            -52.4980466405      -37.6718922861       32.3844203535  W2        22015           0.0000000000
     65901     21967  TIP3      H2            -51.6748566405      -37.5649022861       31.1184103535  W2        22015           0.0000000000
     65902     21968  TIP3      OH2           -50.3383366405      -38.5365322861       30.1821803535  W2        22016           0.0000000000
     65903     21968  TIP3      H1            -50.5572666405      -39.4527922861       30.3517803535  W2        22016           0.0000000000
     65904     21968  TIP3      H2            -49.5141166405      -38.3964922861       30.6483203535  W2        22016           0.0000000000
     65905     21969  TIP3      OH2           -47.8010866405      -38.0666022861       31.0309803535  W2        22017           0.0000000000
     65906     21969  TIP3      H1            -47.5885166405      -38.9547022861       30.7440703535  W2        22017           0.0000000000
     65907     21969  TIP3      H2            -47.7365766405      -38.1008322861       31.9853803535  W2        22017           0.0000000000
     65908     21970  TIP3      OH2           -44.2927166405      -52.4025422861       30.1753103535  W2        22018           0.0000000000
     65909     21970  TIP3      H1            -44.9670366405      -53.0319822861       30.4308903535  W2        22018           0.0000000000
     65910     21970  TIP3      H2            -43.7287966405      -52.8866522861       29.5721003535  W2        22018           0.0000000000
     65911     21971  TIP3      OH2           -39.1499966405      -54.2951422861       30.2880203535  W2        22019           0.0000000000
     65912     21971  TIP3      H1            -38.5462366405      -53.7476022861       29.7861203535  W2        22019           0.0000000000
     65913     21971  TIP3      H2            -40.0197966405      -53.9761022861       30.0474303535  W2        22019           0.0000000000
     65914     21972  TIP3      OH2           -37.4229566405      -53.1562722861       28.6211103535  W2        22020           0.0000000000
     65915     21972  TIP3      H1            -36.8112066405      -53.6707022861       28.0944703535  W2        22020           0.0000000000
     65916     21972  TIP3      H2            -37.0406166405      -52.2790622861       28.6445503535  W2        22020           0.0000000000
     65917     21973  TIP3      OH2           -51.9659666405      -53.7685122861       27.9973003535  W2        22021           0.0000000000
     65918     21973  TIP3      H1            -52.7429866405      -54.0030222861       27.4898903535  W2        22021           0.0000000000
     65919     21973  TIP3      H2            -51.4356066405      -54.5653022861       28.0061003535  W2        22021           0.0000000000
     65920     21974  TIP3      OH2           -53.1296266405      -53.9707022861       23.8009103535  W2        22022           0.0000000000
     65921     21974  TIP3      H1            -52.6905566405      -53.3596522861       23.2092603535  W2        22022           0.0000000000
     65922     21974  TIP3      H2            -53.7633866405      -53.4322922861       24.2749103535  W2        22022           0.0000000000
     65923     21975  TIP3      OH2           -47.3867066405      -53.8418022861       27.8106103535  W2        22023           0.0000000000
     65924     21975  TIP3      H1            -46.5123666405      -53.4533722861       27.7810403535  W2        22023           0.0000000000
     65925     21975  TIP3      H2            -47.5226266405      -54.0570222861       28.7333303535  W2        22023           0.0000000000
     65926     21976  TIP3      OH2           -41.8298666405      -53.8118222861       29.4597803535  W2        22024           0.0000000000
     65927     21976  TIP3      H1            -41.7537066405      -53.7166622861       28.5103803535  W2        22024           0.0000000000
     65928     21976  TIP3      H2            -42.1049466405      -54.7195322861       29.5886903535  W2        22024           0.0000000000
     65929     21977  TIP3      OH2           -40.4766066405      -53.7860422861       25.1522803535  W2        22025           0.0000000000
     65930     21977  TIP3      H1            -41.1794966405      -53.1711222861       24.9424203535  W2        22025           0.0000000000
     65931     21977  TIP3      H2            -40.9214666405      -54.6233722861       25.2833703535  W2        22025           0.0000000000
     65932     21978  TIP3      OH2           -53.2286766405      -38.0224822861       24.6984203535  W2        22026           0.0000000000
     65933     21978  TIP3      H1            -53.9136866405      -38.0605922861       24.0309303535  W2        22026           0.0000000000
     65934     21978  TIP3      H2            -53.2249566405      -37.1097222861       24.9866303535  W2        22026           0.0000000000
     65935     21979  TIP3      OH2           -51.2687166405      -52.0545522861       22.2433203535  W2        22027           0.0000000000
     65936     21979  TIP3      H1            -50.7773766405      -52.6843122861       21.7158703535  W2        22027           0.0000000000
     65937     21979  TIP3      H2            -50.6450866405      -51.7586122861       22.9064403535  W2        22027           0.0000000000
     65938     21980  TIP3      OH2           -46.2427066405      -51.7614022861       24.7003703535  W2        22028           0.0000000000
     65939     21980  TIP3      H1            -46.0645766405      -52.4080822861       25.3832303535  W2        22028           0.0000000000
     65940     21980  TIP3      H2            -46.2960866405      -50.9276322861       25.1674803535  W2        22028           0.0000000000
     65941     21981  TIP3      OH2           -44.3643266405      -36.8129922861       23.0960403535  W2        22029           0.0000000000
     65942     21981  TIP3      H1            -43.4983066405      -36.4462522861       22.9178603535  W2        22029           0.0000000000
     65943     21981  TIP3      H2            -44.6110466405      -37.2521922861       22.2821203535  W2        22029           0.0000000000
     65944     21982  TIP3      OH2           -37.6553666405      -37.2499622861       25.7751503535  W2        22030           0.0000000000
     65945     21982  TIP3      H1            -37.8496566405      -37.9977522861       25.2101103535  W2        22030           0.0000000000
     65946     21982  TIP3      H2            -37.6943566405      -36.4919522861       25.1919403535  W2        22030           0.0000000000
     65947     21983  TIP3      OH2           -51.4105566405      -37.1024022861       21.7236303535  W2        22033           0.0000000000
     65948     21983  TIP3      H1            -51.6780966405      -36.8161122861       22.5969403535  W2        22033           0.0000000000
     65949     21983  TIP3      H2            -50.6392966405      -37.6484822861       21.8758803535  W2        22033           0.0000000000
     65950     21984  TIP3      OH2           -24.0317066405      -44.6122822861       27.9560503535  W2        22036           0.0000000000
     65951     21984  TIP3      H1            -23.9425966405      -43.6684622861       27.8237603535  W2        22036           0.0000000000
     65952     21984  TIP3      H2            -24.6699466405      -44.8876422861       27.2979903535  W2        22036           0.0000000000
     65953     21985  TIP3      OH2           -25.0985766405      -45.3572122861       31.3748703535  W2        22037           0.0000000000
     65954     21985  TIP3      H1            -25.1368266405      -46.0035822861       32.0798303535  W2        22037           0.0000000000
     65955     21985  TIP3      H2            -25.4209266405      -45.8237722861       30.6037403535  W2        22037           0.0000000000
     65956     21986  TIP3      OH2           -32.7300766405      -45.7430022861       32.9678603535  W2        22038           0.0000000000
     65957     21986  TIP3      H1            -32.6888666405      -46.3686722861       33.6911003535  W2        22038           0.0000000000
     65958     21986  TIP3      H2            -32.0273066405      -45.1191422861       33.1499003535  W2        22038           0.0000000000
     65959     21987  TIP3      OH2           -21.3925566405      -42.4181722861       29.6763803535  W2        22039           0.0000000000
     65960     21987  TIP3      H1            -21.8332866405      -43.1385722861       30.1269403535  W2        22039           0.0000000000
     65961     21987  TIP3      H2            -21.4055866405      -41.6974522861       30.3061503535  W2        22039           0.0000000000
     65962     21988  TIP3      OH2           -31.8067666405      -41.2931122861       31.5027703535  W2        22040           0.0000000000
     65963     21988  TIP3      H1            -32.1762466405      -42.0950622861       31.1332003535  W2        22040           0.0000000000
     65964     21988  TIP3      H2            -30.8656566405      -41.4616222861       31.5491103535  W2        22040           0.0000000000
     65965     21989  TIP3      OH2           -35.1967166405      -47.6328522861       26.8956503535  W2        22041           0.0000000000
     65966     21989  TIP3      H1            -35.6443766405      -46.7869822861       26.8773003535  W2        22041           0.0000000000
     65967     21989  TIP3      H2            -35.7575966405      -48.2124322861       26.3801603535  W2        22041           0.0000000000
     65968     21990  TIP3      OH2           -34.4861066405      -45.4708922861       29.0214503535  W2        22042           0.0000000000
     65969     21990  TIP3      H1            -34.2727566405      -46.2407322861       29.5487503535  W2        22042           0.0000000000
     65970     21990  TIP3      H2            -33.7483466405      -45.3812222861       28.4182103535  W2        22042           0.0000000000
     65971     21991  TIP3      OH2           -24.2810066405      -37.3140022861       29.8884203535  W2        22043           0.0000000000
     65972     21991  TIP3      H1            -23.6613666405      -37.9905322861       29.6153403535  W2        22043           0.0000000000
     65973     21991  TIP3      H2            -24.4892666405      -37.5319222861       30.7969103535  W2        22043           0.0000000000
     65974     21992  TIP3      OH2           -26.7091366405      -42.9250722861       31.7809703535  W2        22044           0.0000000000
     65975     21992  TIP3      H1            -26.4053466405      -43.6109322861       31.1863803535  W2        22044           0.0000000000
     65976     21992  TIP3      H2            -25.9877366405      -42.8062022861       32.3987703535  W2        22044           0.0000000000
     65977     21993  TIP3      OH2           -18.0461566405      -51.3235422861       32.6415903535  W2        22045           0.0000000000
     65978     21993  TIP3      H1            -17.9969366405      -50.7134222861       33.3775003535  W2        22045           0.0000000000
     65979     21993  TIP3      H2            -17.6206466405      -50.8624522861       31.9187003535  W2        22045           0.0000000000
     65980     21994  TIP3      OH2           -23.5684366405      -48.5308322861       32.1084503535  W2        22046           0.0000000000
     65981     21994  TIP3      H1            -23.4258466405      -49.4771322861       32.1286103535  W2        22046           0.0000000000
     65982     21994  TIP3      H2            -23.6745366405      -48.3238522861       31.1799403535  W2        22046           0.0000000000
     65983     21995  TIP3      OH2           -30.4136066405      -50.4291922861       29.3809303535  W2        22047           0.0000000000
     65984     21995  TIP3      H1            -30.3704966405      -49.5693422861       28.9625603535  W2        22047           0.0000000000
     65985     21995  TIP3      H2            -30.8711966405      -50.9817222861       28.7472503535  W2        22047           0.0000000000
     65986     21996  TIP3      OH2           -22.6913366405      -50.2986322861       27.7817603535  W2        22048           0.0000000000
     65987     21996  TIP3      H1            -22.0449066405      -50.6273122861       28.4065203535  W2        22048           0.0000000000
     65988     21996  TIP3      H2            -22.1813966405      -49.7807322861       27.1589003535  W2        22048           0.0000000000
     65989     21997  TIP3      OH2           -33.7934566405      -48.0326122861       30.1430703535  W2        22049           0.0000000000
     65990     21997  TIP3      H1            -33.1397966405      -48.5824422861       30.5750803535  W2        22049           0.0000000000
     65991     21997  TIP3      H2            -33.7695266405      -48.3067122861       29.2262703535  W2        22049           0.0000000000
     65992     21998  TIP3      OH2           -28.6370066405      -46.4824822861       29.3582203535  W2        22050           0.0000000000
     65993     21998  TIP3      H1            -28.0209066405      -47.0089422861       29.8676203535  W2        22050           0.0000000000
     65994     21998  TIP3      H2            -29.2231266405      -47.1226122861       28.9545803535  W2        22050           0.0000000000
     65995     21999  TIP3      OH2           -17.6546966405      -49.8456222861       34.8775703535  W2        22051           0.0000000000
     65996     21999  TIP3      H1            -18.3432366405      -49.1875522861       34.7822303535  W2        22051           0.0000000000
     65997     21999  TIP3      H2            -17.6392366405      -50.0428322861       35.8141103535  W2        22051           0.0000000000
     65998     22000  TIP3      OH2           -31.6034166405      -51.5113522861       33.4550103535  W2        22052           0.0000000000
     65999     22000  TIP3      H1            -31.8222466405      -50.9812922861       32.6886103535  W2        22052           0.0000000000
     66000     22000  TIP3      H2            -32.2713266405      -51.2848022861       34.1021503535  W2        22052           0.0000000000
     66001     22001  TIP3      OH2           -24.2344366405      -42.0112422861       26.9989203535  W2        22053           0.0000000000
     66002     22001  TIP3      H1            -24.5299266405      -42.3340122861       26.1476103535  W2        22053           0.0000000000
     66003     22001  TIP3      H2            -24.5586566405      -41.1115722861       27.0401803535  W2        22053           0.0000000000
     66004     22002  TIP3      OH2           -29.0342766405      -43.8357822861       33.7423803535  W2        22054           0.0000000000
     66005     22002  TIP3      H1            -29.7743666405      -43.2376322861       33.8459003535  W2        22054           0.0000000000
     66006     22002  TIP3      H2            -28.3203266405      -43.2818222861       33.4267403535  W2        22054           0.0000000000
     66007     22003  TIP3      OH2           -20.9274966405      -51.0077022861       29.7623503535  W2        22055           0.0000000000
     66008     22003  TIP3      H1            -21.1426966405      -51.7733622861       30.2949503535  W2        22055           0.0000000000
     66009     22003  TIP3      H2            -20.2717566405      -50.5352422861       30.2752003535  W2        22055           0.0000000000
     66010     22004  TIP3      OH2           -32.0096866405      -49.6191722861       31.4072303535  W2        22056           0.0000000000
     66011     22004  TIP3      H1            -31.3960566405      -48.9864122861       31.7804703535  W2        22056           0.0000000000
     66012     22004  TIP3      H2            -31.4976166405      -50.0916722861       30.7509203535  W2        22056           0.0000000000
     66013     22005  TIP3      OH2           -30.6268466405      -41.8714822861       34.5295303535  W2        22057           0.0000000000
     66014     22005  TIP3      H1            -30.6320866405      -40.9921322861       34.1514603535  W2        22057           0.0000000000
     66015     22005  TIP3      H2            -31.4804366405      -41.9550722861       34.9545203535  W2        22057           0.0000000000
     66016     22006  TIP3      OH2           -34.5057566405      -42.2006922861       25.3114603535  W2        22058           0.0000000000
     66017     22006  TIP3      H1            -34.7776666405      -41.9715922861       24.4227503535  W2        22058           0.0000000000
     66018     22006  TIP3      H2            -34.4601866405      -41.3628122861       25.7719903535  W2        22058           0.0000000000
     66019     22007  TIP3      OH2           -20.8807866405      -40.5791022861       32.0243103535  W2        22059           0.0000000000
     66020     22007  TIP3      H1            -21.8224166405      -40.5207122861       32.1860003535  W2        22059           0.0000000000
     66021     22007  TIP3      H2            -20.6041766405      -39.6730522861       31.8872803535  W2        22059           0.0000000000
     66022     22008  TIP3      OH2           -20.5800866405      -52.2925722861       33.4417003535  W2        22060           0.0000000000
     66023     22008  TIP3      H1            -21.3161666405      -51.6818622861       33.4038303535  W2        22060           0.0000000000
     66024     22008  TIP3      H2            -19.8966866405      -51.8776722861       32.9153403535  W2        22060           0.0000000000
     66025     22009  TIP3      OH2           -27.5769466405      -54.2058422861       30.9075003535  W2        22061           0.0000000000
     66026     22009  TIP3      H1            -27.6945266405      -55.1542422861       30.8533303535  W2        22061           0.0000000000
     66027     22009  TIP3      H2            -28.4319366405      -53.8732322861       31.1806103535  W2        22061           0.0000000000
     66028     22010  TIP3      OH2           -22.6286666405      -38.7977522861       28.6494703535  W2        22062           0.0000000000
     66029     22010  TIP3      H1            -22.2034366405      -39.5049622861       28.1644303535  W2        22062           0.0000000000
     66030     22010  TIP3      H2            -22.3116666405      -37.9964822861       28.2326903535  W2        22062           0.0000000000
     66031     22011  TIP3      OH2           -21.4690166405      -40.8969022861       27.1581303535  W2        22063           0.0000000000
     66032     22011  TIP3      H1            -21.7265366405      -41.5868922861       26.5467203535  W2        22063           0.0000000000
     66033     22011  TIP3      H2            -21.3979366405      -41.3397822861       28.0037203535  W2        22063           0.0000000000
     66034     22012  TIP3      OH2           -25.3104566405      -45.3682822861       25.4080803535  W2        22065           0.0000000000
     66035     22012  TIP3      H1            -26.0219066405      -44.8333122861       25.0561303535  W2        22065           0.0000000000
     66036     22012  TIP3      H2            -24.6194966405      -45.3130722861       24.7479703535  W2        22065           0.0000000000
     66037     22013  TIP3      OH2           -25.2565366405      -46.9108522861       22.4465803535  W2        22066           0.0000000000
     66038     22013  TIP3      H1            -24.5555466405      -46.8881622861       23.0979803535  W2        22066           0.0000000000
     66039     22013  TIP3      H2            -24.9542466405      -47.5388822861       21.7905103535  W2        22066           0.0000000000
     66040     22014  TIP3      OH2           -17.9410666405      -45.9904322861       33.7015203535  W2        22067           0.0000000000
     66041     22014  TIP3      H1            -18.5936566405      -45.2958722861       33.7906103535  W2        22067           0.0000000000
     66042     22014  TIP3      H2            -17.4760366405      -45.7803422861       32.8916803535  W2        22067           0.0000000000
     66043     22015  TIP3      OH2           -21.9046866405      -45.1589522861       26.3596703535  W2        22068           0.0000000000
     66044     22015  TIP3      H1            -22.6365866405      -44.9305822861       26.9327303535  W2        22068           0.0000000000
     66045     22015  TIP3      H2            -21.4574666405      -45.8726822861       26.8144203535  W2        22068           0.0000000000
     66046     22016  TIP3      OH2           -22.0073366405      -46.9846922861       35.4273703535  W2        22069           0.0000000000
     66047     22016  TIP3      H1            -21.9274266405      -46.2212522861       35.9992203535  W2        22069           0.0000000000
     66048     22016  TIP3      H2            -22.6085666405      -46.7054522861       34.7368803535  W2        22069           0.0000000000
     66049     22017  TIP3      OH2           -30.2593166405      -44.5283322861       28.2421703535  W2        22070           0.0000000000
     66050     22017  TIP3      H1            -30.5897966405      -44.8989922861       27.4238703535  W2        22070           0.0000000000
     66051     22017  TIP3      H2            -29.6709066405      -45.1989322861       28.5890003535  W2        22070           0.0000000000
     66052     22018  TIP3      OH2           -28.8925666405      -41.1002722861       30.9233903535  W2        22071           0.0000000000
     66053     22018  TIP3      H1            -28.9874366405      -41.6789622861       30.1668503535  W2        22071           0.0000000000
     66054     22018  TIP3      H2            -28.1632066405      -41.4717022861       31.4196703535  W2        22071           0.0000000000
     66055     22019  TIP3      OH2           -29.8927666405      -45.7597722861       31.8756703535  W2        22072           0.0000000000
     66056     22019  TIP3      H1            -29.3275166405      -45.6383522861       31.1127903535  W2        22072           0.0000000000
     66057     22019  TIP3      H2            -29.5738766405      -45.1222722861       32.5145203535  W2        22072           0.0000000000
     66058     22020  TIP3      OH2           -23.5835466405      -40.2565822861       32.6097203535  W2        22073           0.0000000000
     66059     22020  TIP3      H1            -23.8238866405      -39.5942722861       33.2576403535  W2        22073           0.0000000000
     66060     22020  TIP3      H2            -23.7817266405      -41.0910622861       33.0346803535  W2        22073           0.0000000000
     66061     22021  TIP3      OH2           -23.0337366405      -45.9966622861       24.0447903535  W2        22075           0.0000000000
     66062     22021  TIP3      H1            -22.4541866405      -45.8466322861       24.7916803535  W2        22075           0.0000000000
     66063     22021  TIP3      H2            -22.6197366405      -45.5259222861       23.3214303535  W2        22075           0.0000000000
     66064     22022  TIP3      OH2           -25.3072466405      -39.2598122861       27.4801003535  W2        22077           0.0000000000
     66065     22022  TIP3      H1            -24.8334866405      -38.9641822861       28.2575203535  W2        22077           0.0000000000
     66066     22022  TIP3      H2            -25.8703166405      -38.5216522861       27.2470603535  W2        22077           0.0000000000
     66067     22023  TIP3      OH2           -19.3348966405      -54.2466222861       23.8577603535  W2        22079           0.0000000000
     66068     22023  TIP3      H1            -20.2348266405      -54.1077222861       24.1528203535  W2        22079           0.0000000000
     66069     22023  TIP3      H2            -19.0830566405      -53.4151622861       23.4559303535  W2        22079           0.0000000000
     66070     22024  TIP3      OH2           -31.2690466405      -45.4589022861       25.8314503535  W2        22080           0.0000000000
     66071     22024  TIP3      H1            -31.5609166405      -44.6907322861       25.3405803535  W2        22080           0.0000000000
     66072     22024  TIP3      H2            -31.9435266405      -46.1182822861       25.6685903535  W2        22080           0.0000000000
     66073     22025  TIP3      OH2           -18.1457566405      -39.8803822861       22.2341503535  W2        22081           0.0000000000
     66074     22025  TIP3      H1            -18.0724066405      -38.9413622861       22.4046803535  W2        22081           0.0000000000
     66075     22025  TIP3      H2            -17.2402466405      -40.1855222861       22.1778803535  W2        22081           0.0000000000
     66076     22026  TIP3      OH2           -35.1760366405      -43.0959822861       34.6464303535  W2        22082           0.0000000000
     66077     22026  TIP3      H1            -35.6771966405      -43.1240422861       33.8314003535  W2        22082           0.0000000000
     66078     22026  TIP3      H2            -35.1706666405      -44.0016622861       34.9561603535  W2        22082           0.0000000000
     66079     22027  TIP3      OH2           -35.4257666405      -40.3156022861       31.5304503535  W2        22083           0.0000000000
     66080     22027  TIP3      H1            -34.4797066405      -40.4599022861       31.5114003535  W2        22083           0.0000000000
     66081     22027  TIP3      H2            -35.5381366405      -39.5313222861       32.0675703535  W2        22083           0.0000000000
     66082     22028  TIP3      OH2           -25.8349366405      -36.3033422861       25.8950203535  W2        22086           0.0000000000
     66083     22028  TIP3      H1            -25.9103366405      -36.4246222861       24.9485403535  W2        22086           0.0000000000
     66084     22028  TIP3      H2            -25.8020666405      -35.3540722861       26.0134803535  W2        22086           0.0000000000
     66085     22029  TIP3      OH2           -32.1815566405      -37.5146422861       27.6759203535  W2        22087           0.0000000000
     66086     22029  TIP3      H1            -32.0295166405      -37.8626022861       28.5545703535  W2        22087           0.0000000000
     66087     22029  TIP3      H2            -33.0325166405      -37.8709122861       27.4206403535  W2        22087           0.0000000000
     66088     22030  TIP3      OH2           -22.7333366405      -37.1493222861       22.8972603535  W2        22088           0.0000000000
     66089     22030  TIP3      H1            -22.3584966405      -37.8937122861       22.4265203535  W2        22088           0.0000000000
     66090     22030  TIP3      H2            -22.7289666405      -37.4192622861       23.8155903535  W2        22088           0.0000000000
     66091     22031  TIP3      OH2           -23.0645266405      -37.2236122861       25.6464803535  W2        22089           0.0000000000
     66092     22031  TIP3      H1            -23.9995466405      -37.1234222861       25.8251803535  W2        22089           0.0000000000
     66093     22031  TIP3      H2            -22.7843366405      -37.9330122861       26.2248003535  W2        22089           0.0000000000
     66094     22032  TIP3      OH2           -30.3081866405      -53.3023922861       31.6851303535  W2        22092           0.0000000000
     66095     22032  TIP3      H1            -31.1698166405      -53.3895722861       31.2774203535  W2        22092           0.0000000000
     66096     22032  TIP3      H2            -30.3306166405      -52.4463822861       32.1128903535  W2        22092           0.0000000000
     66097     22033  TIP3      OH2           -25.6454066405      -53.5803522861       35.0598303535  W2        22093           0.0000000000
     66098     22033  TIP3      H1            -25.2250966405      -53.9956422861       35.8128903535  W2        22093           0.0000000000
     66099     22033  TIP3      H2            -26.5784466405      -53.7590222861       35.1770303535  W2        22093           0.0000000000
     66100     22034  TIP3      OH2           -21.5564266405      -44.9638322861       21.6745803535  W2        22095           0.0000000000
     66101     22034  TIP3      H1            -21.5143466405      -45.1864422861       20.7445803535  W2        22095           0.0000000000
     66102     22034  TIP3      H2            -20.7072166405      -44.5651222861       21.8645703535  W2        22095           0.0000000000
     66103     22035  TIP3      OH2           -25.9836766405      -51.0880122861       22.3449103535  W2        22096           0.0000000000
     66104     22035  TIP3      H1            -26.2371966405      -51.0688522861       23.2677203535  W2        22096           0.0000000000
     66105     22035  TIP3      H2            -26.2404666405      -51.9594722861       22.0435303535  W2        22096           0.0000000000
     66106     22036  TIP3      OH2           -30.2171766405      -48.3369422861       32.7801503535  W2        22097           0.0000000000
     66107     22036  TIP3      H1            -30.8589666405      -48.3772122861       33.4891603535  W2        22097           0.0000000000
     66108     22036  TIP3      H2            -30.1799766405      -47.4104722861       32.5424503535  W2        22097           0.0000000000
     66109     22037  TIP3      OH2           -30.2202666405      -48.1159322861       27.6921503535  W2        22098           0.0000000000
     66110     22037  TIP3      H1            -31.1129766405      -48.4563222861       27.6335303535  W2        22098           0.0000000000
     66111     22037  TIP3      H2            -29.7696066405      -48.4928422861       26.9364703535  W2        22098           0.0000000000
     66112     22038  TIP3      OH2           -24.6847166405      -47.6999022861       26.5092303535  W2        22099           0.0000000000
     66113     22038  TIP3      H1            -25.0936866405      -46.8850422861       26.2177103535  W2        22099           0.0000000000
     66114     22038  TIP3      H2            -23.9640966405      -47.8398922861       25.8949403535  W2        22099           0.0000000000
     66115     22039  TIP3      OH2           -23.6799466405      -48.2538622861       29.3232003535  W2        22101           0.0000000000
     66116     22039  TIP3      H1            -23.8754966405      -47.6481822861       28.6082603535  W2        22101           0.0000000000
     66117     22039  TIP3      H2            -23.4986866405      -49.0873422861       28.8888303535  W2        22101           0.0000000000
     66118     22040  TIP3      OH2           -32.4671266405      -48.0165922861       34.6473503535  W2        22102           0.0000000000
     66119     22040  TIP3      H1            -32.5051866405      -47.6164322861       35.5160603535  W2        22102           0.0000000000
     66120     22040  TIP3      H2            -32.9580166405      -48.8333522861       34.7376403535  W2        22102           0.0000000000
     66121     22041  TIP3      OH2           -29.1013866405      -50.6423622861       21.4459503535  W2        22103           0.0000000000
     66122     22041  TIP3      H1            -29.5323166405      -51.0873522861       22.1756903535  W2        22103           0.0000000000
     66123     22041  TIP3      H2            -29.8195166405      -50.2707322861       20.9337003535  W2        22103           0.0000000000
     66124     22042  TIP3      OH2           -35.8590466405      -50.9004122861       28.4978203535  W2        22104           0.0000000000
     66125     22042  TIP3      H1            -35.2282766405      -50.9292022861       29.2172103535  W2        22104           0.0000000000
     66126     22042  TIP3      H2            -35.4096166405      -51.3255422861       27.7674103535  W2        22104           0.0000000000
     66127     22043  TIP3      OH2           -34.5848366405      -50.1542122861       23.9218603535  W2        22105           0.0000000000
     66128     22043  TIP3      H1            -34.1106666405      -49.5632222861       23.3369503535  W2        22105           0.0000000000
     66129     22043  TIP3      H2            -35.3021966405      -49.6239222861       24.2688703535  W2        22105           0.0000000000
     66130     22044  TIP3      OH2           -24.4160266405      -46.6157322861       33.9944403535  W2        22106           0.0000000000
     66131     22044  TIP3      H1            -24.0925466405      -47.2467622861       33.3514903535  W2        22106           0.0000000000
     66132     22044  TIP3      H2            -24.8560966405      -47.1505122861       34.6551803535  W2        22106           0.0000000000
     66133     22045  TIP3      OH2           -27.6387366405      -50.6881822861       28.7785603535  W2        22107           0.0000000000
     66134     22045  TIP3      H1            -28.5496266405      -50.6315022861       29.0671603535  W2        22107           0.0000000000
     66135     22045  TIP3      H2            -27.1334466405      -50.7486322861       29.5892803535  W2        22107           0.0000000000
     66136     22046  TIP3      OH2           -32.8103966405      -49.0595522861       27.6053203535  W2        22108           0.0000000000
     66137     22046  TIP3      H1            -33.6995966405      -48.9600022861       27.2652803535  W2        22108           0.0000000000
     66138     22046  TIP3      H2            -32.5139066405      -49.9012522861       27.2591103535  W2        22108           0.0000000000
     66139     22047  TIP3      OH2           -29.1572166405      -49.0592922861       25.2617803535  W2        22109           0.0000000000
     66140     22047  TIP3      H1            -28.2256666405      -48.9302922861       25.4400903535  W2        22109           0.0000000000
     66141     22047  TIP3      H2            -29.3721866405      -48.3898622861       24.6122503535  W2        22109           0.0000000000
     66142     22048  TIP3      OH2           -23.2335466405      -51.4535522861       32.0427403535  W2        22110           0.0000000000
     66143     22048  TIP3      H1            -23.9103866405      -51.3222422861       32.7067103535  W2        22110           0.0000000000
     66144     22048  TIP3      H2            -23.7190566405      -51.6086022861       31.2325103535  W2        22110           0.0000000000
     66145     22049  TIP3      OH2           -30.4831966405      -47.8650722861       22.8283903535  W2        22111           0.0000000000
     66146     22049  TIP3      H1            -31.0256866405      -48.2446922861       22.1371503535  W2        22111           0.0000000000
     66147     22049  TIP3      H2            -29.6497066405      -47.6706022861       22.3998003535  W2        22111           0.0000000000
     66148     22050  TIP3      OH2           -26.3187666405      -47.9008822861       30.6655203535  W2        22114           0.0000000000
     66149     22050  TIP3      H1            -25.7544266405      -48.4472222861       30.1184803535  W2        22114           0.0000000000
     66150     22050  TIP3      H2            -26.4664266405      -48.4226922861       31.4542803535  W2        22114           0.0000000000
     66151     22051  TIP3      OH2           -31.3167966405      -51.7642722861       27.0840003535  W2        22115           0.0000000000
     66152     22051  TIP3      H1            -31.6338466405      -52.6667422861       27.0485403535  W2        22115           0.0000000000
     66153     22051  TIP3      H2            -30.5353866405      -51.7625322861       26.5311603535  W2        22115           0.0000000000
     66154     22052  TIP3      OH2           -27.6921766405      -49.5122722861       33.0795603535  W2        22116           0.0000000000
     66155     22052  TIP3      H1            -28.5276466405      -49.0583222861       33.1898003535  W2        22116           0.0000000000
     66156     22052  TIP3      H2            -27.1681166405      -49.2364222861       33.8315503535  W2        22116           0.0000000000
     66157     22053  TIP3      OH2           -27.1479166405      -43.2995022861       24.7642003535  W2        22117           0.0000000000
     66158     22053  TIP3      H1            -27.8928166405      -43.8069722861       24.4419903535  W2        22117           0.0000000000
     66159     22053  TIP3      H2            -27.2821966405      -43.2507022861       25.7106803535  W2        22117           0.0000000000
     66160     22054  TIP3      OH2           -19.9980266405      -44.1666822861       33.5509603535  W2        22118           0.0000000000
     66161     22054  TIP3      H1            -19.3561466405      -43.7100522861       33.0071803535  W2        22118           0.0000000000
     66162     22054  TIP3      H2            -20.8283366405      -44.0534422861       33.0883703535  W2        22118           0.0000000000
     66163     22055  TIP3      OH2           -23.2502366405      -50.4855122861       22.9634603535  W2        22119           0.0000000000
     66164     22055  TIP3      H1            -24.1888166405      -50.3739522861       22.8123403535  W2        22119           0.0000000000
     66165     22055  TIP3      H2            -22.9530266405      -49.6288222861       23.2700303535  W2        22119           0.0000000000
     66166     22056  TIP3      OH2           -22.5318866405      -48.6182422861       24.6242003535  W2        22121           0.0000000000
     66167     22056  TIP3      H1            -21.6399866405      -48.7557422861       24.9433203535  W2        22121           0.0000000000
     66168     22056  TIP3      H2            -22.4755266405      -47.8276322861       24.0875503535  W2        22121           0.0000000000
     66169     22057  TIP3      OH2           -32.0230866405      -44.0045022861       30.5339903535  W2        22122           0.0000000000
     66170     22057  TIP3      H1            -31.2783666405      -44.0069322861       29.9326403535  W2        22122           0.0000000000
     66171     22057  TIP3      H2            -31.9454266405      -44.8281222861       31.0155003535  W2        22122           0.0000000000
     66172     22058  TIP3      OH2           -25.0225066405      -41.8410722861       23.7896603535  W2        22123           0.0000000000
     66173     22058  TIP3      H1            -25.3176666405      -41.0142822861       24.1711403535  W2        22123           0.0000000000
     66174     22058  TIP3      H2            -25.7255066405      -42.4603822861       23.9858003535  W2        22123           0.0000000000
     66175     22059  TIP3      OH2           -17.6470166405      -48.4088322861       24.3188703535  W2        22127           0.0000000000
     66176     22059  TIP3      H1            -18.2013866405      -48.8050322861       23.6466203535  W2        22127           0.0000000000
     66177     22059  TIP3      H2            -17.5466566405      -47.4983122861       24.0412003535  W2        22127           0.0000000000
     66178     22060  TIP3      OH2           -19.3518466405      -39.6227922861       24.7840803535  W2        22129           0.0000000000
     66179     22060  TIP3      H1            -19.7247366405      -40.4484122861       25.0931403535  W2        22129           0.0000000000
     66180     22060  TIP3      H2            -19.0744966405      -39.8058522861       23.8864203535  W2        22129           0.0000000000
     66181     22061  TIP3      OH2           -22.1914566405      -44.8148422861       31.8052703535  W2        22130           0.0000000000
     66182     22061  TIP3      H1            -23.1197666405      -45.0466522861       31.7782003535  W2        22130           0.0000000000
     66183     22061  TIP3      H2            -21.7403466405      -45.5918622861       31.4751503535  W2        22130           0.0000000000
     66184     22062  TIP3      OH2           -29.6481466405      -40.4866822861       27.9381403535  W2        22131           0.0000000000
     66185     22062  TIP3      H1            -29.1209266405      -39.7132422861       27.7380203535  W2        22131           0.0000000000
     66186     22062  TIP3      H2            -30.5282966405      -40.2617622861       27.6365403535  W2        22131           0.0000000000
     66187     22063  TIP3      OH2           -33.8933766405      -45.6242722861       22.5253803535  W2        22132           0.0000000000
     66188     22063  TIP3      H1            -33.2773866405      -44.9975522861       22.9048603535  W2        22132           0.0000000000
     66189     22063  TIP3      H2            -34.7551166405      -45.3082922861       22.7970303535  W2        22132           0.0000000000
     66190     22064  TIP3      OH2           -28.2209166405      -42.8236922861       27.5145703535  W2        22133           0.0000000000
     66191     22064  TIP3      H1            -28.4619166405      -41.8982522861       27.5561003535  W2        22133           0.0000000000
     66192     22064  TIP3      H2            -28.9615566405      -43.2825622861       27.9109603535  W2        22133           0.0000000000
     66193     22065  TIP3      OH2           -27.7062566405      -38.6743322861       33.8296803535  W2        22134           0.0000000000
     66194     22065  TIP3      H1            -27.3437866405      -37.8197722861       33.5961203535  W2        22134           0.0000000000
     66195     22065  TIP3      H2            -27.1747366405      -38.9661722861       34.5703103535  W2        22134           0.0000000000
     66196     22066  TIP3      OH2           -29.5378366405      -37.8019322861       27.0597903535  W2        22135           0.0000000000
     66197     22066  TIP3      H1            -30.4877866405      -37.6961922861       27.1111203535  W2        22135           0.0000000000
     66198     22066  TIP3      H2            -29.1860266405      -36.9811922861       27.4045403535  W2        22135           0.0000000000
     66199     22067  TIP3      OH2           -24.1621766405      -42.5752622861       33.5302403535  W2        22136           0.0000000000
     66200     22067  TIP3      H1            -24.5880466405      -42.8030922861       34.3566403535  W2        22136           0.0000000000
     66201     22067  TIP3      H2            -23.5815966405      -43.3140822861       33.3477703535  W2        22136           0.0000000000
     66202     22068  TIP3      OH2           -21.9592866405      -41.6462122861       22.6041403535  W2        22137           0.0000000000
     66203     22068  TIP3      H1            -21.6059766405      -42.0262322861       23.4084903535  W2        22137           0.0000000000
     66204     22068  TIP3      H2            -22.9079366405      -41.7397322861       22.6910703535  W2        22137           0.0000000000
     66205     22069  TIP3      OH2           -17.4558466405      -37.1669622861       22.8051603535  W2        22139           0.0000000000
     66206     22069  TIP3      H1            -16.7120566405      -36.5809122861       22.6653203535  W2        22139           0.0000000000
     66207     22069  TIP3      H2            -18.1500366405      -36.5983822861       23.1384003535  W2        22139           0.0000000000
     66208     22070  TIP3      OH2           -33.3811666405      -50.7905422861       35.4069803535  W2        22140           0.0000000000
     66209     22070  TIP3      H1            -34.2739366405      -50.4520022861       35.3393803535  W2        22140           0.0000000000
     66210     22070  TIP3      H2            -33.4798866405      -51.6459322861       35.8250603535  W2        22140           0.0000000000
     66211     22071  TIP3      OH2           -21.0933566405      -42.9740122861       24.8309303535  W2        22141           0.0000000000
     66212     22071  TIP3      H1            -21.3705966405      -43.7020822861       25.3870403535  W2        22141           0.0000000000
     66213     22071  TIP3      H2            -20.1660566405      -42.8548122861       25.0361903535  W2        22141           0.0000000000
     66214     22072  TIP3      OH2           -33.7299666405      -38.9861022861       33.8419203535  W2        22142           0.0000000000
     66215     22072  TIP3      H1            -33.5129366405      -39.9178622861       33.8108903535  W2        22142           0.0000000000
     66216     22072  TIP3      H2            -33.4836166405      -38.7116022861       34.7252003535  W2        22142           0.0000000000
     66217     22073  TIP3      OH2           -27.8685066405      -40.5346022861       21.0511403535  W2        22143           0.0000000000
     66218     22073  TIP3      H1            -27.6295266405      -41.2827922861       20.5040303535  W2        22143           0.0000000000
     66219     22073  TIP3      H2            -28.1373766405      -40.9224322861       21.8839203535  W2        22143           0.0000000000
     66220     22074  TIP3      OH2           -28.9314466405      -40.9642222861       23.5074003535  W2        22144           0.0000000000
     66221     22074  TIP3      H1            -28.7846466405      -41.4842422861       24.2974903535  W2        22144           0.0000000000
     66222     22074  TIP3      H2            -28.9342766405      -40.0574622861       23.8139903535  W2        22144           0.0000000000
     66223     22075  TIP3      OH2           -32.4783366405      -43.7118922861       24.0179403535  W2        22145           0.0000000000
     66224     22075  TIP3      H1            -33.1644066405      -43.3596422861       24.5849103535  W2        22145           0.0000000000
     66225     22075  TIP3      H2            -31.9555466405      -42.9489322861       23.7713703535  W2        22145           0.0000000000
     66226     22076  TIP3      OH2           -24.6468266405      -51.0495122861       34.2968403535  W2        22146           0.0000000000
     66227     22076  TIP3      H1            -23.9480366405      -50.9756422861       34.9468103535  W2        22146           0.0000000000
     66228     22076  TIP3      H2            -25.0276866405      -51.9140122861       34.4511303535  W2        22146           0.0000000000
     66229     22077  TIP3      OH2           -23.8623366405      -51.3973422861       25.3940703535  W2        22147           0.0000000000
     66230     22077  TIP3      H1            -23.6425066405      -50.9258022861       24.5906103535  W2        22147           0.0000000000
     66231     22077  TIP3      H2            -23.3039366405      -51.0030822861       26.0641303535  W2        22147           0.0000000000
     66232     22078  TIP3      OH2           -26.1937266405      -39.2668622861       24.2568203535  W2        22148           0.0000000000
     66233     22078  TIP3      H1            -27.0101166405      -38.7698922861       24.3092503535  W2        22148           0.0000000000
     66234     22078  TIP3      H2            -25.6640966405      -38.7915122861       23.6167003535  W2        22148           0.0000000000
     66235     22079  TIP3      OH2           -26.6623466405      -49.6694622861       26.2289103535  W2        22149           0.0000000000
     66236     22079  TIP3      H1            -25.8500866405      -49.1651422861       26.2750803535  W2        22149           0.0000000000
     66237     22079  TIP3      H2            -26.9070466405      -49.8144922861       27.1428703535  W2        22149           0.0000000000
     66238     22080  TIP3      OH2           -26.1267066405      -48.6831922861       35.4135703535  W2        22150           0.0000000000
     66239     22080  TIP3      H1            -26.0076766405      -48.1096522861       36.1706103535  W2        22150           0.0000000000
     66240     22080  TIP3      H2            -25.4712466405      -49.3712522861       35.5283503535  W2        22150           0.0000000000
     66241     22081  TIP3      OH2           -25.7786766405      -52.5881622861       27.1670203535  W2        22151           0.0000000000
     66242     22081  TIP3      H1            -26.1253266405      -51.9711022861       27.8114503535  W2        22151           0.0000000000
     66243     22081  TIP3      H2            -25.1199866405      -52.0875922861       26.6855703535  W2        22151           0.0000000000
     66244     22082  TIP3      OH2           -28.8554166405      -38.2231422861       24.2385103535  W2        22152           0.0000000000
     66245     22082  TIP3      H1            -28.6945466405      -37.4233922861       23.7377703535  W2        22152           0.0000000000
     66246     22082  TIP3      H2            -29.0526366405      -37.9165422861       25.1235703535  W2        22152           0.0000000000
     66247     22083  TIP3      OH2           -30.1209766405      -51.5252222861       23.8542703535  W2        22153           0.0000000000
     66248     22083  TIP3      H1            -30.2044966405      -50.6369122861       24.2009103535  W2        22153           0.0000000000
     66249     22083  TIP3      H2            -29.2309466405      -51.7905522861       24.0859503535  W2        22153           0.0000000000
     66250     22084  TIP3      OH2           -21.3200266405      -47.0260622861       30.3442703535  W2        22155           0.0000000000
     66251     22084  TIP3      H1            -22.1175866405      -47.4410422861       30.0157703535  W2        22155           0.0000000000
     66252     22084  TIP3      H2            -20.8749166405      -47.7166922861       30.8353203535  W2        22155           0.0000000000
     66253     22085  TIP3      OH2           -31.8624466405      -41.0980022861       22.9147203535  W2        22156           0.0000000000
     66254     22085  TIP3      H1            -31.2702966405      -40.3985222861       23.1909603535  W2        22156           0.0000000000
     66255     22085  TIP3      H2            -31.4031466405      -41.5310522861       22.1951803535  W2        22156           0.0000000000
     66256     22086  TIP3      OH2           -33.5465266405      -48.4337022861       22.0306603535  W2        22157           0.0000000000
     66257     22086  TIP3      H1            -33.5912666405      -47.4943922861       22.2093603535  W2        22157           0.0000000000
     66258     22086  TIP3      H2            -34.4342066405      -48.6692122861       21.7608703535  W2        22157           0.0000000000
     66259     22087  TIP3      OH2           -20.2335666405      -37.7698122861       31.9666203535  W2        22158           0.0000000000
     66260     22087  TIP3      H1            -20.3891366405      -37.0913722861       31.3095503535  W2        22158           0.0000000000
     66261     22087  TIP3      H2            -19.3009266405      -37.6978822861       32.1696803535  W2        22158           0.0000000000
     66262     22088  TIP3      OH2           -32.7383266405      -53.6520422861       30.7037603535  W2        22159           0.0000000000
     66263     22088  TIP3      H1            -32.9673466405      -53.5927922861       29.7762603535  W2        22159           0.0000000000
     66264     22088  TIP3      H2            -33.1809866405      -54.4434922861       31.0101703535  W2        22159           0.0000000000
     66265     22089  TIP3      OH2           -33.8079966405      -39.7113322861       26.8643403535  W2        22160           0.0000000000
     66266     22089  TIP3      H1            -34.6401366405      -39.2390622861       26.8914803535  W2        22160           0.0000000000
     66267     22089  TIP3      H2            -33.2621666405      -39.2015722861       26.2656503535  W2        22160           0.0000000000
     66268     22090  TIP3      OH2           -25.8303266405      -38.6714622861       21.1897403535  W2        22163           0.0000000000
     66269     22090  TIP3      H1            -26.4742266405      -39.3026022861       21.5111103535  W2        22163           0.0000000000
     66270     22090  TIP3      H2            -25.0684966405      -39.2026622861       20.9580903535  W2        22163           0.0000000000
     66271     22091  TIP3      OH2           -21.2260366405      -38.8544722861       21.4235403535  W2        22165           0.0000000000
     66272     22091  TIP3      H1            -20.9429966405      -39.6489522861       21.8762303535  W2        22165           0.0000000000
     66273     22091  TIP3      H2            -20.4862466405      -38.6213722861       20.8626503535  W2        22165           0.0000000000
     66274     22092  TIP3      OH2           -30.2713066405      -42.9449822861       21.2810303535  W2        22167           0.0000000000
     66275     22092  TIP3      H1            -30.2068966405      -43.7390222861       21.8116703535  W2        22167           0.0000000000
     66276     22092  TIP3      H2            -29.6183866405      -43.0637022861       20.5912303535  W2        22167           0.0000000000
     66277     22093  TIP3      OH2           -24.9189666405      -41.8978122861       21.0168303535  W2        22169           0.0000000000
     66278     22093  TIP3      H1            -25.1875566405      -41.7176022861       21.9177203535  W2        22169           0.0000000000
     66279     22093  TIP3      H2            -25.1254066405      -42.8231922861       20.8854103535  W2        22169           0.0000000000
     66280     22094  TIP3      OH2           -29.1219266405      -44.9723622861       23.5868303535  W2        22172           0.0000000000
     66281     22094  TIP3      H1            -29.5817266405      -45.4565322861       24.2726803535  W2        22172           0.0000000000
     66282     22094  TIP3      H2            -28.8670566405      -45.6408222861       22.9508803535  W2        22172           0.0000000000
     66283     22095  TIP3      OH2           -28.0508866405      -46.7291822861       21.8491503535  W2        22174           0.0000000000
     66284     22095  TIP3      H1            -28.2313866405      -46.8840622861       20.9219803535  W2        22174           0.0000000000
     66285     22095  TIP3      H2            -27.1008366405      -46.6213122861       21.8939403535  W2        22174           0.0000000000
     66286     22096  TIP3      OH2           -18.6610566405      -44.3747622861       21.2949603535  W2        22176           0.0000000000
     66287     22096  TIP3      H1            -18.9345766405      -44.7992122861       20.4817903535  W2        22176           0.0000000000
     66288     22096  TIP3      H2            -18.6216466405      -43.4433122861       21.0780003535  W2        22176           0.0000000000
     66289     22097  TIP3      OH2           -29.0810566405      -51.3549922861       34.5178403535  W2        22178           0.0000000000
     66290     22097  TIP3      H1            -28.5453066405      -50.9033222861       33.8657703535  W2        22178           0.0000000000
     66291     22097  TIP3      H2            -29.9330966405      -51.4630122861       34.0952503535  W2        22178           0.0000000000
     66292     22098  TIP3      OH2           -27.4992166405      -45.9153722861       34.7573603535  W2        22179           0.0000000000
     66293     22098  TIP3      H1            -26.7487366405      -46.0716222861       34.1841403535  W2        22179           0.0000000000
     66294     22098  TIP3      H2            -27.8383866405      -45.0637122861       34.4819103535  W2        22179           0.0000000000
     66295     22099  TIP3      OH2           -28.2755066405      -53.8984222861       34.9492003535  W2        22183           0.0000000000
     66296     22099  TIP3      H1            -28.3735466405      -52.9521022861       34.8438203535  W2        22183           0.0000000000
     66297     22099  TIP3      H2            -29.0178866405      -54.2710422861       34.4735503535  W2        22183           0.0000000000
     66298     22100  TIP3      OH2           -28.1537166405      -36.0388122861       22.8505103535  W2        22190           0.0000000000
     66299     22100  TIP3      H1            -27.2206466405      -35.8809422861       22.9943503535  W2        22190           0.0000000000
     66300     22100  TIP3      H2            -28.4178366405      -35.3635122861       22.2256603535  W2        22190           0.0000000000
     66301     22101  TIP3      OH2           -34.5852266405      -41.4024322861       22.3333203535  W2        22191           0.0000000000
     66302     22101  TIP3      H1            -33.6713066405      -41.3235422861       22.6067103535  W2        22191           0.0000000000
     66303     22101  TIP3      H2            -34.5779166405      -42.0894722861       21.6668803535  W2        22191           0.0000000000
     66304     22102  TIP3      OH2           -35.9361666405      -36.0095822861       27.4107103535  W2        22192           0.0000000000
     66305     22102  TIP3      H1            -36.5834566405      -36.4714122861       26.8778303535  W2        22192           0.0000000000
     66306     22102  TIP3      H2            -35.5817066405      -36.6812522861       27.9933303535  W2        22192           0.0000000000
     66307     22103  TIP3      OH2           -35.0662466405      -37.9288822861       29.2153303535  W2        22193           0.0000000000
     66308     22103  TIP3      H1            -35.4005666405      -38.8091522861       29.3873503535  W2        22193           0.0000000000
     66309     22103  TIP3      H2            -34.8440066405      -37.5833822861       30.0798903535  W2        22193           0.0000000000
     66310     22104  TIP3      OH2           -17.5177666405      -37.1192422861       32.1958103535  W2        22194           0.0000000000
     66311     22104  TIP3      H1            -17.5390966405      -36.9344022861       33.1347503535  W2        22194           0.0000000000
     66312     22104  TIP3      H2            -16.8271466405      -36.5508422861       31.8549503535  W2        22194           0.0000000000
     66313     22105  TIP3      OH2           -17.9544766405      -37.5521322861       35.1177203535  W2        22195           0.0000000000
     66314     22105  TIP3      H1            -18.4416066405      -38.2877222861       34.7464603535  W2        22195           0.0000000000
     66315     22105  TIP3      H2            -17.4052066405      -37.9457422861       35.7956603535  W2        22195           0.0000000000
     66316     22106  TIP3      OH2           -18.2027766405      -43.5059522861       25.2700003535  W2        22197           0.0000000000
     66317     22106  TIP3      H1            -17.3526366405      -43.0848622861       25.3971603535  W2        22197           0.0000000000
     66318     22106  TIP3      H2            -18.1972666405      -44.2459422861       25.8771403535  W2        22197           0.0000000000
     66319     22107  TIP3      OH2           -17.8082166405      -45.4522122861       27.0935703535  W2        22198           0.0000000000
     66320     22107  TIP3      H1            -18.5347566405      -45.9319522861       27.4913303535  W2        22198           0.0000000000
     66321     22107  TIP3      H2            -17.2268866405      -45.2467422861       27.8257303535  W2        22198           0.0000000000
     66322     22108  TIP3      OH2           -18.0490966405      -42.6674622861       32.0413303535  W2        22199           0.0000000000
     66323     22108  TIP3      H1            -17.2156766405      -43.0454622861       31.7606903535  W2        22199           0.0000000000
     66324     22108  TIP3      H2            -17.9370666405      -41.7243422861       31.9222403535  W2        22199           0.0000000000
     66325     22109  TIP3      OH2           -19.5628666405      -39.7897122861       34.3481703535  W2        22200           0.0000000000
     66326     22109  TIP3      H1            -20.2103366405      -39.4645622861       34.9736903535  W2        22200           0.0000000000
     66327     22109  TIP3      H2            -20.0804666405      -40.2299422861       33.6740003535  W2        22200           0.0000000000
     66328     22110  TIP3      OH2           -17.5399066405      -45.5513622861       23.4847003535  W2        22201           0.0000000000
     66329     22110  TIP3      H1            -18.0617966405      -45.1949522861       22.7657903535  W2        22201           0.0000000000
     66330     22110  TIP3      H2            -17.5729866405      -44.8765822861       24.1627903535  W2        22201           0.0000000000
     66331     22111  TIP3      OH2           -19.1910066405      -48.3118022861       22.0354103535  W2        22202           0.0000000000
     66332     22111  TIP3      H1            -19.0945666405      -47.6451022861       21.3553803535  W2        22202           0.0000000000
     66333     22111  TIP3      H2            -19.3310466405      -49.1271722861       21.5539603535  W2        22202           0.0000000000
     66334     22112  TIP3      OH2           -20.0215366405      -46.9315622861       27.6564403535  W2        22203           0.0000000000
     66335     22112  TIP3      H1            -20.1716566405      -47.8767022861       27.6362203535  W2        22203           0.0000000000
     66336     22112  TIP3      H2            -20.3750866405      -46.6504222861       28.5003503535  W2        22203           0.0000000000
     66337     22113  TIP3      OH2           -34.9862966405      -44.8533422861       31.6668203535  W2        22204           0.0000000000
     66338     22113  TIP3      H1            -34.8020066405      -44.9351722861       30.7311103535  W2        22204           0.0000000000
     66339     22113  TIP3      H2            -34.1370066405      -44.9776422861       32.0904603535  W2        22204           0.0000000000
     66340     22114  TIP3      OH2           -19.9436266405      -50.9038222861       21.1529603535  W2        22207           0.0000000000
     66341     22114  TIP3      H1            -19.3330466405      -51.2751422861       21.7897803535  W2        22207           0.0000000000
     66342     22114  TIP3      H2            -20.7804766405      -51.3251322861       21.3489603535  W2        22207           0.0000000000
     66343     22115  TIP3      OH2           -20.3110566405      -49.3489822861       26.1189503535  W2        22208           0.0000000000
     66344     22115  TIP3      H1            -20.0313466405      -50.2559422861       26.2431203535  W2        22208           0.0000000000
     66345     22115  TIP3      H2            -19.5518866405      -48.9148322861       25.7298703535  W2        22208           0.0000000000
     66346     22116  TIP3      OH2           -19.6992266405      -48.7672422861       31.5548403535  W2        22209           0.0000000000
     66347     22116  TIP3      H1            -18.7664266405      -48.5552522861       31.5204403535  W2        22209           0.0000000000
     66348     22116  TIP3      H2            -19.9344766405      -48.6660322861       32.4771403535  W2        22209           0.0000000000
     66349     22117  TIP3      OH2           -19.6700366405      -48.0307122861       34.3307803535  W2        22210           0.0000000000
     66350     22117  TIP3      H1            -20.5129066405      -47.7626722861       34.6967603535  W2        22210           0.0000000000
     66351     22117  TIP3      H2            -19.2276066405      -47.2085222861       34.1198903535  W2        22210           0.0000000000
     66352     22118  TIP3      OH2           -19.6975766405      -52.0860522861       26.1671503535  W2        22213           0.0000000000
     66353     22118  TIP3      H1            -19.5150766405      -52.5349022861       26.9926503535  W2        22213           0.0000000000
     66354     22118  TIP3      H2            -20.2972866405      -52.6706122861       25.7036103535  W2        22213           0.0000000000
     66355     22119  TIP3      OH2           -34.1675666405      -51.2706822861       30.6989903535  W2        22214           0.0000000000
     66356     22119  TIP3      H1            -33.7224066405      -52.0624322861       31.0009603535  W2        22214           0.0000000000
     66357     22119  TIP3      H2            -33.7012666405      -50.5541622861       31.1295503535  W2        22214           0.0000000000
     66358     22120  TIP3      OH2           -35.8635366405      -48.2713822861       31.7680103535  W2        22215           0.0000000000
     66359     22120  TIP3      H1            -35.3715566405      -48.4923322861       30.9772103535  W2        22215           0.0000000000
     66360     22120  TIP3      H2            -35.5014466405      -47.4310422861       32.0489603535  W2        22215           0.0000000000
     66361     22121  TIP3      OH2           -17.8309566405      -52.0182422861       22.6951803535  W2        22217           0.0000000000
     66362     22121  TIP3      H1            -17.4186966405      -52.7396722861       22.2199803535  W2        22217           0.0000000000
     66363     22121  TIP3      H2            -17.1493066405      -51.3487822861       22.7536103535  W2        22217           0.0000000000
     66364     22122  TIP3      OH2           -35.5498866405      -52.0134722861       25.8222503535  W2        22218           0.0000000000
     66365     22122  TIP3      H1            -36.4750466405      -51.8048122861       25.6928003535  W2        22218           0.0000000000
     66366     22122  TIP3      H2            -35.0958966405      -51.5293922861       25.1324803535  W2        22218           0.0000000000
     66367     22123  TIP3      OH2           -20.7791666405      -37.0293022861       27.7679903535  W2        22219           0.0000000000
     66368     22123  TIP3      H1            -20.1268766405      -37.3770922861       27.1599003535  W2        22219           0.0000000000
     66369     22123  TIP3      H2            -20.2687866405      -36.5409822861       28.4139603535  W2        22219           0.0000000000
     66370     22124  TIP3      OH2           -35.5863466405      -53.2755722861       34.1665003535  W2        22220           0.0000000000
     66371     22124  TIP3      H1            -36.2512966405      -53.5215422861       34.8095903535  W2        22220           0.0000000000
     66372     22124  TIP3      H2            -36.0292166405      -52.6535322861       33.5893003535  W2        22220           0.0000000000
     66373     22125  TIP3      OH2           -30.4401266405      -39.1260422861       34.5694803535  W2        22222           0.0000000000
     66374     22125  TIP3      H1            -30.8650166405      -38.3161922861       34.2869403535  W2        22222           0.0000000000
     66375     22125  TIP3      H2            -29.5358466405      -39.0406322861       34.2674603535  W2        22222           0.0000000000
     66376     22126  TIP3      OH2           -33.0384566405      -35.8696522861       34.6170103535  W2        22226           0.0000000000
     66377     22126  TIP3      H1            -33.7588166405      -35.4295522861       34.1657803535  W2        22226           0.0000000000
     66378     22126  TIP3      H2            -33.4040566405      -36.1201822861       35.4654103535  W2        22226           0.0000000000
     66379     22127  TIP3      OH2           -30.5711966405      -36.2692622861       33.6467303535  W2        22227           0.0000000000
     66380     22127  TIP3      H1            -31.4359766405      -36.1974122861       34.0507403535  W2        22227           0.0000000000
     66381     22127  TIP3      H2            -30.6262966405      -35.7225322861       32.8629803535  W2        22227           0.0000000000
     66382     22128  TIP3      OH2           -25.8606366405      -36.3813722861       32.8223303535  W2        22228           0.0000000000
     66383     22128  TIP3      H1            -26.3172366405      -35.8524022861       32.1681703535  W2        22228           0.0000000000
     66384     22128  TIP3      H2            -25.6978366405      -35.7782322861       33.5475603535  W2        22228           0.0000000000
     66385     22129  TIP3      OH2           -23.5330066405      -37.5034122861       33.7673603535  W2        22229           0.0000000000
     66386     22129  TIP3      H1            -24.4376366405      -37.3383922861       33.5015703535  W2        22229           0.0000000000
     66387     22129  TIP3      H2            -23.1041466405      -36.6501922861       33.7017003535  W2        22229           0.0000000000
     66388     22130  TIP3      OH2           -20.9288166405      -35.9335022861       34.0621403535  W2        22230           0.0000000000
     66389     22130  TIP3      H1            -21.1106166405      -35.0176122861       33.8516303535  W2        22230           0.0000000000
     66390     22130  TIP3      H2            -20.7520366405      -36.3437922861       33.2156003535  W2        22230           0.0000000000
     66391     22131  TIP3      OH2           -33.6236466405      -37.2464022861       31.5271903535  W2        22231           0.0000000000
     66392     22131  TIP3      H1            -33.6420466405      -37.6718922861       32.3844203535  W2        22231           0.0000000000
     66393     22131  TIP3      H2            -32.8188566405      -37.5649022861       31.1184103535  W2        22231           0.0000000000
     66394     22132  TIP3      OH2           -31.4823366405      -38.5365322861       30.1821803535  W2        22232           0.0000000000
     66395     22132  TIP3      H1            -31.7012666405      -39.4527922861       30.3517803535  W2        22232           0.0000000000
     66396     22132  TIP3      H2            -30.6581166405      -38.3964922861       30.6483203535  W2        22232           0.0000000000
     66397     22133  TIP3      OH2           -28.9450866405      -38.0666022861       31.0309803535  W2        22233           0.0000000000
     66398     22133  TIP3      H1            -28.7325166405      -38.9547022861       30.7440703535  W2        22233           0.0000000000
     66399     22133  TIP3      H2            -28.8805766405      -38.1008322861       31.9853803535  W2        22233           0.0000000000
     66400     22134  TIP3      OH2           -25.4367166405      -52.4025422861       30.1753103535  W2        22234           0.0000000000
     66401     22134  TIP3      H1            -26.1110366405      -53.0319822861       30.4308903535  W2        22234           0.0000000000
     66402     22134  TIP3      H2            -24.8727966405      -52.8866522861       29.5721003535  W2        22234           0.0000000000
     66403     22135  TIP3      OH2           -20.2939966405      -54.2951422861       30.2880203535  W2        22235           0.0000000000
     66404     22135  TIP3      H1            -19.6902366405      -53.7476022861       29.7861203535  W2        22235           0.0000000000
     66405     22135  TIP3      H2            -21.1637966405      -53.9761022861       30.0474303535  W2        22235           0.0000000000
     66406     22136  TIP3      OH2           -18.5669566405      -53.1562722861       28.6211103535  W2        22236           0.0000000000
     66407     22136  TIP3      H1            -17.9552066405      -53.6707022861       28.0944703535  W2        22236           0.0000000000
     66408     22136  TIP3      H2            -18.1846166405      -52.2790622861       28.6445503535  W2        22236           0.0000000000
     66409     22137  TIP3      OH2           -33.1099666405      -53.7685122861       27.9973003535  W2        22237           0.0000000000
     66410     22137  TIP3      H1            -33.8869866405      -54.0030222861       27.4898903535  W2        22237           0.0000000000
     66411     22137  TIP3      H2            -32.5796066405      -54.5653022861       28.0061003535  W2        22237           0.0000000000
     66412     22138  TIP3      OH2           -34.2736266405      -53.9707022861       23.8009103535  W2        22238           0.0000000000
     66413     22138  TIP3      H1            -33.8345566405      -53.3596522861       23.2092603535  W2        22238           0.0000000000
     66414     22138  TIP3      H2            -34.9073866405      -53.4322922861       24.2749103535  W2        22238           0.0000000000
     66415     22139  TIP3      OH2           -28.5307066405      -53.8418022861       27.8106103535  W2        22239           0.0000000000
     66416     22139  TIP3      H1            -27.6563666405      -53.4533722861       27.7810403535  W2        22239           0.0000000000
     66417     22139  TIP3      H2            -28.6666266405      -54.0570222861       28.7333303535  W2        22239           0.0000000000
     66418     22140  TIP3      OH2           -22.9738666405      -53.8118222861       29.4597803535  W2        22240           0.0000000000
     66419     22140  TIP3      H1            -22.8977066405      -53.7166622861       28.5103803535  W2        22240           0.0000000000
     66420     22140  TIP3      H2            -23.2489466405      -54.7195322861       29.5886903535  W2        22240           0.0000000000
     66421     22141  TIP3      OH2           -21.6206066405      -53.7860422861       25.1522803535  W2        22241           0.0000000000
     66422     22141  TIP3      H1            -22.3234966405      -53.1711222861       24.9424203535  W2        22241           0.0000000000
     66423     22141  TIP3      H2            -22.0654666405      -54.6233722861       25.2833703535  W2        22241           0.0000000000
     66424     22142  TIP3      OH2           -34.3726766405      -38.0224822861       24.6984203535  W2        22242           0.0000000000
     66425     22142  TIP3      H1            -35.0576866405      -38.0605922861       24.0309303535  W2        22242           0.0000000000
     66426     22142  TIP3      H2            -34.3689566405      -37.1097222861       24.9866303535  W2        22242           0.0000000000
     66427     22143  TIP3      OH2           -32.4127166405      -52.0545522861       22.2433203535  W2        22243           0.0000000000
     66428     22143  TIP3      H1            -31.9213766405      -52.6843122861       21.7158703535  W2        22243           0.0000000000
     66429     22143  TIP3      H2            -31.7890866405      -51.7586122861       22.9064403535  W2        22243           0.0000000000
     66430     22144  TIP3      OH2           -27.3867066405      -51.7614022861       24.7003703535  W2        22244           0.0000000000
     66431     22144  TIP3      H1            -27.2085766405      -52.4080822861       25.3832303535  W2        22244           0.0000000000
     66432     22144  TIP3      H2            -27.4400866405      -50.9276322861       25.1674803535  W2        22244           0.0000000000
     66433     22145  TIP3      OH2           -25.5083266405      -36.8129922861       23.0960403535  W2        22245           0.0000000000
     66434     22145  TIP3      H1            -24.6423066405      -36.4462522861       22.9178603535  W2        22245           0.0000000000
     66435     22145  TIP3      H2            -25.7550466405      -37.2521922861       22.2821203535  W2        22245           0.0000000000
     66436     22146  TIP3      OH2           -18.7993666405      -37.2499622861       25.7751503535  W2        22246           0.0000000000
     66437     22146  TIP3      H1            -18.9936566405      -37.9977522861       25.2101103535  W2        22246           0.0000000000
     66438     22146  TIP3      H2            -18.8383566405      -36.4919522861       25.1919403535  W2        22246           0.0000000000
     66439     22147  TIP3      OH2           -32.5545566405      -37.1024022861       21.7236303535  W2        22249           0.0000000000
     66440     22147  TIP3      H1            -32.8220966405      -36.8161122861       22.5969403535  W2        22249           0.0000000000
     66441     22147  TIP3      H2            -31.7832966405      -37.6484822861       21.8758803535  W2        22249           0.0000000000
     66442     22148  TIP3      OH2            -5.1757066405      -44.6122822861       27.9560503535  W2        22252           0.0000000000
     66443     22148  TIP3      H1             -5.0865966405      -43.6684622861       27.8237603535  W2        22252           0.0000000000
     66444     22148  TIP3      H2             -5.8139466405      -44.8876422861       27.2979903535  W2        22252           0.0000000000
     66445     22149  TIP3      OH2            -6.2425766405      -45.3572122861       31.3748703535  W2        22253           0.0000000000
     66446     22149  TIP3      H1             -6.2808266405      -46.0035822861       32.0798303535  W2        22253           0.0000000000
     66447     22149  TIP3      H2             -6.5649266405      -45.8237722861       30.6037403535  W2        22253           0.0000000000
     66448     22150  TIP3      OH2           -13.8740766405      -45.7430022861       32.9678603535  W2        22254           0.0000000000
     66449     22150  TIP3      H1            -13.8328666405      -46.3686722861       33.6911003535  W2        22254           0.0000000000
     66450     22150  TIP3      H2            -13.1713066405      -45.1191422861       33.1499003535  W2        22254           0.0000000000
     66451     22151  TIP3      OH2            -2.5365566405      -42.4181722861       29.6763803535  W2        22255           0.0000000000
     66452     22151  TIP3      H1             -2.9772866405      -43.1385722861       30.1269403535  W2        22255           0.0000000000
     66453     22151  TIP3      H2             -2.5495866405      -41.6974522861       30.3061503535  W2        22255           0.0000000000
     66454     22152  TIP3      OH2           -12.9507666405      -41.2931122861       31.5027703535  W2        22256           0.0000000000
     66455     22152  TIP3      H1            -13.3202466405      -42.0950622861       31.1332003535  W2        22256           0.0000000000
     66456     22152  TIP3      H2            -12.0096566405      -41.4616222861       31.5491103535  W2        22256           0.0000000000
     66457     22153  TIP3      OH2           -16.3407166405      -47.6328522861       26.8956503535  W2        22257           0.0000000000
     66458     22153  TIP3      H1            -16.7883766405      -46.7869822861       26.8773003535  W2        22257           0.0000000000
     66459     22153  TIP3      H2            -16.9015966405      -48.2124322861       26.3801603535  W2        22257           0.0000000000
     66460     22154  TIP3      OH2           -15.6301066405      -45.4708922861       29.0214503535  W2        22258           0.0000000000
     66461     22154  TIP3      H1            -15.4167566405      -46.2407322861       29.5487503535  W2        22258           0.0000000000
     66462     22154  TIP3      H2            -14.8923466405      -45.3812222861       28.4182103535  W2        22258           0.0000000000
     66463     22155  TIP3      OH2            -5.4250066405      -37.3140022861       29.8884203535  W2        22259           0.0000000000
     66464     22155  TIP3      H1             -4.8053666405      -37.9905322861       29.6153403535  W2        22259           0.0000000000
     66465     22155  TIP3      H2             -5.6332666405      -37.5319222861       30.7969103535  W2        22259           0.0000000000
     66466     22156  TIP3      OH2            -7.8531366405      -42.9250722861       31.7809703535  W2        22260           0.0000000000
     66467     22156  TIP3      H1             -7.5493466405      -43.6109322861       31.1863803535  W2        22260           0.0000000000
     66468     22156  TIP3      H2             -7.1317366405      -42.8062022861       32.3987703535  W2        22260           0.0000000000
     66469     22157  TIP3      OH2             0.8098433595      -51.3235422861       32.6415903535  W2        22261           0.0000000000
     66470     22157  TIP3      H1              0.8590633595      -50.7134222861       33.3775003535  W2        22261           0.0000000000
     66471     22157  TIP3      H2              1.2353533595      -50.8624522861       31.9187003535  W2        22261           0.0000000000
     66472     22158  TIP3      OH2            -4.7124366405      -48.5308322861       32.1084503535  W2        22262           0.0000000000
     66473     22158  TIP3      H1             -4.5698466405      -49.4771322861       32.1286103535  W2        22262           0.0000000000
     66474     22158  TIP3      H2             -4.8185366405      -48.3238522861       31.1799403535  W2        22262           0.0000000000
     66475     22159  TIP3      OH2           -11.5576066405      -50.4291922861       29.3809303535  W2        22263           0.0000000000
     66476     22159  TIP3      H1            -11.5144966405      -49.5693422861       28.9625603535  W2        22263           0.0000000000
     66477     22159  TIP3      H2            -12.0151966405      -50.9817222861       28.7472503535  W2        22263           0.0000000000
     66478     22160  TIP3      OH2            -3.8353366405      -50.2986322861       27.7817603535  W2        22264           0.0000000000
     66479     22160  TIP3      H1             -3.1889066405      -50.6273122861       28.4065203535  W2        22264           0.0000000000
     66480     22160  TIP3      H2             -3.3253966405      -49.7807322861       27.1589003535  W2        22264           0.0000000000
     66481     22161  TIP3      OH2           -14.9374566405      -48.0326122861       30.1430703535  W2        22265           0.0000000000
     66482     22161  TIP3      H1            -14.2837966405      -48.5824422861       30.5750803535  W2        22265           0.0000000000
     66483     22161  TIP3      H2            -14.9135266405      -48.3067122861       29.2262703535  W2        22265           0.0000000000
     66484     22162  TIP3      OH2            -9.7810066405      -46.4824822861       29.3582203535  W2        22266           0.0000000000
     66485     22162  TIP3      H1             -9.1649066405      -47.0089422861       29.8676203535  W2        22266           0.0000000000
     66486     22162  TIP3      H2            -10.3671266405      -47.1226122861       28.9545803535  W2        22266           0.0000000000
     66487     22163  TIP3      OH2             1.2013033595      -49.8456222861       34.8775703535  W2        22267           0.0000000000
     66488     22163  TIP3      H1              0.5127633595      -49.1875522861       34.7822303535  W2        22267           0.0000000000
     66489     22163  TIP3      H2              1.2167633595      -50.0428322861       35.8141103535  W2        22267           0.0000000000
     66490     22164  TIP3      OH2           -12.7474166405      -51.5113522861       33.4550103535  W2        22268           0.0000000000
     66491     22164  TIP3      H1            -12.9662466405      -50.9812922861       32.6886103535  W2        22268           0.0000000000
     66492     22164  TIP3      H2            -13.4153266405      -51.2848022861       34.1021503535  W2        22268           0.0000000000
     66493     22165  TIP3      OH2            -5.3784366405      -42.0112422861       26.9989203535  W2        22269           0.0000000000
     66494     22165  TIP3      H1             -5.6739266405      -42.3340122861       26.1476103535  W2        22269           0.0000000000
     66495     22165  TIP3      H2             -5.7026566405      -41.1115722861       27.0401803535  W2        22269           0.0000000000
     66496     22166  TIP3      OH2           -10.1782766405      -43.8357822861       33.7423803535  W2        22270           0.0000000000
     66497     22166  TIP3      H1            -10.9183666405      -43.2376322861       33.8459003535  W2        22270           0.0000000000
     66498     22166  TIP3      H2             -9.4643266405      -43.2818222861       33.4267403535  W2        22270           0.0000000000
     66499     22167  TIP3      OH2            -2.0714966405      -51.0077022861       29.7623503535  W2        22271           0.0000000000
     66500     22167  TIP3      H1             -2.2866966405      -51.7733622861       30.2949503535  W2        22271           0.0000000000
     66501     22167  TIP3      H2             -1.4157566405      -50.5352422861       30.2752003535  W2        22271           0.0000000000
     66502     22168  TIP3      OH2           -13.1536866405      -49.6191722861       31.4072303535  W2        22272           0.0000000000
     66503     22168  TIP3      H1            -12.5400566405      -48.9864122861       31.7804703535  W2        22272           0.0000000000
     66504     22168  TIP3      H2            -12.6416166405      -50.0916722861       30.7509203535  W2        22272           0.0000000000
     66505     22169  TIP3      OH2           -11.7708466405      -41.8714822861       34.5295303535  W2        22273           0.0000000000
     66506     22169  TIP3      H1            -11.7760866405      -40.9921322861       34.1514603535  W2        22273           0.0000000000
     66507     22169  TIP3      H2            -12.6244366405      -41.9550722861       34.9545203535  W2        22273           0.0000000000
     66508     22170  TIP3      OH2           -15.6497566405      -42.2006922861       25.3114603535  W2        22274           0.0000000000
     66509     22170  TIP3      H1            -15.9216666405      -41.9715922861       24.4227503535  W2        22274           0.0000000000
     66510     22170  TIP3      H2            -15.6041866405      -41.3628122861       25.7719903535  W2        22274           0.0000000000
     66511     22171  TIP3      OH2            -2.0247866405      -40.5791022861       32.0243103535  W2        22275           0.0000000000
     66512     22171  TIP3      H1             -2.9664166405      -40.5207122861       32.1860003535  W2        22275           0.0000000000
     66513     22171  TIP3      H2             -1.7481766405      -39.6730522861       31.8872803535  W2        22275           0.0000000000
     66514     22172  TIP3      OH2            -1.7240866405      -52.2925722861       33.4417003535  W2        22276           0.0000000000
     66515     22172  TIP3      H1             -2.4601666405      -51.6818622861       33.4038303535  W2        22276           0.0000000000
     66516     22172  TIP3      H2             -1.0406866405      -51.8776722861       32.9153403535  W2        22276           0.0000000000
     66517     22173  TIP3      OH2            -8.7209466405      -54.2058422861       30.9075003535  W2        22277           0.0000000000
     66518     22173  TIP3      H1             -8.8385266405      -55.1542422861       30.8533303535  W2        22277           0.0000000000
     66519     22173  TIP3      H2             -9.5759366405      -53.8732322861       31.1806103535  W2        22277           0.0000000000
     66520     22174  TIP3      OH2            -3.7726666405      -38.7977522861       28.6494703535  W2        22278           0.0000000000
     66521     22174  TIP3      H1             -3.3474366405      -39.5049622861       28.1644303535  W2        22278           0.0000000000
     66522     22174  TIP3      H2             -3.4556666405      -37.9964822861       28.2326903535  W2        22278           0.0000000000
     66523     22175  TIP3      OH2            -2.6130166405      -40.8969022861       27.1581303535  W2        22279           0.0000000000
     66524     22175  TIP3      H1             -2.8705366405      -41.5868922861       26.5467203535  W2        22279           0.0000000000
     66525     22175  TIP3      H2             -2.5419366405      -41.3397822861       28.0037203535  W2        22279           0.0000000000
     66526     22176  TIP3      OH2            -6.4544566405      -45.3682822861       25.4080803535  W2        22281           0.0000000000
     66527     22176  TIP3      H1             -7.1659066405      -44.8333122861       25.0561303535  W2        22281           0.0000000000
     66528     22176  TIP3      H2             -5.7634966405      -45.3130722861       24.7479703535  W2        22281           0.0000000000
     66529     22177  TIP3      OH2            -6.4005366405      -46.9108522861       22.4465803535  W2        22282           0.0000000000
     66530     22177  TIP3      H1             -5.6995466405      -46.8881622861       23.0979803535  W2        22282           0.0000000000
     66531     22177  TIP3      H2             -6.0982466405      -47.5388822861       21.7905103535  W2        22282           0.0000000000
     66532     22178  TIP3      OH2             0.9149333595      -45.9904322861       33.7015203535  W2        22283           0.0000000000
     66533     22178  TIP3      H1              0.2623433595      -45.2958722861       33.7906103535  W2        22283           0.0000000000
     66534     22178  TIP3      H2              1.3799633595      -45.7803422861       32.8916803535  W2        22283           0.0000000000
     66535     22179  TIP3      OH2            -3.0486866405      -45.1589522861       26.3596703535  W2        22284           0.0000000000
     66536     22179  TIP3      H1             -3.7805866405      -44.9305822861       26.9327303535  W2        22284           0.0000000000
     66537     22179  TIP3      H2             -2.6014666405      -45.8726822861       26.8144203535  W2        22284           0.0000000000
     66538     22180  TIP3      OH2            -3.1513366405      -46.9846922861       35.4273703535  W2        22285           0.0000000000
     66539     22180  TIP3      H1             -3.0714266405      -46.2212522861       35.9992203535  W2        22285           0.0000000000
     66540     22180  TIP3      H2             -3.7525666405      -46.7054522861       34.7368803535  W2        22285           0.0000000000
     66541     22181  TIP3      OH2           -11.4033166405      -44.5283322861       28.2421703535  W2        22286           0.0000000000
     66542     22181  TIP3      H1            -11.7337966405      -44.8989922861       27.4238703535  W2        22286           0.0000000000
     66543     22181  TIP3      H2            -10.8149066405      -45.1989322861       28.5890003535  W2        22286           0.0000000000
     66544     22182  TIP3      OH2           -10.0365666405      -41.1002722861       30.9233903535  W2        22287           0.0000000000
     66545     22182  TIP3      H1            -10.1314366405      -41.6789622861       30.1668503535  W2        22287           0.0000000000
     66546     22182  TIP3      H2             -9.3072066405      -41.4717022861       31.4196703535  W2        22287           0.0000000000
     66547     22183  TIP3      OH2           -11.0367666405      -45.7597722861       31.8756703535  W2        22288           0.0000000000
     66548     22183  TIP3      H1            -10.4715166405      -45.6383522861       31.1127903535  W2        22288           0.0000000000
     66549     22183  TIP3      H2            -10.7178766405      -45.1222722861       32.5145203535  W2        22288           0.0000000000
     66550     22184  TIP3      OH2            -4.7275466405      -40.2565822861       32.6097203535  W2        22289           0.0000000000
     66551     22184  TIP3      H1             -4.9678866405      -39.5942722861       33.2576403535  W2        22289           0.0000000000
     66552     22184  TIP3      H2             -4.9257266405      -41.0910622861       33.0346803535  W2        22289           0.0000000000
     66553     22185  TIP3      OH2            -4.1777366405      -45.9966622861       24.0447903535  W2        22291           0.0000000000
     66554     22185  TIP3      H1             -3.5981866405      -45.8466322861       24.7916803535  W2        22291           0.0000000000
     66555     22185  TIP3      H2             -3.7637366405      -45.5259222861       23.3214303535  W2        22291           0.0000000000
     66556     22186  TIP3      OH2            -6.4512466405      -39.2598122861       27.4801003535  W2        22293           0.0000000000
     66557     22186  TIP3      H1             -5.9774866405      -38.9641822861       28.2575203535  W2        22293           0.0000000000
     66558     22186  TIP3      H2             -7.0143166405      -38.5216522861       27.2470603535  W2        22293           0.0000000000
     66559     22187  TIP3      OH2            -0.4788966405      -54.2466222861       23.8577603535  W2        22295           0.0000000000
     66560     22187  TIP3      H1             -1.3788266405      -54.1077222861       24.1528203535  W2        22295           0.0000000000
     66561     22187  TIP3      H2             -0.2270566405      -53.4151622861       23.4559303535  W2        22295           0.0000000000
     66562     22188  TIP3      OH2           -12.4130466405      -45.4589022861       25.8314503535  W2        22296           0.0000000000
     66563     22188  TIP3      H1            -12.7049166405      -44.6907322861       25.3405803535  W2        22296           0.0000000000
     66564     22188  TIP3      H2            -13.0875266405      -46.1182822861       25.6685903535  W2        22296           0.0000000000
     66565     22189  TIP3      OH2             0.7102433595      -39.8803822861       22.2341503535  W2        22297           0.0000000000
     66566     22189  TIP3      H1              0.7835933595      -38.9413622861       22.4046803535  W2        22297           0.0000000000
     66567     22189  TIP3      H2              1.6157533595      -40.1855222861       22.1778803535  W2        22297           0.0000000000
     66568     22190  TIP3      OH2           -16.3200366405      -43.0959822861       34.6464303535  W2        22298           0.0000000000
     66569     22190  TIP3      H1            -16.8211966405      -43.1240422861       33.8314003535  W2        22298           0.0000000000
     66570     22190  TIP3      H2            -16.3146666405      -44.0016622861       34.9561603535  W2        22298           0.0000000000
     66571     22191  TIP3      OH2           -16.5697666405      -40.3156022861       31.5304503535  W2        22299           0.0000000000
     66572     22191  TIP3      H1            -15.6237066405      -40.4599022861       31.5114003535  W2        22299           0.0000000000
     66573     22191  TIP3      H2            -16.6821366405      -39.5313222861       32.0675703535  W2        22299           0.0000000000
     66574     22192  TIP3      OH2            -6.9789366405      -36.3033422861       25.8950203535  W2        22302           0.0000000000
     66575     22192  TIP3      H1             -7.0543366405      -36.4246222861       24.9485403535  W2        22302           0.0000000000
     66576     22192  TIP3      H2             -6.9460666405      -35.3540722861       26.0134803535  W2        22302           0.0000000000
     66577     22193  TIP3      OH2           -13.3255566405      -37.5146422861       27.6759203535  W2        22303           0.0000000000
     66578     22193  TIP3      H1            -13.1735166405      -37.8626022861       28.5545703535  W2        22303           0.0000000000
     66579     22193  TIP3      H2            -14.1765166405      -37.8709122861       27.4206403535  W2        22303           0.0000000000
     66580     22194  TIP3      OH2            -3.8773366405      -37.1493222861       22.8972603535  W2        22304           0.0000000000
     66581     22194  TIP3      H1             -3.5024966405      -37.8937122861       22.4265203535  W2        22304           0.0000000000
     66582     22194  TIP3      H2             -3.8729666405      -37.4192622861       23.8155903535  W2        22304           0.0000000000
     66583     22195  TIP3      OH2            -4.2085266405      -37.2236122861       25.6464803535  W2        22305           0.0000000000
     66584     22195  TIP3      H1             -5.1435466405      -37.1234222861       25.8251803535  W2        22305           0.0000000000
     66585     22195  TIP3      H2             -3.9283366405      -37.9330122861       26.2248003535  W2        22305           0.0000000000
     66586     22196  TIP3      OH2           -11.4521866405      -53.3023922861       31.6851303535  W2        22308           0.0000000000
     66587     22196  TIP3      H1            -12.3138166405      -53.3895722861       31.2774203535  W2        22308           0.0000000000
     66588     22196  TIP3      H2            -11.4746166405      -52.4463822861       32.1128903535  W2        22308           0.0000000000
     66589     22197  TIP3      OH2            -6.7894066405      -53.5803522861       35.0598303535  W2        22309           0.0000000000
     66590     22197  TIP3      H1             -6.3690966405      -53.9956422861       35.8128903535  W2        22309           0.0000000000
     66591     22197  TIP3      H2             -7.7224466405      -53.7590222861       35.1770303535  W2        22309           0.0000000000
     66592     22198  TIP3      OH2            -2.7004266405      -44.9638322861       21.6745803535  W2        22311           0.0000000000
     66593     22198  TIP3      H1             -2.6583466405      -45.1864422861       20.7445803535  W2        22311           0.0000000000
     66594     22198  TIP3      H2             -1.8512166405      -44.5651222861       21.8645703535  W2        22311           0.0000000000
     66595     22199  TIP3      OH2            -7.1276766405      -51.0880122861       22.3449103535  W2        22312           0.0000000000
     66596     22199  TIP3      H1             -7.3811966405      -51.0688522861       23.2677203535  W2        22312           0.0000000000
     66597     22199  TIP3      H2             -7.3844666405      -51.9594722861       22.0435303535  W2        22312           0.0000000000
     66598     22200  TIP3      OH2           -11.3611766405      -48.3369422861       32.7801503535  W2        22313           0.0000000000
     66599     22200  TIP3      H1            -12.0029666405      -48.3772122861       33.4891603535  W2        22313           0.0000000000
     66600     22200  TIP3      H2            -11.3239766405      -47.4104722861       32.5424503535  W2        22313           0.0000000000
     66601     22201  TIP3      OH2           -11.3642666405      -48.1159322861       27.6921503535  W2        22314           0.0000000000
     66602     22201  TIP3      H1            -12.2569766405      -48.4563222861       27.6335303535  W2        22314           0.0000000000
     66603     22201  TIP3      H2            -10.9136066405      -48.4928422861       26.9364703535  W2        22314           0.0000000000
     66604     22202  TIP3      OH2            -5.8287166405      -47.6999022861       26.5092303535  W2        22315           0.0000000000
     66605     22202  TIP3      H1             -6.2376866405      -46.8850422861       26.2177103535  W2        22315           0.0000000000
     66606     22202  TIP3      H2             -5.1080966405      -47.8398922861       25.8949403535  W2        22315           0.0000000000
     66607     22203  TIP3      OH2            -4.8239466405      -48.2538622861       29.3232003535  W2        22317           0.0000000000
     66608     22203  TIP3      H1             -5.0194966405      -47.6481822861       28.6082603535  W2        22317           0.0000000000
     66609     22203  TIP3      H2             -4.6426866405      -49.0873422861       28.8888303535  W2        22317           0.0000000000
     66610     22204  TIP3      OH2           -13.6111266405      -48.0165922861       34.6473503535  W2        22318           0.0000000000
     66611     22204  TIP3      H1            -13.6491866405      -47.6164322861       35.5160603535  W2        22318           0.0000000000
     66612     22204  TIP3      H2            -14.1020166405      -48.8333522861       34.7376403535  W2        22318           0.0000000000
     66613     22205  TIP3      OH2           -10.2453866405      -50.6423622861       21.4459503535  W2        22319           0.0000000000
     66614     22205  TIP3      H1            -10.6763166405      -51.0873522861       22.1756903535  W2        22319           0.0000000000
     66615     22205  TIP3      H2            -10.9635166405      -50.2707322861       20.9337003535  W2        22319           0.0000000000
     66616     22206  TIP3      OH2           -17.0030466405      -50.9004122861       28.4978203535  W2        22320           0.0000000000
     66617     22206  TIP3      H1            -16.3722766405      -50.9292022861       29.2172103535  W2        22320           0.0000000000
     66618     22206  TIP3      H2            -16.5536166405      -51.3255422861       27.7674103535  W2        22320           0.0000000000
     66619     22207  TIP3      OH2           -15.7288366405      -50.1542122861       23.9218603535  W2        22321           0.0000000000
     66620     22207  TIP3      H1            -15.2546666405      -49.5632222861       23.3369503535  W2        22321           0.0000000000
     66621     22207  TIP3      H2            -16.4461966405      -49.6239222861       24.2688703535  W2        22321           0.0000000000
     66622     22208  TIP3      OH2            -5.5600266405      -46.6157322861       33.9944403535  W2        22322           0.0000000000
     66623     22208  TIP3      H1             -5.2365466405      -47.2467622861       33.3514903535  W2        22322           0.0000000000
     66624     22208  TIP3      H2             -6.0000966405      -47.1505122861       34.6551803535  W2        22322           0.0000000000
     66625     22209  TIP3      OH2            -8.7827366405      -50.6881822861       28.7785603535  W2        22323           0.0000000000
     66626     22209  TIP3      H1             -9.6936266405      -50.6315022861       29.0671603535  W2        22323           0.0000000000
     66627     22209  TIP3      H2             -8.2774466405      -50.7486322861       29.5892803535  W2        22323           0.0000000000
     66628     22210  TIP3      OH2           -13.9543966405      -49.0595522861       27.6053203535  W2        22324           0.0000000000
     66629     22210  TIP3      H1            -14.8435966405      -48.9600022861       27.2652803535  W2        22324           0.0000000000
     66630     22210  TIP3      H2            -13.6579066405      -49.9012522861       27.2591103535  W2        22324           0.0000000000
     66631     22211  TIP3      OH2           -10.3012166405      -49.0592922861       25.2617803535  W2        22325           0.0000000000
     66632     22211  TIP3      H1             -9.3696666405      -48.9302922861       25.4400903535  W2        22325           0.0000000000
     66633     22211  TIP3      H2            -10.5161866405      -48.3898622861       24.6122503535  W2        22325           0.0000000000
     66634     22212  TIP3      OH2            -4.3775466405      -51.4535522861       32.0427403535  W2        22326           0.0000000000
     66635     22212  TIP3      H1             -5.0543866405      -51.3222422861       32.7067103535  W2        22326           0.0000000000
     66636     22212  TIP3      H2             -4.8630566405      -51.6086022861       31.2325103535  W2        22326           0.0000000000
     66637     22213  TIP3      OH2           -11.6271966405      -47.8650722861       22.8283903535  W2        22327           0.0000000000
     66638     22213  TIP3      H1            -12.1696866405      -48.2446922861       22.1371503535  W2        22327           0.0000000000
     66639     22213  TIP3      H2            -10.7937066405      -47.6706022861       22.3998003535  W2        22327           0.0000000000
     66640     22214  TIP3      OH2            -7.4627666405      -47.9008822861       30.6655203535  W2        22330           0.0000000000
     66641     22214  TIP3      H1             -6.8984266405      -48.4472222861       30.1184803535  W2        22330           0.0000000000
     66642     22214  TIP3      H2             -7.6104266405      -48.4226922861       31.4542803535  W2        22330           0.0000000000
     66643     22215  TIP3      OH2           -12.4607966405      -51.7642722861       27.0840003535  W2        22331           0.0000000000
     66644     22215  TIP3      H1            -12.7778466405      -52.6667422861       27.0485403535  W2        22331           0.0000000000
     66645     22215  TIP3      H2            -11.6793866405      -51.7625322861       26.5311603535  W2        22331           0.0000000000
     66646     22216  TIP3      OH2            -8.8361766405      -49.5122722861       33.0795603535  W2        22332           0.0000000000
     66647     22216  TIP3      H1             -9.6716466405      -49.0583222861       33.1898003535  W2        22332           0.0000000000
     66648     22216  TIP3      H2             -8.3121166405      -49.2364222861       33.8315503535  W2        22332           0.0000000000
     66649     22217  TIP3      OH2            -8.2919166405      -43.2995022861       24.7642003535  W2        22333           0.0000000000
     66650     22217  TIP3      H1             -9.0368166405      -43.8069722861       24.4419903535  W2        22333           0.0000000000
     66651     22217  TIP3      H2             -8.4261966405      -43.2507022861       25.7106803535  W2        22333           0.0000000000
     66652     22218  TIP3      OH2            -1.1420266405      -44.1666822861       33.5509603535  W2        22334           0.0000000000
     66653     22218  TIP3      H1             -0.5001466405      -43.7100522861       33.0071803535  W2        22334           0.0000000000
     66654     22218  TIP3      H2             -1.9723366405      -44.0534422861       33.0883703535  W2        22334           0.0000000000
     66655     22219  TIP3      OH2            -4.3942366405      -50.4855122861       22.9634603535  W2        22335           0.0000000000
     66656     22219  TIP3      H1             -5.3328166405      -50.3739522861       22.8123403535  W2        22335           0.0000000000
     66657     22219  TIP3      H2             -4.0970266405      -49.6288222861       23.2700303535  W2        22335           0.0000000000
     66658     22220  TIP3      OH2            -3.6758866405      -48.6182422861       24.6242003535  W2        22337           0.0000000000
     66659     22220  TIP3      H1             -2.7839866405      -48.7557422861       24.9433203535  W2        22337           0.0000000000
     66660     22220  TIP3      H2             -3.6195266405      -47.8276322861       24.0875503535  W2        22337           0.0000000000
     66661     22221  TIP3      OH2           -13.1670866405      -44.0045022861       30.5339903535  W2        22338           0.0000000000
     66662     22221  TIP3      H1            -12.4223666405      -44.0069322861       29.9326403535  W2        22338           0.0000000000
     66663     22221  TIP3      H2            -13.0894266405      -44.8281222861       31.0155003535  W2        22338           0.0000000000
     66664     22222  TIP3      OH2            -6.1665066405      -41.8410722861       23.7896603535  W2        22339           0.0000000000
     66665     22222  TIP3      H1             -6.4616666405      -41.0142822861       24.1711403535  W2        22339           0.0000000000
     66666     22222  TIP3      H2             -6.8695066405      -42.4603822861       23.9858003535  W2        22339           0.0000000000
     66667     22223  TIP3      OH2             1.2089833595      -48.4088322861       24.3188703535  W2        22343           0.0000000000
     66668     22223  TIP3      H1              0.6546133595      -48.8050322861       23.6466203535  W2        22343           0.0000000000
     66669     22223  TIP3      H2              1.3093433595      -47.4983122861       24.0412003535  W2        22343           0.0000000000
     66670     22224  TIP3      OH2            -0.4958466405      -39.6227922861       24.7840803535  W2        22345           0.0000000000
     66671     22224  TIP3      H1             -0.8687366405      -40.4484122861       25.0931403535  W2        22345           0.0000000000
     66672     22224  TIP3      H2             -0.2184966405      -39.8058522861       23.8864203535  W2        22345           0.0000000000
     66673     22225  TIP3      OH2            -3.3354566405      -44.8148422861       31.8052703535  W2        22346           0.0000000000
     66674     22225  TIP3      H1             -4.2637666405      -45.0466522861       31.7782003535  W2        22346           0.0000000000
     66675     22225  TIP3      H2             -2.8843466405      -45.5918622861       31.4751503535  W2        22346           0.0000000000
     66676     22226  TIP3      OH2           -10.7921466405      -40.4866822861       27.9381403535  W2        22347           0.0000000000
     66677     22226  TIP3      H1            -10.2649266405      -39.7132422861       27.7380203535  W2        22347           0.0000000000
     66678     22226  TIP3      H2            -11.6722966405      -40.2617622861       27.6365403535  W2        22347           0.0000000000
     66679     22227  TIP3      OH2           -15.0373766405      -45.6242722861       22.5253803535  W2        22348           0.0000000000
     66680     22227  TIP3      H1            -14.4213866405      -44.9975522861       22.9048603535  W2        22348           0.0000000000
     66681     22227  TIP3      H2            -15.8991166405      -45.3082922861       22.7970303535  W2        22348           0.0000000000
     66682     22228  TIP3      OH2            -9.3649166405      -42.8236922861       27.5145703535  W2        22349           0.0000000000
     66683     22228  TIP3      H1             -9.6059166405      -41.8982522861       27.5561003535  W2        22349           0.0000000000
     66684     22228  TIP3      H2            -10.1055566405      -43.2825622861       27.9109603535  W2        22349           0.0000000000
     66685     22229  TIP3      OH2            -8.8502566405      -38.6743322861       33.8296803535  W2        22350           0.0000000000
     66686     22229  TIP3      H1             -8.4877866405      -37.8197722861       33.5961203535  W2        22350           0.0000000000
     66687     22229  TIP3      H2             -8.3187366405      -38.9661722861       34.5703103535  W2        22350           0.0000000000
     66688     22230  TIP3      OH2           -10.6818366405      -37.8019322861       27.0597903535  W2        22351           0.0000000000
     66689     22230  TIP3      H1            -11.6317866405      -37.6961922861       27.1111203535  W2        22351           0.0000000000
     66690     22230  TIP3      H2            -10.3300266405      -36.9811922861       27.4045403535  W2        22351           0.0000000000
     66691     22231  TIP3      OH2            -5.3061766405      -42.5752622861       33.5302403535  W2        22352           0.0000000000
     66692     22231  TIP3      H1             -5.7320466405      -42.8030922861       34.3566403535  W2        22352           0.0000000000
     66693     22231  TIP3      H2             -4.7255966405      -43.3140822861       33.3477703535  W2        22352           0.0000000000
     66694     22232  TIP3      OH2            -3.1032866405      -41.6462122861       22.6041403535  W2        22353           0.0000000000
     66695     22232  TIP3      H1             -2.7499766405      -42.0262322861       23.4084903535  W2        22353           0.0000000000
     66696     22232  TIP3      H2             -4.0519366405      -41.7397322861       22.6910703535  W2        22353           0.0000000000
     66697     22233  TIP3      OH2             1.4001533595      -37.1669622861       22.8051603535  W2        22355           0.0000000000
     66698     22233  TIP3      H1              2.1439433595      -36.5809122861       22.6653203535  W2        22355           0.0000000000
     66699     22233  TIP3      H2              0.7059633595      -36.5983822861       23.1384003535  W2        22355           0.0000000000
     66700     22234  TIP3      OH2           -14.5251666405      -50.7905422861       35.4069803535  W2        22356           0.0000000000
     66701     22234  TIP3      H1            -15.4179366405      -50.4520022861       35.3393803535  W2        22356           0.0000000000
     66702     22234  TIP3      H2            -14.6238866405      -51.6459322861       35.8250603535  W2        22356           0.0000000000
     66703     22235  TIP3      OH2            -2.2373566405      -42.9740122861       24.8309303535  W2        22357           0.0000000000
     66704     22235  TIP3      H1             -2.5145966405      -43.7020822861       25.3870403535  W2        22357           0.0000000000
     66705     22235  TIP3      H2             -1.3100566405      -42.8548122861       25.0361903535  W2        22357           0.0000000000
     66706     22236  TIP3      OH2           -14.8739666405      -38.9861022861       33.8419203535  W2        22358           0.0000000000
     66707     22236  TIP3      H1            -14.6569366405      -39.9178622861       33.8108903535  W2        22358           0.0000000000
     66708     22236  TIP3      H2            -14.6276166405      -38.7116022861       34.7252003535  W2        22358           0.0000000000
     66709     22237  TIP3      OH2            -9.0125066405      -40.5346022861       21.0511403535  W2        22359           0.0000000000
     66710     22237  TIP3      H1             -8.7735266405      -41.2827922861       20.5040303535  W2        22359           0.0000000000
     66711     22237  TIP3      H2             -9.2813766405      -40.9224322861       21.8839203535  W2        22359           0.0000000000
     66712     22238  TIP3      OH2           -10.0754466405      -40.9642222861       23.5074003535  W2        22360           0.0000000000
     66713     22238  TIP3      H1             -9.9286466405      -41.4842422861       24.2974903535  W2        22360           0.0000000000
     66714     22238  TIP3      H2            -10.0782766405      -40.0574622861       23.8139903535  W2        22360           0.0000000000
     66715     22239  TIP3      OH2           -13.6223366405      -43.7118922861       24.0179403535  W2        22361           0.0000000000
     66716     22239  TIP3      H1            -14.3084066405      -43.3596422861       24.5849103535  W2        22361           0.0000000000
     66717     22239  TIP3      H2            -13.0995466405      -42.9489322861       23.7713703535  W2        22361           0.0000000000
     66718     22240  TIP3      OH2            -5.7908266405      -51.0495122861       34.2968403535  W2        22362           0.0000000000
     66719     22240  TIP3      H1             -5.0920366405      -50.9756422861       34.9468103535  W2        22362           0.0000000000
     66720     22240  TIP3      H2             -6.1716866405      -51.9140122861       34.4511303535  W2        22362           0.0000000000
     66721     22241  TIP3      OH2            -5.0063366405      -51.3973422861       25.3940703535  W2        22363           0.0000000000
     66722     22241  TIP3      H1             -4.7865066405      -50.9258022861       24.5906103535  W2        22363           0.0000000000
     66723     22241  TIP3      H2             -4.4479366405      -51.0030822861       26.0641303535  W2        22363           0.0000000000
     66724     22242  TIP3      OH2            -7.3377266405      -39.2668622861       24.2568203535  W2        22364           0.0000000000
     66725     22242  TIP3      H1             -8.1541166405      -38.7698922861       24.3092503535  W2        22364           0.0000000000
     66726     22242  TIP3      H2             -6.8080966405      -38.7915122861       23.6167003535  W2        22364           0.0000000000
     66727     22243  TIP3      OH2            -7.8063466405      -49.6694622861       26.2289103535  W2        22365           0.0000000000
     66728     22243  TIP3      H1             -6.9940866405      -49.1651422861       26.2750803535  W2        22365           0.0000000000
     66729     22243  TIP3      H2             -8.0510466405      -49.8144922861       27.1428703535  W2        22365           0.0000000000
     66730     22244  TIP3      OH2            -7.2707066405      -48.6831922861       35.4135703535  W2        22366           0.0000000000
     66731     22244  TIP3      H1             -7.1516766405      -48.1096522861       36.1706103535  W2        22366           0.0000000000
     66732     22244  TIP3      H2             -6.6152466405      -49.3712522861       35.5283503535  W2        22366           0.0000000000
     66733     22245  TIP3      OH2            -6.9226766405      -52.5881622861       27.1670203535  W2        22367           0.0000000000
     66734     22245  TIP3      H1             -7.2693266405      -51.9711022861       27.8114503535  W2        22367           0.0000000000
     66735     22245  TIP3      H2             -6.2639866405      -52.0875922861       26.6855703535  W2        22367           0.0000000000
     66736     22246  TIP3      OH2            -9.9994166405      -38.2231422861       24.2385103535  W2        22368           0.0000000000
     66737     22246  TIP3      H1             -9.8385466405      -37.4233922861       23.7377703535  W2        22368           0.0000000000
     66738     22246  TIP3      H2            -10.1966366405      -37.9165422861       25.1235703535  W2        22368           0.0000000000
     66739     22247  TIP3      OH2           -11.2649766405      -51.5252222861       23.8542703535  W2        22369           0.0000000000
     66740     22247  TIP3      H1            -11.3484966405      -50.6369122861       24.2009103535  W2        22369           0.0000000000
     66741     22247  TIP3      H2            -10.3749466405      -51.7905522861       24.0859503535  W2        22369           0.0000000000
     66742     22248  TIP3      OH2            -2.4640266405      -47.0260622861       30.3442703535  W2        22371           0.0000000000
     66743     22248  TIP3      H1             -3.2615866405      -47.4410422861       30.0157703535  W2        22371           0.0000000000
     66744     22248  TIP3      H2             -2.0189166405      -47.7166922861       30.8353203535  W2        22371           0.0000000000
     66745     22249  TIP3      OH2           -13.0064466405      -41.0980022861       22.9147203535  W2        22372           0.0000000000
     66746     22249  TIP3      H1            -12.4142966405      -40.3985222861       23.1909603535  W2        22372           0.0000000000
     66747     22249  TIP3      H2            -12.5471466405      -41.5310522861       22.1951803535  W2        22372           0.0000000000
     66748     22250  TIP3      OH2           -14.6905266405      -48.4337022861       22.0306603535  W2        22373           0.0000000000
     66749     22250  TIP3      H1            -14.7352666405      -47.4943922861       22.2093603535  W2        22373           0.0000000000
     66750     22250  TIP3      H2            -15.5782066405      -48.6692122861       21.7608703535  W2        22373           0.0000000000
     66751     22251  TIP3      OH2            -1.3775666405      -37.7698122861       31.9666203535  W2        22374           0.0000000000
     66752     22251  TIP3      H1             -1.5331366405      -37.0913722861       31.3095503535  W2        22374           0.0000000000
     66753     22251  TIP3      H2             -0.4449266405      -37.6978822861       32.1696803535  W2        22374           0.0000000000
     66754     22252  TIP3      OH2           -13.8823266405      -53.6520422861       30.7037603535  W2        22375           0.0000000000
     66755     22252  TIP3      H1            -14.1113466405      -53.5927922861       29.7762603535  W2        22375           0.0000000000
     66756     22252  TIP3      H2            -14.3249866405      -54.4434922861       31.0101703535  W2        22375           0.0000000000
     66757     22253  TIP3      OH2           -14.9519966405      -39.7113322861       26.8643403535  W2        22376           0.0000000000
     66758     22253  TIP3      H1            -15.7841366405      -39.2390622861       26.8914803535  W2        22376           0.0000000000
     66759     22253  TIP3      H2            -14.4061666405      -39.2015722861       26.2656503535  W2        22376           0.0000000000
     66760     22254  TIP3      OH2            -6.9743266405      -38.6714622861       21.1897403535  W2        22379           0.0000000000
     66761     22254  TIP3      H1             -7.6182266405      -39.3026022861       21.5111103535  W2        22379           0.0000000000
     66762     22254  TIP3      H2             -6.2124966405      -39.2026622861       20.9580903535  W2        22379           0.0000000000
     66763     22255  TIP3      OH2            -2.3700366405      -38.8544722861       21.4235403535  W2        22381           0.0000000000
     66764     22255  TIP3      H1             -2.0869966405      -39.6489522861       21.8762303535  W2        22381           0.0000000000
     66765     22255  TIP3      H2             -1.6302466405      -38.6213722861       20.8626503535  W2        22381           0.0000000000
     66766     22256  TIP3      OH2           -11.4153066405      -42.9449822861       21.2810303535  W2        22383           0.0000000000
     66767     22256  TIP3      H1            -11.3508966405      -43.7390222861       21.8116703535  W2        22383           0.0000000000
     66768     22256  TIP3      H2            -10.7623866405      -43.0637022861       20.5912303535  W2        22383           0.0000000000
     66769     22257  TIP3      OH2            -6.0629666405      -41.8978122861       21.0168303535  W2        22385           0.0000000000
     66770     22257  TIP3      H1             -6.3315566405      -41.7176022861       21.9177203535  W2        22385           0.0000000000
     66771     22257  TIP3      H2             -6.2694066405      -42.8231922861       20.8854103535  W2        22385           0.0000000000
     66772     22258  TIP3      OH2           -10.2659266405      -44.9723622861       23.5868303535  W2        22388           0.0000000000
     66773     22258  TIP3      H1            -10.7257266405      -45.4565322861       24.2726803535  W2        22388           0.0000000000
     66774     22258  TIP3      H2            -10.0110566405      -45.6408222861       22.9508803535  W2        22388           0.0000000000
     66775     22259  TIP3      OH2            -9.1948866405      -46.7291822861       21.8491503535  W2        22390           0.0000000000
     66776     22259  TIP3      H1             -9.3753866405      -46.8840622861       20.9219803535  W2        22390           0.0000000000
     66777     22259  TIP3      H2             -8.2448366405      -46.6213122861       21.8939403535  W2        22390           0.0000000000
     66778     22260  TIP3      OH2             0.1949433595      -44.3747622861       21.2949603535  W2        22392           0.0000000000
     66779     22260  TIP3      H1             -0.0785766405      -44.7992122861       20.4817903535  W2        22392           0.0000000000
     66780     22260  TIP3      H2              0.2343533595      -43.4433122861       21.0780003535  W2        22392           0.0000000000
     66781     22261  TIP3      OH2           -10.2250566405      -51.3549922861       34.5178403535  W2        22394           0.0000000000
     66782     22261  TIP3      H1             -9.6893066405      -50.9033222861       33.8657703535  W2        22394           0.0000000000
     66783     22261  TIP3      H2            -11.0770966405      -51.4630122861       34.0952503535  W2        22394           0.0000000000
     66784     22262  TIP3      OH2            -8.6432166405      -45.9153722861       34.7573603535  W2        22395           0.0000000000
     66785     22262  TIP3      H1             -7.8927366405      -46.0716222861       34.1841403535  W2        22395           0.0000000000
     66786     22262  TIP3      H2             -8.9823866405      -45.0637122861       34.4819103535  W2        22395           0.0000000000
     66787     22263  TIP3      OH2            -9.4195066405      -53.8984222861       34.9492003535  W2        22399           0.0000000000
     66788     22263  TIP3      H1             -9.5175466405      -52.9521022861       34.8438203535  W2        22399           0.0000000000
     66789     22263  TIP3      H2            -10.1618866405      -54.2710422861       34.4735503535  W2        22399           0.0000000000
     66790     22264  TIP3      OH2            -9.2977166405      -36.0388122861       22.8505103535  W2        22406           0.0000000000
     66791     22264  TIP3      H1             -8.3646466405      -35.8809422861       22.9943503535  W2        22406           0.0000000000
     66792     22264  TIP3      H2             -9.5618366405      -35.3635122861       22.2256603535  W2        22406           0.0000000000
     66793     22265  TIP3      OH2           -15.7292266405      -41.4024322861       22.3333203535  W2        22407           0.0000000000
     66794     22265  TIP3      H1            -14.8153066405      -41.3235422861       22.6067103535  W2        22407           0.0000000000
     66795     22265  TIP3      H2            -15.7219166405      -42.0894722861       21.6668803535  W2        22407           0.0000000000
     66796     22266  TIP3      OH2           -17.0801666405      -36.0095822861       27.4107103535  W2        22408           0.0000000000
     66797     22266  TIP3      H1            -17.7274566405      -36.4714122861       26.8778303535  W2        22408           0.0000000000
     66798     22266  TIP3      H2            -16.7257066405      -36.6812522861       27.9933303535  W2        22408           0.0000000000
     66799     22267  TIP3      OH2           -16.2102466405      -37.9288822861       29.2153303535  W2        22409           0.0000000000
     66800     22267  TIP3      H1            -16.5445666405      -38.8091522861       29.3873503535  W2        22409           0.0000000000
     66801     22267  TIP3      H2            -15.9880066405      -37.5833822861       30.0798903535  W2        22409           0.0000000000
     66802     22268  TIP3      OH2             1.3382333595      -37.1192422861       32.1958103535  W2        22410           0.0000000000
     66803     22268  TIP3      H1              1.3169033595      -36.9344022861       33.1347503535  W2        22410           0.0000000000
     66804     22268  TIP3      H2              2.0288533595      -36.5508422861       31.8549503535  W2        22410           0.0000000000
     66805     22269  TIP3      OH2             0.9015233595      -37.5521322861       35.1177203535  W2        22411           0.0000000000
     66806     22269  TIP3      H1              0.4143933595      -38.2877222861       34.7464603535  W2        22411           0.0000000000
     66807     22269  TIP3      H2              1.4507933595      -37.9457422861       35.7956603535  W2        22411           0.0000000000
     66808     22270  TIP3      OH2             0.6532233595      -43.5059522861       25.2700003535  W2        22413           0.0000000000
     66809     22270  TIP3      H1              1.5033633595      -43.0848622861       25.3971603535  W2        22413           0.0000000000
     66810     22270  TIP3      H2              0.6587333595      -44.2459422861       25.8771403535  W2        22413           0.0000000000
     66811     22271  TIP3      OH2             1.0477833595      -45.4522122861       27.0935703535  W2        22414           0.0000000000
     66812     22271  TIP3      H1              0.3212433595      -45.9319522861       27.4913303535  W2        22414           0.0000000000
     66813     22271  TIP3      H2              1.6291133595      -45.2467422861       27.8257303535  W2        22414           0.0000000000
     66814     22272  TIP3      OH2             0.8069033595      -42.6674622861       32.0413303535  W2        22415           0.0000000000
     66815     22272  TIP3      H1              1.6403233595      -43.0454622861       31.7606903535  W2        22415           0.0000000000
     66816     22272  TIP3      H2              0.9189333595      -41.7243422861       31.9222403535  W2        22415           0.0000000000
     66817     22273  TIP3      OH2            -0.7068666405      -39.7897122861       34.3481703535  W2        22416           0.0000000000
     66818     22273  TIP3      H1             -1.3543366405      -39.4645622861       34.9736903535  W2        22416           0.0000000000
     66819     22273  TIP3      H2             -1.2244666405      -40.2299422861       33.6740003535  W2        22416           0.0000000000
     66820     22274  TIP3      OH2             1.3160933595      -45.5513622861       23.4847003535  W2        22417           0.0000000000
     66821     22274  TIP3      H1              0.7942033595      -45.1949522861       22.7657903535  W2        22417           0.0000000000
     66822     22274  TIP3      H2              1.2830133595      -44.8765822861       24.1627903535  W2        22417           0.0000000000
     66823     22275  TIP3      OH2            -0.3350066405      -48.3118022861       22.0354103535  W2        22418           0.0000000000
     66824     22275  TIP3      H1             -0.2385666405      -47.6451022861       21.3553803535  W2        22418           0.0000000000
     66825     22275  TIP3      H2             -0.4750466405      -49.1271722861       21.5539603535  W2        22418           0.0000000000
     66826     22276  TIP3      OH2            -1.1655366405      -46.9315622861       27.6564403535  W2        22419           0.0000000000
     66827     22276  TIP3      H1             -1.3156566405      -47.8767022861       27.6362203535  W2        22419           0.0000000000
     66828     22276  TIP3      H2             -1.5190866405      -46.6504222861       28.5003503535  W2        22419           0.0000000000
     66829     22277  TIP3      OH2           -16.1302966405      -44.8533422861       31.6668203535  W2        22420           0.0000000000
     66830     22277  TIP3      H1            -15.9460066405      -44.9351722861       30.7311103535  W2        22420           0.0000000000
     66831     22277  TIP3      H2            -15.2810066405      -44.9776422861       32.0904603535  W2        22420           0.0000000000
     66832     22278  TIP3      OH2            -1.0876266405      -50.9038222861       21.1529603535  W2        22423           0.0000000000
     66833     22278  TIP3      H1             -0.4770466405      -51.2751422861       21.7897803535  W2        22423           0.0000000000
     66834     22278  TIP3      H2             -1.9244766405      -51.3251322861       21.3489603535  W2        22423           0.0000000000
     66835     22279  TIP3      OH2            -1.4550566405      -49.3489822861       26.1189503535  W2        22424           0.0000000000
     66836     22279  TIP3      H1             -1.1753466405      -50.2559422861       26.2431203535  W2        22424           0.0000000000
     66837     22279  TIP3      H2             -0.6958866405      -48.9148322861       25.7298703535  W2        22424           0.0000000000
     66838     22280  TIP3      OH2            -0.8432266405      -48.7672422861       31.5548403535  W2        22425           0.0000000000
     66839     22280  TIP3      H1              0.0895733595      -48.5552522861       31.5204403535  W2        22425           0.0000000000
     66840     22280  TIP3      H2             -1.0784766405      -48.6660322861       32.4771403535  W2        22425           0.0000000000
     66841     22281  TIP3      OH2            -0.8140366405      -48.0307122861       34.3307803535  W2        22426           0.0000000000
     66842     22281  TIP3      H1             -1.6569066405      -47.7626722861       34.6967603535  W2        22426           0.0000000000
     66843     22281  TIP3      H2             -0.3716066405      -47.2085222861       34.1198903535  W2        22426           0.0000000000
     66844     22282  TIP3      OH2            -0.8415766405      -52.0860522861       26.1671503535  W2        22429           0.0000000000
     66845     22282  TIP3      H1             -0.6590766405      -52.5349022861       26.9926503535  W2        22429           0.0000000000
     66846     22282  TIP3      H2             -1.4412866405      -52.6706122861       25.7036103535  W2        22429           0.0000000000
     66847     22283  TIP3      OH2           -15.3115666405      -51.2706822861       30.6989903535  W2        22430           0.0000000000
     66848     22283  TIP3      H1            -14.8664066405      -52.0624322861       31.0009603535  W2        22430           0.0000000000
     66849     22283  TIP3      H2            -14.8452666405      -50.5541622861       31.1295503535  W2        22430           0.0000000000
     66850     22284  TIP3      OH2           -17.0075366405      -48.2713822861       31.7680103535  W2        22431           0.0000000000
     66851     22284  TIP3      H1            -16.5155566405      -48.4923322861       30.9772103535  W2        22431           0.0000000000
     66852     22284  TIP3      H2            -16.6454466405      -47.4310422861       32.0489603535  W2        22431           0.0000000000
     66853     22285  TIP3      OH2             1.0250433595      -52.0182422861       22.6951803535  W2        22433           0.0000000000
     66854     22285  TIP3      H1              1.4373033595      -52.7396722861       22.2199803535  W2        22433           0.0000000000
     66855     22285  TIP3      H2              1.7066933595      -51.3487822861       22.7536103535  W2        22433           0.0000000000
     66856     22286  TIP3      OH2           -16.6938866405      -52.0134722861       25.8222503535  W2        22434           0.0000000000
     66857     22286  TIP3      H1            -17.6190466405      -51.8048122861       25.6928003535  W2        22434           0.0000000000
     66858     22286  TIP3      H2            -16.2398966405      -51.5293922861       25.1324803535  W2        22434           0.0000000000
     66859     22287  TIP3      OH2            -1.9231666405      -37.0293022861       27.7679903535  W2        22435           0.0000000000
     66860     22287  TIP3      H1             -1.2708766405      -37.3770922861       27.1599003535  W2        22435           0.0000000000
     66861     22287  TIP3      H2             -1.4127866405      -36.5409822861       28.4139603535  W2        22435           0.0000000000
     66862     22288  TIP3      OH2           -16.7303466405      -53.2755722861       34.1665003535  W2        22436           0.0000000000
     66863     22288  TIP3      H1            -17.3952966405      -53.5215422861       34.8095903535  W2        22436           0.0000000000
     66864     22288  TIP3      H2            -17.1732166405      -52.6535322861       33.5893003535  W2        22436           0.0000000000
     66865     22289  TIP3      OH2           -11.5841266405      -39.1260422861       34.5694803535  W2        22438           0.0000000000
     66866     22289  TIP3      H1            -12.0090166405      -38.3161922861       34.2869403535  W2        22438           0.0000000000
     66867     22289  TIP3      H2            -10.6798466405      -39.0406322861       34.2674603535  W2        22438           0.0000000000
     66868     22290  TIP3      OH2           -14.1824566405      -35.8696522861       34.6170103535  W2        22442           0.0000000000
     66869     22290  TIP3      H1            -14.9028166405      -35.4295522861       34.1657803535  W2        22442           0.0000000000
     66870     22290  TIP3      H2            -14.5480566405      -36.1201822861       35.4654103535  W2        22442           0.0000000000
     66871     22291  TIP3      OH2           -11.7151966405      -36.2692622861       33.6467303535  W2        22443           0.0000000000
     66872     22291  TIP3      H1            -12.5799766405      -36.1974122861       34.0507403535  W2        22443           0.0000000000
     66873     22291  TIP3      H2            -11.7702966405      -35.7225322861       32.8629803535  W2        22443           0.0000000000
     66874     22292  TIP3      OH2            -7.0046366405      -36.3813722861       32.8223303535  W2        22444           0.0000000000
     66875     22292  TIP3      H1             -7.4612366405      -35.8524022861       32.1681703535  W2        22444           0.0000000000
     66876     22292  TIP3      H2             -6.8418366405      -35.7782322861       33.5475603535  W2        22444           0.0000000000
     66877     22293  TIP3      OH2            -4.6770066405      -37.5034122861       33.7673603535  W2        22445           0.0000000000
     66878     22293  TIP3      H1             -5.5816366405      -37.3383922861       33.5015703535  W2        22445           0.0000000000
     66879     22293  TIP3      H2             -4.2481466405      -36.6501922861       33.7017003535  W2        22445           0.0000000000
     66880     22294  TIP3      OH2            -2.0728166405      -35.9335022861       34.0621403535  W2        22446           0.0000000000
     66881     22294  TIP3      H1             -2.2546166405      -35.0176122861       33.8516303535  W2        22446           0.0000000000
     66882     22294  TIP3      H2             -1.8960366405      -36.3437922861       33.2156003535  W2        22446           0.0000000000
     66883     22295  TIP3      OH2           -14.7676466405      -37.2464022861       31.5271903535  W2        22447           0.0000000000
     66884     22295  TIP3      H1            -14.7860466405      -37.6718922861       32.3844203535  W2        22447           0.0000000000
     66885     22295  TIP3      H2            -13.9628566405      -37.5649022861       31.1184103535  W2        22447           0.0000000000
     66886     22296  TIP3      OH2           -12.6263366405      -38.5365322861       30.1821803535  W2        22448           0.0000000000
     66887     22296  TIP3      H1            -12.8452666405      -39.4527922861       30.3517803535  W2        22448           0.0000000000
     66888     22296  TIP3      H2            -11.8021166405      -38.3964922861       30.6483203535  W2        22448           0.0000000000
     66889     22297  TIP3      OH2           -10.0890866405      -38.0666022861       31.0309803535  W2        22449           0.0000000000
     66890     22297  TIP3      H1             -9.8765166405      -38.9547022861       30.7440703535  W2        22449           0.0000000000
     66891     22297  TIP3      H2            -10.0245766405      -38.1008322861       31.9853803535  W2        22449           0.0000000000
     66892     22298  TIP3      OH2            -6.5807166405      -52.4025422861       30.1753103535  W2        22450           0.0000000000
     66893     22298  TIP3      H1             -7.2550366405      -53.0319822861       30.4308903535  W2        22450           0.0000000000
     66894     22298  TIP3      H2             -6.0167966405      -52.8866522861       29.5721003535  W2        22450           0.0000000000
     66895     22299  TIP3      OH2            -1.4379966405      -54.2951422861       30.2880203535  W2        22451           0.0000000000
     66896     22299  TIP3      H1             -0.8342366405      -53.7476022861       29.7861203535  W2        22451           0.0000000000
     66897     22299  TIP3      H2             -2.3077966405      -53.9761022861       30.0474303535  W2        22451           0.0000000000
     66898     22300  TIP3      OH2             0.2890433595      -53.1562722861       28.6211103535  W2        22452           0.0000000000
     66899     22300  TIP3      H1              0.9007933595      -53.6707022861       28.0944703535  W2        22452           0.0000000000
     66900     22300  TIP3      H2              0.6713833595      -52.2790622861       28.6445503535  W2        22452           0.0000000000
     66901     22301  TIP3      OH2           -14.2539666405      -53.7685122861       27.9973003535  W2        22453           0.0000000000
     66902     22301  TIP3      H1            -15.0309866405      -54.0030222861       27.4898903535  W2        22453           0.0000000000
     66903     22301  TIP3      H2            -13.7236066405      -54.5653022861       28.0061003535  W2        22453           0.0000000000
     66904     22302  TIP3      OH2           -15.4176266405      -53.9707022861       23.8009103535  W2        22454           0.0000000000
     66905     22302  TIP3      H1            -14.9785566405      -53.3596522861       23.2092603535  W2        22454           0.0000000000
     66906     22302  TIP3      H2            -16.0513866405      -53.4322922861       24.2749103535  W2        22454           0.0000000000
     66907     22303  TIP3      OH2            -9.6747066405      -53.8418022861       27.8106103535  W2        22455           0.0000000000
     66908     22303  TIP3      H1             -8.8003666405      -53.4533722861       27.7810403535  W2        22455           0.0000000000
     66909     22303  TIP3      H2             -9.8106266405      -54.0570222861       28.7333303535  W2        22455           0.0000000000
     66910     22304  TIP3      OH2            -4.1178666405      -53.8118222861       29.4597803535  W2        22456           0.0000000000
     66911     22304  TIP3      H1             -4.0417066405      -53.7166622861       28.5103803535  W2        22456           0.0000000000
     66912     22304  TIP3      H2             -4.3929466405      -54.7195322861       29.5886903535  W2        22456           0.0000000000
     66913     22305  TIP3      OH2            -2.7646066405      -53.7860422861       25.1522803535  W2        22457           0.0000000000
     66914     22305  TIP3      H1             -3.4674966405      -53.1711222861       24.9424203535  W2        22457           0.0000000000
     66915     22305  TIP3      H2             -3.2094666405      -54.6233722861       25.2833703535  W2        22457           0.0000000000
     66916     22306  TIP3      OH2           -15.5166766405      -38.0224822861       24.6984203535  W2        22458           0.0000000000
     66917     22306  TIP3      H1            -16.2016866405      -38.0605922861       24.0309303535  W2        22458           0.0000000000
     66918     22306  TIP3      H2            -15.5129566405      -37.1097222861       24.9866303535  W2        22458           0.0000000000
     66919     22307  TIP3      OH2           -13.5567166405      -52.0545522861       22.2433203535  W2        22459           0.0000000000
     66920     22307  TIP3      H1            -13.0653766405      -52.6843122861       21.7158703535  W2        22459           0.0000000000
     66921     22307  TIP3      H2            -12.9330866405      -51.7586122861       22.9064403535  W2        22459           0.0000000000
     66922     22308  TIP3      OH2            -8.5307066405      -51.7614022861       24.7003703535  W2        22460           0.0000000000
     66923     22308  TIP3      H1             -8.3525766405      -52.4080822861       25.3832303535  W2        22460           0.0000000000
     66924     22308  TIP3      H2             -8.5840866405      -50.9276322861       25.1674803535  W2        22460           0.0000000000
     66925     22309  TIP3      OH2            -6.6523266405      -36.8129922861       23.0960403535  W2        22461           0.0000000000
     66926     22309  TIP3      H1             -5.7863066405      -36.4462522861       22.9178603535  W2        22461           0.0000000000
     66927     22309  TIP3      H2             -6.8990466405      -37.2521922861       22.2821203535  W2        22461           0.0000000000
     66928     22310  TIP3      OH2             0.0566333595      -37.2499622861       25.7751503535  W2        22462           0.0000000000
     66929     22310  TIP3      H1             -0.1376566405      -37.9977522861       25.2101103535  W2        22462           0.0000000000
     66930     22310  TIP3      H2              0.0176433595      -36.4919522861       25.1919403535  W2        22462           0.0000000000
     66931     22311  TIP3      OH2           -13.6985566405      -37.1024022861       21.7236303535  W2        22465           0.0000000000
     66932     22311  TIP3      H1            -13.9660966405      -36.8161122861       22.5969403535  W2        22465           0.0000000000
     66933     22311  TIP3      H2            -12.9272966405      -37.6484822861       21.8758803535  W2        22465           0.0000000000
     66934     22312  TIP3      OH2            13.6802933595      -44.6122822861       27.9560503535  W2        22468           0.0000000000
     66935     22312  TIP3      H1             13.7694033595      -43.6684622861       27.8237603535  W2        22468           0.0000000000
     66936     22312  TIP3      H2             13.0420533595      -44.8876422861       27.2979903535  W2        22468           0.0000000000
     66937     22313  TIP3      OH2            12.6134233595      -45.3572122861       31.3748703535  W2        22469           0.0000000000
     66938     22313  TIP3      H1             12.5751733595      -46.0035822861       32.0798303535  W2        22469           0.0000000000
     66939     22313  TIP3      H2             12.2910733595      -45.8237722861       30.6037403535  W2        22469           0.0000000000
     66940     22314  TIP3      OH2             4.9819233595      -45.7430022861       32.9678603535  W2        22470           0.0000000000
     66941     22314  TIP3      H1              5.0231333595      -46.3686722861       33.6911003535  W2        22470           0.0000000000
     66942     22314  TIP3      H2              5.6846933595      -45.1191422861       33.1499003535  W2        22470           0.0000000000
     66943     22315  TIP3      OH2            16.3194433595      -42.4181722861       29.6763803535  W2        22471           0.0000000000
     66944     22315  TIP3      H1             15.8787133595      -43.1385722861       30.1269403535  W2        22471           0.0000000000
     66945     22315  TIP3      H2             16.3064133595      -41.6974522861       30.3061503535  W2        22471           0.0000000000
     66946     22316  TIP3      OH2             5.9052333595      -41.2931122861       31.5027703535  W2        22472           0.0000000000
     66947     22316  TIP3      H1              5.5357533595      -42.0950622861       31.1332003535  W2        22472           0.0000000000
     66948     22316  TIP3      H2              6.8463433595      -41.4616222861       31.5491103535  W2        22472           0.0000000000
     66949     22317  TIP3      OH2             2.5152833595      -47.6328522861       26.8956503535  W2        22473           0.0000000000
     66950     22317  TIP3      H1              2.0676233595      -46.7869822861       26.8773003535  W2        22473           0.0000000000
     66951     22317  TIP3      H2              1.9544033595      -48.2124322861       26.3801603535  W2        22473           0.0000000000
     66952     22318  TIP3      OH2             3.2258933595      -45.4708922861       29.0214503535  W2        22474           0.0000000000
     66953     22318  TIP3      H1              3.4392433595      -46.2407322861       29.5487503535  W2        22474           0.0000000000
     66954     22318  TIP3      H2              3.9636533595      -45.3812222861       28.4182103535  W2        22474           0.0000000000
     66955     22319  TIP3      OH2            13.4309933595      -37.3140022861       29.8884203535  W2        22475           0.0000000000
     66956     22319  TIP3      H1             14.0506333595      -37.9905322861       29.6153403535  W2        22475           0.0000000000
     66957     22319  TIP3      H2             13.2227333595      -37.5319222861       30.7969103535  W2        22475           0.0000000000
     66958     22320  TIP3      OH2            11.0028633595      -42.9250722861       31.7809703535  W2        22476           0.0000000000
     66959     22320  TIP3      H1             11.3066533595      -43.6109322861       31.1863803535  W2        22476           0.0000000000
     66960     22320  TIP3      H2             11.7242633595      -42.8062022861       32.3987703535  W2        22476           0.0000000000
     66961     22321  TIP3      OH2            19.6658433595      -51.3235422861       32.6415903535  W2        22477           0.0000000000
     66962     22321  TIP3      H1             19.7150633595      -50.7134222861       33.3775003535  W2        22477           0.0000000000
     66963     22321  TIP3      H2             20.0913533595      -50.8624522861       31.9187003535  W2        22477           0.0000000000
     66964     22322  TIP3      OH2            14.1435633595      -48.5308322861       32.1084503535  W2        22478           0.0000000000
     66965     22322  TIP3      H1             14.2861533595      -49.4771322861       32.1286103535  W2        22478           0.0000000000
     66966     22322  TIP3      H2             14.0374633595      -48.3238522861       31.1799403535  W2        22478           0.0000000000
     66967     22323  TIP3      OH2             7.2983933595      -50.4291922861       29.3809303535  W2        22479           0.0000000000
     66968     22323  TIP3      H1              7.3415033595      -49.5693422861       28.9625603535  W2        22479           0.0000000000
     66969     22323  TIP3      H2              6.8408033595      -50.9817222861       28.7472503535  W2        22479           0.0000000000
     66970     22324  TIP3      OH2            15.0206633595      -50.2986322861       27.7817603535  W2        22480           0.0000000000
     66971     22324  TIP3      H1             15.6670933595      -50.6273122861       28.4065203535  W2        22480           0.0000000000
     66972     22324  TIP3      H2             15.5306033595      -49.7807322861       27.1589003535  W2        22480           0.0000000000
     66973     22325  TIP3      OH2             3.9185433595      -48.0326122861       30.1430703535  W2        22481           0.0000000000
     66974     22325  TIP3      H1              4.5722033595      -48.5824422861       30.5750803535  W2        22481           0.0000000000
     66975     22325  TIP3      H2              3.9424733595      -48.3067122861       29.2262703535  W2        22481           0.0000000000
     66976     22326  TIP3      OH2             9.0749933595      -46.4824822861       29.3582203535  W2        22482           0.0000000000
     66977     22326  TIP3      H1              9.6910933595      -47.0089422861       29.8676203535  W2        22482           0.0000000000
     66978     22326  TIP3      H2              8.4888733595      -47.1226122861       28.9545803535  W2        22482           0.0000000000
     66979     22327  TIP3      OH2            20.0573033595      -49.8456222861       34.8775703535  W2        22483           0.0000000000
     66980     22327  TIP3      H1             19.3687633595      -49.1875522861       34.7822303535  W2        22483           0.0000000000
     66981     22327  TIP3      H2             20.0727633595      -50.0428322861       35.8141103535  W2        22483           0.0000000000
     66982     22328  TIP3      OH2             6.1085833595      -51.5113522861       33.4550103535  W2        22484           0.0000000000
     66983     22328  TIP3      H1              5.8897533595      -50.9812922861       32.6886103535  W2        22484           0.0000000000
     66984     22328  TIP3      H2              5.4406733595      -51.2848022861       34.1021503535  W2        22484           0.0000000000
     66985     22329  TIP3      OH2            13.4775633595      -42.0112422861       26.9989203535  W2        22485           0.0000000000
     66986     22329  TIP3      H1             13.1820733595      -42.3340122861       26.1476103535  W2        22485           0.0000000000
     66987     22329  TIP3      H2             13.1533433595      -41.1115722861       27.0401803535  W2        22485           0.0000000000
     66988     22330  TIP3      OH2             8.6777233595      -43.8357822861       33.7423803535  W2        22486           0.0000000000
     66989     22330  TIP3      H1              7.9376333595      -43.2376322861       33.8459003535  W2        22486           0.0000000000
     66990     22330  TIP3      H2              9.3916733595      -43.2818222861       33.4267403535  W2        22486           0.0000000000
     66991     22331  TIP3      OH2            16.7845033595      -51.0077022861       29.7623503535  W2        22487           0.0000000000
     66992     22331  TIP3      H1             16.5693033595      -51.7733622861       30.2949503535  W2        22487           0.0000000000
     66993     22331  TIP3      H2             17.4402433595      -50.5352422861       30.2752003535  W2        22487           0.0000000000
     66994     22332  TIP3      OH2             5.7023133595      -49.6191722861       31.4072303535  W2        22488           0.0000000000
     66995     22332  TIP3      H1              6.3159433595      -48.9864122861       31.7804703535  W2        22488           0.0000000000
     66996     22332  TIP3      H2              6.2143833595      -50.0916722861       30.7509203535  W2        22488           0.0000000000
     66997     22333  TIP3      OH2             7.0851533595      -41.8714822861       34.5295303535  W2        22489           0.0000000000
     66998     22333  TIP3      H1              7.0799133595      -40.9921322861       34.1514603535  W2        22489           0.0000000000
     66999     22333  TIP3      H2              6.2315633595      -41.9550722861       34.9545203535  W2        22489           0.0000000000
     67000     22334  TIP3      OH2             3.2062433595      -42.2006922861       25.3114603535  W2        22490           0.0000000000
     67001     22334  TIP3      H1              2.9343333595      -41.9715922861       24.4227503535  W2        22490           0.0000000000
     67002     22334  TIP3      H2              3.2518133595      -41.3628122861       25.7719903535  W2        22490           0.0000000000
     67003     22335  TIP3      OH2            16.8312133595      -40.5791022861       32.0243103535  W2        22491           0.0000000000
     67004     22335  TIP3      H1             15.8895833595      -40.5207122861       32.1860003535  W2        22491           0.0000000000
     67005     22335  TIP3      H2             17.1078233595      -39.6730522861       31.8872803535  W2        22491           0.0000000000
     67006     22336  TIP3      OH2            17.1319133595      -52.2925722861       33.4417003535  W2        22492           0.0000000000
     67007     22336  TIP3      H1             16.3958333595      -51.6818622861       33.4038303535  W2        22492           0.0000000000
     67008     22336  TIP3      H2             17.8153133595      -51.8776722861       32.9153403535  W2        22492           0.0000000000
     67009     22337  TIP3      OH2            10.1350533595      -54.2058422861       30.9075003535  W2        22493           0.0000000000
     67010     22337  TIP3      H1             10.0174733595      -55.1542422861       30.8533303535  W2        22493           0.0000000000
     67011     22337  TIP3      H2              9.2800633595      -53.8732322861       31.1806103535  W2        22493           0.0000000000
     67012     22338  TIP3      OH2            15.0833333595      -38.7977522861       28.6494703535  W2        22494           0.0000000000
     67013     22338  TIP3      H1             15.5085633595      -39.5049622861       28.1644303535  W2        22494           0.0000000000
     67014     22338  TIP3      H2             15.4003333595      -37.9964822861       28.2326903535  W2        22494           0.0000000000
     67015     22339  TIP3      OH2            16.2429833595      -40.8969022861       27.1581303535  W2        22495           0.0000000000
     67016     22339  TIP3      H1             15.9854633595      -41.5868922861       26.5467203535  W2        22495           0.0000000000
     67017     22339  TIP3      H2             16.3140633595      -41.3397822861       28.0037203535  W2        22495           0.0000000000
     67018     22340  TIP3      OH2            12.4015433595      -45.3682822861       25.4080803535  W2        22497           0.0000000000
     67019     22340  TIP3      H1             11.6900933595      -44.8333122861       25.0561303535  W2        22497           0.0000000000
     67020     22340  TIP3      H2             13.0925033595      -45.3130722861       24.7479703535  W2        22497           0.0000000000
     67021     22341  TIP3      OH2            12.4554633595      -46.9108522861       22.4465803535  W2        22498           0.0000000000
     67022     22341  TIP3      H1             13.1564533595      -46.8881622861       23.0979803535  W2        22498           0.0000000000
     67023     22341  TIP3      H2             12.7577533595      -47.5388822861       21.7905103535  W2        22498           0.0000000000
     67024     22342  TIP3      OH2            19.7709333595      -45.9904322861       33.7015203535  W2        22499           0.0000000000
     67025     22342  TIP3      H1             19.1183433595      -45.2958722861       33.7906103535  W2        22499           0.0000000000
     67026     22342  TIP3      H2             20.2359633595      -45.7803422861       32.8916803535  W2        22499           0.0000000000
     67027     22343  TIP3      OH2            15.8073133595      -45.1589522861       26.3596703535  W2        22500           0.0000000000
     67028     22343  TIP3      H1             15.0754133595      -44.9305822861       26.9327303535  W2        22500           0.0000000000
     67029     22343  TIP3      H2             16.2545333595      -45.8726822861       26.8144203535  W2        22500           0.0000000000
     67030     22344  TIP3      OH2            15.7046633595      -46.9846922861       35.4273703535  W2        22501           0.0000000000
     67031     22344  TIP3      H1             15.7845733595      -46.2212522861       35.9992203535  W2        22501           0.0000000000
     67032     22344  TIP3      H2             15.1034333595      -46.7054522861       34.7368803535  W2        22501           0.0000000000
     67033     22345  TIP3      OH2             7.4526833595      -44.5283322861       28.2421703535  W2        22502           0.0000000000
     67034     22345  TIP3      H1              7.1222033595      -44.8989922861       27.4238703535  W2        22502           0.0000000000
     67035     22345  TIP3      H2              8.0410933595      -45.1989322861       28.5890003535  W2        22502           0.0000000000
     67036     22346  TIP3      OH2             8.8194333595      -41.1002722861       30.9233903535  W2        22503           0.0000000000
     67037     22346  TIP3      H1              8.7245633595      -41.6789622861       30.1668503535  W2        22503           0.0000000000
     67038     22346  TIP3      H2              9.5487933595      -41.4717022861       31.4196703535  W2        22503           0.0000000000
     67039     22347  TIP3      OH2             7.8192333595      -45.7597722861       31.8756703535  W2        22504           0.0000000000
     67040     22347  TIP3      H1              8.3844833595      -45.6383522861       31.1127903535  W2        22504           0.0000000000
     67041     22347  TIP3      H2              8.1381233595      -45.1222722861       32.5145203535  W2        22504           0.0000000000
     67042     22348  TIP3      OH2            14.1284533595      -40.2565822861       32.6097203535  W2        22505           0.0000000000
     67043     22348  TIP3      H1             13.8881133595      -39.5942722861       33.2576403535  W2        22505           0.0000000000
     67044     22348  TIP3      H2             13.9302733595      -41.0910622861       33.0346803535  W2        22505           0.0000000000
     67045     22349  TIP3      OH2            14.6782633595      -45.9966622861       24.0447903535  W2        22507           0.0000000000
     67046     22349  TIP3      H1             15.2578133595      -45.8466322861       24.7916803535  W2        22507           0.0000000000
     67047     22349  TIP3      H2             15.0922633595      -45.5259222861       23.3214303535  W2        22507           0.0000000000
     67048     22350  TIP3      OH2            12.4047533595      -39.2598122861       27.4801003535  W2        22509           0.0000000000
     67049     22350  TIP3      H1             12.8785133595      -38.9641822861       28.2575203535  W2        22509           0.0000000000
     67050     22350  TIP3      H2             11.8416833595      -38.5216522861       27.2470603535  W2        22509           0.0000000000
     67051     22351  TIP3      OH2            18.3771033595      -54.2466222861       23.8577603535  W2        22511           0.0000000000
     67052     22351  TIP3      H1             17.4771733595      -54.1077222861       24.1528203535  W2        22511           0.0000000000
     67053     22351  TIP3      H2             18.6289433595      -53.4151622861       23.4559303535  W2        22511           0.0000000000
     67054     22352  TIP3      OH2             6.4429533595      -45.4589022861       25.8314503535  W2        22512           0.0000000000
     67055     22352  TIP3      H1              6.1510833595      -44.6907322861       25.3405803535  W2        22512           0.0000000000
     67056     22352  TIP3      H2              5.7684733595      -46.1182822861       25.6685903535  W2        22512           0.0000000000
     67057     22353  TIP3      OH2            19.5662433595      -39.8803822861       22.2341503535  W2        22513           0.0000000000
     67058     22353  TIP3      H1             19.6395933595      -38.9413622861       22.4046803535  W2        22513           0.0000000000
     67059     22353  TIP3      H2             20.4717533595      -40.1855222861       22.1778803535  W2        22513           0.0000000000
     67060     22354  TIP3      OH2             2.5359633595      -43.0959822861       34.6464303535  W2        22514           0.0000000000
     67061     22354  TIP3      H1              2.0348033595      -43.1240422861       33.8314003535  W2        22514           0.0000000000
     67062     22354  TIP3      H2              2.5413333595      -44.0016622861       34.9561603535  W2        22514           0.0000000000
     67063     22355  TIP3      OH2             2.2862333595      -40.3156022861       31.5304503535  W2        22515           0.0000000000
     67064     22355  TIP3      H1              3.2322933595      -40.4599022861       31.5114003535  W2        22515           0.0000000000
     67065     22355  TIP3      H2              2.1738633595      -39.5313222861       32.0675703535  W2        22515           0.0000000000
     67066     22356  TIP3      OH2            11.8770633595      -36.3033422861       25.8950203535  W2        22518           0.0000000000
     67067     22356  TIP3      H1             11.8016633595      -36.4246222861       24.9485403535  W2        22518           0.0000000000
     67068     22356  TIP3      H2             11.9099333595      -35.3540722861       26.0134803535  W2        22518           0.0000000000
     67069     22357  TIP3      OH2             5.5304433595      -37.5146422861       27.6759203535  W2        22519           0.0000000000
     67070     22357  TIP3      H1              5.6824833595      -37.8626022861       28.5545703535  W2        22519           0.0000000000
     67071     22357  TIP3      H2              4.6794833595      -37.8709122861       27.4206403535  W2        22519           0.0000000000
     67072     22358  TIP3      OH2            14.9786633595      -37.1493222861       22.8972603535  W2        22520           0.0000000000
     67073     22358  TIP3      H1             15.3535033595      -37.8937122861       22.4265203535  W2        22520           0.0000000000
     67074     22358  TIP3      H2             14.9830333595      -37.4192622861       23.8155903535  W2        22520           0.0000000000
     67075     22359  TIP3      OH2            14.6474733595      -37.2236122861       25.6464803535  W2        22521           0.0000000000
     67076     22359  TIP3      H1             13.7124533595      -37.1234222861       25.8251803535  W2        22521           0.0000000000
     67077     22359  TIP3      H2             14.9276633595      -37.9330122861       26.2248003535  W2        22521           0.0000000000
     67078     22360  TIP3      OH2             7.4038133595      -53.3023922861       31.6851303535  W2        22524           0.0000000000
     67079     22360  TIP3      H1              6.5421833595      -53.3895722861       31.2774203535  W2        22524           0.0000000000
     67080     22360  TIP3      H2              7.3813833595      -52.4463822861       32.1128903535  W2        22524           0.0000000000
     67081     22361  TIP3      OH2            12.0665933595      -53.5803522861       35.0598303535  W2        22525           0.0000000000
     67082     22361  TIP3      H1             12.4869033595      -53.9956422861       35.8128903535  W2        22525           0.0000000000
     67083     22361  TIP3      H2             11.1335533595      -53.7590222861       35.1770303535  W2        22525           0.0000000000
     67084     22362  TIP3      OH2            16.1555733595      -44.9638322861       21.6745803535  W2        22527           0.0000000000
     67085     22362  TIP3      H1             16.1976533595      -45.1864422861       20.7445803535  W2        22527           0.0000000000
     67086     22362  TIP3      H2             17.0047833595      -44.5651222861       21.8645703535  W2        22527           0.0000000000
     67087     22363  TIP3      OH2            11.7283233595      -51.0880122861       22.3449103535  W2        22528           0.0000000000
     67088     22363  TIP3      H1             11.4748033595      -51.0688522861       23.2677203535  W2        22528           0.0000000000
     67089     22363  TIP3      H2             11.4715333595      -51.9594722861       22.0435303535  W2        22528           0.0000000000
     67090     22364  TIP3      OH2             7.4948233595      -48.3369422861       32.7801503535  W2        22529           0.0000000000
     67091     22364  TIP3      H1              6.8530333595      -48.3772122861       33.4891603535  W2        22529           0.0000000000
     67092     22364  TIP3      H2              7.5320233595      -47.4104722861       32.5424503535  W2        22529           0.0000000000
     67093     22365  TIP3      OH2             7.4917333595      -48.1159322861       27.6921503535  W2        22530           0.0000000000
     67094     22365  TIP3      H1              6.5990233595      -48.4563222861       27.6335303535  W2        22530           0.0000000000
     67095     22365  TIP3      H2              7.9423933595      -48.4928422861       26.9364703535  W2        22530           0.0000000000
     67096     22366  TIP3      OH2            13.0272833595      -47.6999022861       26.5092303535  W2        22531           0.0000000000
     67097     22366  TIP3      H1             12.6183133595      -46.8850422861       26.2177103535  W2        22531           0.0000000000
     67098     22366  TIP3      H2             13.7479033595      -47.8398922861       25.8949403535  W2        22531           0.0000000000
     67099     22367  TIP3      OH2            14.0320533595      -48.2538622861       29.3232003535  W2        22533           0.0000000000
     67100     22367  TIP3      H1             13.8365033595      -47.6481822861       28.6082603535  W2        22533           0.0000000000
     67101     22367  TIP3      H2             14.2133133595      -49.0873422861       28.8888303535  W2        22533           0.0000000000
     67102     22368  TIP3      OH2             5.2448733595      -48.0165922861       34.6473503535  W2        22534           0.0000000000
     67103     22368  TIP3      H1              5.2068133595      -47.6164322861       35.5160603535  W2        22534           0.0000000000
     67104     22368  TIP3      H2              4.7539833595      -48.8333522861       34.7376403535  W2        22534           0.0000000000
     67105     22369  TIP3      OH2             8.6106133595      -50.6423622861       21.4459503535  W2        22535           0.0000000000
     67106     22369  TIP3      H1              8.1796833595      -51.0873522861       22.1756903535  W2        22535           0.0000000000
     67107     22369  TIP3      H2              7.8924833595      -50.2707322861       20.9337003535  W2        22535           0.0000000000
     67108     22370  TIP3      OH2             1.8529533595      -50.9004122861       28.4978203535  W2        22536           0.0000000000
     67109     22370  TIP3      H1              2.4837233595      -50.9292022861       29.2172103535  W2        22536           0.0000000000
     67110     22370  TIP3      H2              2.3023833595      -51.3255422861       27.7674103535  W2        22536           0.0000000000
     67111     22371  TIP3      OH2             3.1271633595      -50.1542122861       23.9218603535  W2        22537           0.0000000000
     67112     22371  TIP3      H1              3.6013333595      -49.5632222861       23.3369503535  W2        22537           0.0000000000
     67113     22371  TIP3      H2              2.4098033595      -49.6239222861       24.2688703535  W2        22537           0.0000000000
     67114     22372  TIP3      OH2            13.2959733595      -46.6157322861       33.9944403535  W2        22538           0.0000000000
     67115     22372  TIP3      H1             13.6194533595      -47.2467622861       33.3514903535  W2        22538           0.0000000000
     67116     22372  TIP3      H2             12.8559033595      -47.1505122861       34.6551803535  W2        22538           0.0000000000
     67117     22373  TIP3      OH2            10.0732633595      -50.6881822861       28.7785603535  W2        22539           0.0000000000
     67118     22373  TIP3      H1              9.1623733595      -50.6315022861       29.0671603535  W2        22539           0.0000000000
     67119     22373  TIP3      H2             10.5785533595      -50.7486322861       29.5892803535  W2        22539           0.0000000000
     67120     22374  TIP3      OH2             4.9016033595      -49.0595522861       27.6053203535  W2        22540           0.0000000000
     67121     22374  TIP3      H1              4.0124033595      -48.9600022861       27.2652803535  W2        22540           0.0000000000
     67122     22374  TIP3      H2              5.1980933595      -49.9012522861       27.2591103535  W2        22540           0.0000000000
     67123     22375  TIP3      OH2             8.5547833595      -49.0592922861       25.2617803535  W2        22541           0.0000000000
     67124     22375  TIP3      H1              9.4863333595      -48.9302922861       25.4400903535  W2        22541           0.0000000000
     67125     22375  TIP3      H2              8.3398133595      -48.3898622861       24.6122503535  W2        22541           0.0000000000
     67126     22376  TIP3      OH2            14.4784533595      -51.4535522861       32.0427403535  W2        22542           0.0000000000
     67127     22376  TIP3      H1             13.8016133595      -51.3222422861       32.7067103535  W2        22542           0.0000000000
     67128     22376  TIP3      H2             13.9929433595      -51.6086022861       31.2325103535  W2        22542           0.0000000000
     67129     22377  TIP3      OH2             7.2288033595      -47.8650722861       22.8283903535  W2        22543           0.0000000000
     67130     22377  TIP3      H1              6.6863133595      -48.2446922861       22.1371503535  W2        22543           0.0000000000
     67131     22377  TIP3      H2              8.0622933595      -47.6706022861       22.3998003535  W2        22543           0.0000000000
     67132     22378  TIP3      OH2            11.3932333595      -47.9008822861       30.6655203535  W2        22546           0.0000000000
     67133     22378  TIP3      H1             11.9575733595      -48.4472222861       30.1184803535  W2        22546           0.0000000000
     67134     22378  TIP3      H2             11.2455733595      -48.4226922861       31.4542803535  W2        22546           0.0000000000
     67135     22379  TIP3      OH2             6.3952033595      -51.7642722861       27.0840003535  W2        22547           0.0000000000
     67136     22379  TIP3      H1              6.0781533595      -52.6667422861       27.0485403535  W2        22547           0.0000000000
     67137     22379  TIP3      H2              7.1766133595      -51.7625322861       26.5311603535  W2        22547           0.0000000000
     67138     22380  TIP3      OH2            10.0198233595      -49.5122722861       33.0795603535  W2        22548           0.0000000000
     67139     22380  TIP3      H1              9.1843533595      -49.0583222861       33.1898003535  W2        22548           0.0000000000
     67140     22380  TIP3      H2             10.5438833595      -49.2364222861       33.8315503535  W2        22548           0.0000000000
     67141     22381  TIP3      OH2            10.5640833595      -43.2995022861       24.7642003535  W2        22549           0.0000000000
     67142     22381  TIP3      H1              9.8191833595      -43.8069722861       24.4419903535  W2        22549           0.0000000000
     67143     22381  TIP3      H2             10.4298033595      -43.2507022861       25.7106803535  W2        22549           0.0000000000
     67144     22382  TIP3      OH2            17.7139733595      -44.1666822861       33.5509603535  W2        22550           0.0000000000
     67145     22382  TIP3      H1             18.3558533595      -43.7100522861       33.0071803535  W2        22550           0.0000000000
     67146     22382  TIP3      H2             16.8836633595      -44.0534422861       33.0883703535  W2        22550           0.0000000000
     67147     22383  TIP3      OH2            14.4617633595      -50.4855122861       22.9634603535  W2        22551           0.0000000000
     67148     22383  TIP3      H1             13.5231833595      -50.3739522861       22.8123403535  W2        22551           0.0000000000
     67149     22383  TIP3      H2             14.7589733595      -49.6288222861       23.2700303535  W2        22551           0.0000000000
     67150     22384  TIP3      OH2            15.1801133595      -48.6182422861       24.6242003535  W2        22553           0.0000000000
     67151     22384  TIP3      H1             16.0720133595      -48.7557422861       24.9433203535  W2        22553           0.0000000000
     67152     22384  TIP3      H2             15.2364733595      -47.8276322861       24.0875503535  W2        22553           0.0000000000
     67153     22385  TIP3      OH2             5.6889133595      -44.0045022861       30.5339903535  W2        22554           0.0000000000
     67154     22385  TIP3      H1              6.4336333595      -44.0069322861       29.9326403535  W2        22554           0.0000000000
     67155     22385  TIP3      H2              5.7665733595      -44.8281222861       31.0155003535  W2        22554           0.0000000000
     67156     22386  TIP3      OH2            12.6894933595      -41.8410722861       23.7896603535  W2        22555           0.0000000000
     67157     22386  TIP3      H1             12.3943333595      -41.0142822861       24.1711403535  W2        22555           0.0000000000
     67158     22386  TIP3      H2             11.9864933595      -42.4603822861       23.9858003535  W2        22555           0.0000000000
     67159     22387  TIP3      OH2            20.0649833595      -48.4088322861       24.3188703535  W2        22559           0.0000000000
     67160     22387  TIP3      H1             19.5106133595      -48.8050322861       23.6466203535  W2        22559           0.0000000000
     67161     22387  TIP3      H2             20.1653433595      -47.4983122861       24.0412003535  W2        22559           0.0000000000
     67162     22388  TIP3      OH2            18.3601533595      -39.6227922861       24.7840803535  W2        22561           0.0000000000
     67163     22388  TIP3      H1             17.9872633595      -40.4484122861       25.0931403535  W2        22561           0.0000000000
     67164     22388  TIP3      H2             18.6375033595      -39.8058522861       23.8864203535  W2        22561           0.0000000000
     67165     22389  TIP3      OH2            15.5205433595      -44.8148422861       31.8052703535  W2        22562           0.0000000000
     67166     22389  TIP3      H1             14.5922333595      -45.0466522861       31.7782003535  W2        22562           0.0000000000
     67167     22389  TIP3      H2             15.9716533595      -45.5918622861       31.4751503535  W2        22562           0.0000000000
     67168     22390  TIP3      OH2             8.0638533595      -40.4866822861       27.9381403535  W2        22563           0.0000000000
     67169     22390  TIP3      H1              8.5910733595      -39.7132422861       27.7380203535  W2        22563           0.0000000000
     67170     22390  TIP3      H2              7.1837033595      -40.2617622861       27.6365403535  W2        22563           0.0000000000
     67171     22391  TIP3      OH2             3.8186233595      -45.6242722861       22.5253803535  W2        22564           0.0000000000
     67172     22391  TIP3      H1              4.4346133595      -44.9975522861       22.9048603535  W2        22564           0.0000000000
     67173     22391  TIP3      H2              2.9568833595      -45.3082922861       22.7970303535  W2        22564           0.0000000000
     67174     22392  TIP3      OH2             9.4910833595      -42.8236922861       27.5145703535  W2        22565           0.0000000000
     67175     22392  TIP3      H1              9.2500833595      -41.8982522861       27.5561003535  W2        22565           0.0000000000
     67176     22392  TIP3      H2              8.7504433595      -43.2825622861       27.9109603535  W2        22565           0.0000000000
     67177     22393  TIP3      OH2            10.0057433595      -38.6743322861       33.8296803535  W2        22566           0.0000000000
     67178     22393  TIP3      H1             10.3682133595      -37.8197722861       33.5961203535  W2        22566           0.0000000000
     67179     22393  TIP3      H2             10.5372633595      -38.9661722861       34.5703103535  W2        22566           0.0000000000
     67180     22394  TIP3      OH2             8.1741633595      -37.8019322861       27.0597903535  W2        22567           0.0000000000
     67181     22394  TIP3      H1              7.2242133595      -37.6961922861       27.1111203535  W2        22567           0.0000000000
     67182     22394  TIP3      H2              8.5259733595      -36.9811922861       27.4045403535  W2        22567           0.0000000000
     67183     22395  TIP3      OH2            13.5498233595      -42.5752622861       33.5302403535  W2        22568           0.0000000000
     67184     22395  TIP3      H1             13.1239533595      -42.8030922861       34.3566403535  W2        22568           0.0000000000
     67185     22395  TIP3      H2             14.1304033595      -43.3140822861       33.3477703535  W2        22568           0.0000000000
     67186     22396  TIP3      OH2            15.7527133595      -41.6462122861       22.6041403535  W2        22569           0.0000000000
     67187     22396  TIP3      H1             16.1060233595      -42.0262322861       23.4084903535  W2        22569           0.0000000000
     67188     22396  TIP3      H2             14.8040633595      -41.7397322861       22.6910703535  W2        22569           0.0000000000
     67189     22397  TIP3      OH2            20.2561533595      -37.1669622861       22.8051603535  W2        22571           0.0000000000
     67190     22397  TIP3      H1             20.9999433595      -36.5809122861       22.6653203535  W2        22571           0.0000000000
     67191     22397  TIP3      H2             19.5619633595      -36.5983822861       23.1384003535  W2        22571           0.0000000000
     67192     22398  TIP3      OH2             4.3308333595      -50.7905422861       35.4069803535  W2        22572           0.0000000000
     67193     22398  TIP3      H1              3.4380633595      -50.4520022861       35.3393803535  W2        22572           0.0000000000
     67194     22398  TIP3      H2              4.2321133595      -51.6459322861       35.8250603535  W2        22572           0.0000000000
     67195     22399  TIP3      OH2            16.6186433595      -42.9740122861       24.8309303535  W2        22573           0.0000000000
     67196     22399  TIP3      H1             16.3414033595      -43.7020822861       25.3870403535  W2        22573           0.0000000000
     67197     22399  TIP3      H2             17.5459433595      -42.8548122861       25.0361903535  W2        22573           0.0000000000
     67198     22400  TIP3      OH2             3.9820333595      -38.9861022861       33.8419203535  W2        22574           0.0000000000
     67199     22400  TIP3      H1              4.1990633595      -39.9178622861       33.8108903535  W2        22574           0.0000000000
     67200     22400  TIP3      H2              4.2283833595      -38.7116022861       34.7252003535  W2        22574           0.0000000000
     67201     22401  TIP3      OH2             9.8434933595      -40.5346022861       21.0511403535  W2        22575           0.0000000000
     67202     22401  TIP3      H1             10.0824733595      -41.2827922861       20.5040303535  W2        22575           0.0000000000
     67203     22401  TIP3      H2              9.5746233595      -40.9224322861       21.8839203535  W2        22575           0.0000000000
     67204     22402  TIP3      OH2             8.7805533595      -40.9642222861       23.5074003535  W2        22576           0.0000000000
     67205     22402  TIP3      H1              8.9273533595      -41.4842422861       24.2974903535  W2        22576           0.0000000000
     67206     22402  TIP3      H2              8.7777233595      -40.0574622861       23.8139903535  W2        22576           0.0000000000
     67207     22403  TIP3      OH2             5.2336633595      -43.7118922861       24.0179403535  W2        22577           0.0000000000
     67208     22403  TIP3      H1              4.5475933595      -43.3596422861       24.5849103535  W2        22577           0.0000000000
     67209     22403  TIP3      H2              5.7564533595      -42.9489322861       23.7713703535  W2        22577           0.0000000000
     67210     22404  TIP3      OH2            13.0651733595      -51.0495122861       34.2968403535  W2        22578           0.0000000000
     67211     22404  TIP3      H1             13.7639633595      -50.9756422861       34.9468103535  W2        22578           0.0000000000
     67212     22404  TIP3      H2             12.6843133595      -51.9140122861       34.4511303535  W2        22578           0.0000000000
     67213     22405  TIP3      OH2            13.8496633595      -51.3973422861       25.3940703535  W2        22579           0.0000000000
     67214     22405  TIP3      H1             14.0694933595      -50.9258022861       24.5906103535  W2        22579           0.0000000000
     67215     22405  TIP3      H2             14.4080633595      -51.0030822861       26.0641303535  W2        22579           0.0000000000
     67216     22406  TIP3      OH2            11.5182733595      -39.2668622861       24.2568203535  W2        22580           0.0000000000
     67217     22406  TIP3      H1             10.7018833595      -38.7698922861       24.3092503535  W2        22580           0.0000000000
     67218     22406  TIP3      H2             12.0479033595      -38.7915122861       23.6167003535  W2        22580           0.0000000000
     67219     22407  TIP3      OH2            11.0496533595      -49.6694622861       26.2289103535  W2        22581           0.0000000000
     67220     22407  TIP3      H1             11.8619133595      -49.1651422861       26.2750803535  W2        22581           0.0000000000
     67221     22407  TIP3      H2             10.8049533595      -49.8144922861       27.1428703535  W2        22581           0.0000000000
     67222     22408  TIP3      OH2            11.5852933595      -48.6831922861       35.4135703535  W2        22582           0.0000000000
     67223     22408  TIP3      H1             11.7043233595      -48.1096522861       36.1706103535  W2        22582           0.0000000000
     67224     22408  TIP3      H2             12.2407533595      -49.3712522861       35.5283503535  W2        22582           0.0000000000
     67225     22409  TIP3      OH2            11.9333233595      -52.5881622861       27.1670203535  W2        22583           0.0000000000
     67226     22409  TIP3      H1             11.5866733595      -51.9711022861       27.8114503535  W2        22583           0.0000000000
     67227     22409  TIP3      H2             12.5920133595      -52.0875922861       26.6855703535  W2        22583           0.0000000000
     67228     22410  TIP3      OH2             8.8565833595      -38.2231422861       24.2385103535  W2        22584           0.0000000000
     67229     22410  TIP3      H1              9.0174533595      -37.4233922861       23.7377703535  W2        22584           0.0000000000
     67230     22410  TIP3      H2              8.6593633595      -37.9165422861       25.1235703535  W2        22584           0.0000000000
     67231     22411  TIP3      OH2             7.5910233595      -51.5252222861       23.8542703535  W2        22585           0.0000000000
     67232     22411  TIP3      H1              7.5075033595      -50.6369122861       24.2009103535  W2        22585           0.0000000000
     67233     22411  TIP3      H2              8.4810533595      -51.7905522861       24.0859503535  W2        22585           0.0000000000
     67234     22412  TIP3      OH2            16.3919733595      -47.0260622861       30.3442703535  W2        22587           0.0000000000
     67235     22412  TIP3      H1             15.5944133595      -47.4410422861       30.0157703535  W2        22587           0.0000000000
     67236     22412  TIP3      H2             16.8370833595      -47.7166922861       30.8353203535  W2        22587           0.0000000000
     67237     22413  TIP3      OH2             5.8495533595      -41.0980022861       22.9147203535  W2        22588           0.0000000000
     67238     22413  TIP3      H1              6.4417033595      -40.3985222861       23.1909603535  W2        22588           0.0000000000
     67239     22413  TIP3      H2              6.3088533595      -41.5310522861       22.1951803535  W2        22588           0.0000000000
     67240     22414  TIP3      OH2             4.1654733595      -48.4337022861       22.0306603535  W2        22589           0.0000000000
     67241     22414  TIP3      H1              4.1207333595      -47.4943922861       22.2093603535  W2        22589           0.0000000000
     67242     22414  TIP3      H2              3.2777933595      -48.6692122861       21.7608703535  W2        22589           0.0000000000
     67243     22415  TIP3      OH2            17.4784333595      -37.7698122861       31.9666203535  W2        22590           0.0000000000
     67244     22415  TIP3      H1             17.3228633595      -37.0913722861       31.3095503535  W2        22590           0.0000000000
     67245     22415  TIP3      H2             18.4110733595      -37.6978822861       32.1696803535  W2        22590           0.0000000000
     67246     22416  TIP3      OH2             4.9736733595      -53.6520422861       30.7037603535  W2        22591           0.0000000000
     67247     22416  TIP3      H1              4.7446533595      -53.5927922861       29.7762603535  W2        22591           0.0000000000
     67248     22416  TIP3      H2              4.5310133595      -54.4434922861       31.0101703535  W2        22591           0.0000000000
     67249     22417  TIP3      OH2             3.9040033595      -39.7113322861       26.8643403535  W2        22592           0.0000000000
     67250     22417  TIP3      H1              3.0718633595      -39.2390622861       26.8914803535  W2        22592           0.0000000000
     67251     22417  TIP3      H2              4.4498333595      -39.2015722861       26.2656503535  W2        22592           0.0000000000
     67252     22418  TIP3      OH2            11.8816733595      -38.6714622861       21.1897403535  W2        22595           0.0000000000
     67253     22418  TIP3      H1             11.2377733595      -39.3026022861       21.5111103535  W2        22595           0.0000000000
     67254     22418  TIP3      H2             12.6435033595      -39.2026622861       20.9580903535  W2        22595           0.0000000000
     67255     22419  TIP3      OH2            16.4859633595      -38.8544722861       21.4235403535  W2        22597           0.0000000000
     67256     22419  TIP3      H1             16.7690033595      -39.6489522861       21.8762303535  W2        22597           0.0000000000
     67257     22419  TIP3      H2             17.2257533595      -38.6213722861       20.8626503535  W2        22597           0.0000000000
     67258     22420  TIP3      OH2             7.4406933595      -42.9449822861       21.2810303535  W2        22599           0.0000000000
     67259     22420  TIP3      H1              7.5051033595      -43.7390222861       21.8116703535  W2        22599           0.0000000000
     67260     22420  TIP3      H2              8.0936133595      -43.0637022861       20.5912303535  W2        22599           0.0000000000
     67261     22421  TIP3      OH2            12.7930333595      -41.8978122861       21.0168303535  W2        22601           0.0000000000
     67262     22421  TIP3      H1             12.5244433595      -41.7176022861       21.9177203535  W2        22601           0.0000000000
     67263     22421  TIP3      H2             12.5865933595      -42.8231922861       20.8854103535  W2        22601           0.0000000000
     67264     22422  TIP3      OH2             8.5900733595      -44.9723622861       23.5868303535  W2        22604           0.0000000000
     67265     22422  TIP3      H1              8.1302733595      -45.4565322861       24.2726803535  W2        22604           0.0000000000
     67266     22422  TIP3      H2              8.8449433595      -45.6408222861       22.9508803535  W2        22604           0.0000000000
     67267     22423  TIP3      OH2             9.6611133595      -46.7291822861       21.8491503535  W2        22606           0.0000000000
     67268     22423  TIP3      H1              9.4806133595      -46.8840622861       20.9219803535  W2        22606           0.0000000000
     67269     22423  TIP3      H2             10.6111633595      -46.6213122861       21.8939403535  W2        22606           0.0000000000
     67270     22424  TIP3      OH2            19.0509433595      -44.3747622861       21.2949603535  W2        22608           0.0000000000
     67271     22424  TIP3      H1             18.7774233595      -44.7992122861       20.4817903535  W2        22608           0.0000000000
     67272     22424  TIP3      H2             19.0903533595      -43.4433122861       21.0780003535  W2        22608           0.0000000000
     67273     22425  TIP3      OH2             8.6309433595      -51.3549922861       34.5178403535  W2        22610           0.0000000000
     67274     22425  TIP3      H1              9.1666933595      -50.9033222861       33.8657703535  W2        22610           0.0000000000
     67275     22425  TIP3      H2              7.7789033595      -51.4630122861       34.0952503535  W2        22610           0.0000000000
     67276     22426  TIP3      OH2            10.2127833595      -45.9153722861       34.7573603535  W2        22611           0.0000000000
     67277     22426  TIP3      H1             10.9632633595      -46.0716222861       34.1841403535  W2        22611           0.0000000000
     67278     22426  TIP3      H2              9.8736133595      -45.0637122861       34.4819103535  W2        22611           0.0000000000
     67279     22427  TIP3      OH2             9.4364933595      -53.8984222861       34.9492003535  W2        22615           0.0000000000
     67280     22427  TIP3      H1              9.3384533595      -52.9521022861       34.8438203535  W2        22615           0.0000000000
     67281     22427  TIP3      H2              8.6941133595      -54.2710422861       34.4735503535  W2        22615           0.0000000000
     67282     22428  TIP3      OH2             9.5582833595      -36.0388122861       22.8505103535  W2        22622           0.0000000000
     67283     22428  TIP3      H1             10.4913533595      -35.8809422861       22.9943503535  W2        22622           0.0000000000
     67284     22428  TIP3      H2              9.2941633595      -35.3635122861       22.2256603535  W2        22622           0.0000000000
     67285     22429  TIP3      OH2             3.1267733595      -41.4024322861       22.3333203535  W2        22623           0.0000000000
     67286     22429  TIP3      H1              4.0406933595      -41.3235422861       22.6067103535  W2        22623           0.0000000000
     67287     22429  TIP3      H2              3.1340833595      -42.0894722861       21.6668803535  W2        22623           0.0000000000
     67288     22430  TIP3      OH2             1.7758333595      -36.0095822861       27.4107103535  W2        22624           0.0000000000
     67289     22430  TIP3      H1              1.1285433595      -36.4714122861       26.8778303535  W2        22624           0.0000000000
     67290     22430  TIP3      H2              2.1302933595      -36.6812522861       27.9933303535  W2        22624           0.0000000000
     67291     22431  TIP3      OH2             2.6457533595      -37.9288822861       29.2153303535  W2        22625           0.0000000000
     67292     22431  TIP3      H1              2.3114333595      -38.8091522861       29.3873503535  W2        22625           0.0000000000
     67293     22431  TIP3      H2              2.8679933595      -37.5833822861       30.0798903535  W2        22625           0.0000000000
     67294     22432  TIP3      OH2            20.1942333595      -37.1192422861       32.1958103535  W2        22626           0.0000000000
     67295     22432  TIP3      H1             20.1729033595      -36.9344022861       33.1347503535  W2        22626           0.0000000000
     67296     22432  TIP3      H2             20.8848533595      -36.5508422861       31.8549503535  W2        22626           0.0000000000
     67297     22433  TIP3      OH2            19.7575233595      -37.5521322861       35.1177203535  W2        22627           0.0000000000
     67298     22433  TIP3      H1             19.2703933595      -38.2877222861       34.7464603535  W2        22627           0.0000000000
     67299     22433  TIP3      H2             20.3067933595      -37.9457422861       35.7956603535  W2        22627           0.0000000000
     67300     22434  TIP3      OH2            19.5092233595      -43.5059522861       25.2700003535  W2        22629           0.0000000000
     67301     22434  TIP3      H1             20.3593633595      -43.0848622861       25.3971603535  W2        22629           0.0000000000
     67302     22434  TIP3      H2             19.5147333595      -44.2459422861       25.8771403535  W2        22629           0.0000000000
     67303     22435  TIP3      OH2            19.9037833595      -45.4522122861       27.0935703535  W2        22630           0.0000000000
     67304     22435  TIP3      H1             19.1772433595      -45.9319522861       27.4913303535  W2        22630           0.0000000000
     67305     22435  TIP3      H2             20.4851133595      -45.2467422861       27.8257303535  W2        22630           0.0000000000
     67306     22436  TIP3      OH2            19.6629033595      -42.6674622861       32.0413303535  W2        22631           0.0000000000
     67307     22436  TIP3      H1             20.4963233595      -43.0454622861       31.7606903535  W2        22631           0.0000000000
     67308     22436  TIP3      H2             19.7749333595      -41.7243422861       31.9222403535  W2        22631           0.0000000000
     67309     22437  TIP3      OH2            18.1491333595      -39.7897122861       34.3481703535  W2        22632           0.0000000000
     67310     22437  TIP3      H1             17.5016633595      -39.4645622861       34.9736903535  W2        22632           0.0000000000
     67311     22437  TIP3      H2             17.6315333595      -40.2299422861       33.6740003535  W2        22632           0.0000000000
     67312     22438  TIP3      OH2            20.1720933595      -45.5513622861       23.4847003535  W2        22633           0.0000000000
     67313     22438  TIP3      H1             19.6502033595      -45.1949522861       22.7657903535  W2        22633           0.0000000000
     67314     22438  TIP3      H2             20.1390133595      -44.8765822861       24.1627903535  W2        22633           0.0000000000
     67315     22439  TIP3      OH2            18.5209933595      -48.3118022861       22.0354103535  W2        22634           0.0000000000
     67316     22439  TIP3      H1             18.6174333595      -47.6451022861       21.3553803535  W2        22634           0.0000000000
     67317     22439  TIP3      H2             18.3809533595      -49.1271722861       21.5539603535  W2        22634           0.0000000000
     67318     22440  TIP3      OH2            17.6904633595      -46.9315622861       27.6564403535  W2        22635           0.0000000000
     67319     22440  TIP3      H1             17.5403433595      -47.8767022861       27.6362203535  W2        22635           0.0000000000
     67320     22440  TIP3      H2             17.3369133595      -46.6504222861       28.5003503535  W2        22635           0.0000000000
     67321     22441  TIP3      OH2             2.7257033595      -44.8533422861       31.6668203535  W2        22636           0.0000000000
     67322     22441  TIP3      H1              2.9099933595      -44.9351722861       30.7311103535  W2        22636           0.0000000000
     67323     22441  TIP3      H2              3.5749933595      -44.9776422861       32.0904603535  W2        22636           0.0000000000
     67324     22442  TIP3      OH2            17.7683733595      -50.9038222861       21.1529603535  W2        22639           0.0000000000
     67325     22442  TIP3      H1             18.3789533595      -51.2751422861       21.7897803535  W2        22639           0.0000000000
     67326     22442  TIP3      H2             16.9315233595      -51.3251322861       21.3489603535  W2        22639           0.0000000000
     67327     22443  TIP3      OH2            17.4009433595      -49.3489822861       26.1189503535  W2        22640           0.0000000000
     67328     22443  TIP3      H1             17.6806533595      -50.2559422861       26.2431203535  W2        22640           0.0000000000
     67329     22443  TIP3      H2             18.1601133595      -48.9148322861       25.7298703535  W2        22640           0.0000000000
     67330     22444  TIP3      OH2            18.0127733595      -48.7672422861       31.5548403535  W2        22641           0.0000000000
     67331     22444  TIP3      H1             18.9455733595      -48.5552522861       31.5204403535  W2        22641           0.0000000000
     67332     22444  TIP3      H2             17.7775233595      -48.6660322861       32.4771403535  W2        22641           0.0000000000
     67333     22445  TIP3      OH2            18.0419633595      -48.0307122861       34.3307803535  W2        22642           0.0000000000
     67334     22445  TIP3      H1             17.1990933595      -47.7626722861       34.6967603535  W2        22642           0.0000000000
     67335     22445  TIP3      H2             18.4843933595      -47.2085222861       34.1198903535  W2        22642           0.0000000000
     67336     22446  TIP3      OH2            18.0144233595      -52.0860522861       26.1671503535  W2        22645           0.0000000000
     67337     22446  TIP3      H1             18.1969233595      -52.5349022861       26.9926503535  W2        22645           0.0000000000
     67338     22446  TIP3      H2             17.4147133595      -52.6706122861       25.7036103535  W2        22645           0.0000000000
     67339     22447  TIP3      OH2             3.5444333595      -51.2706822861       30.6989903535  W2        22646           0.0000000000
     67340     22447  TIP3      H1              3.9895933595      -52.0624322861       31.0009603535  W2        22646           0.0000000000
     67341     22447  TIP3      H2              4.0107333595      -50.5541622861       31.1295503535  W2        22646           0.0000000000
     67342     22448  TIP3      OH2             1.8484633595      -48.2713822861       31.7680103535  W2        22647           0.0000000000
     67343     22448  TIP3      H1              2.3404433595      -48.4923322861       30.9772103535  W2        22647           0.0000000000
     67344     22448  TIP3      H2              2.2105533595      -47.4310422861       32.0489603535  W2        22647           0.0000000000
     67345     22449  TIP3      OH2            19.8810433595      -52.0182422861       22.6951803535  W2        22649           0.0000000000
     67346     22449  TIP3      H1             20.2933033595      -52.7396722861       22.2199803535  W2        22649           0.0000000000
     67347     22449  TIP3      H2             20.5626933595      -51.3487822861       22.7536103535  W2        22649           0.0000000000
     67348     22450  TIP3      OH2             2.1621133595      -52.0134722861       25.8222503535  W2        22650           0.0000000000
     67349     22450  TIP3      H1              1.2369533595      -51.8048122861       25.6928003535  W2        22650           0.0000000000
     67350     22450  TIP3      H2              2.6161033595      -51.5293922861       25.1324803535  W2        22650           0.0000000000
     67351     22451  TIP3      OH2            16.9328333595      -37.0293022861       27.7679903535  W2        22651           0.0000000000
     67352     22451  TIP3      H1             17.5851233595      -37.3770922861       27.1599003535  W2        22651           0.0000000000
     67353     22451  TIP3      H2             17.4432133595      -36.5409822861       28.4139603535  W2        22651           0.0000000000
     67354     22452  TIP3      OH2             2.1256533595      -53.2755722861       34.1665003535  W2        22652           0.0000000000
     67355     22452  TIP3      H1              1.4607033595      -53.5215422861       34.8095903535  W2        22652           0.0000000000
     67356     22452  TIP3      H2              1.6827833595      -52.6535322861       33.5893003535  W2        22652           0.0000000000
     67357     22453  TIP3      OH2             7.2718733595      -39.1260422861       34.5694803535  W2        22654           0.0000000000
     67358     22453  TIP3      H1              6.8469833595      -38.3161922861       34.2869403535  W2        22654           0.0000000000
     67359     22453  TIP3      H2              8.1761533595      -39.0406322861       34.2674603535  W2        22654           0.0000000000
     67360     22454  TIP3      OH2             4.6735433595      -35.8696522861       34.6170103535  W2        22658           0.0000000000
     67361     22454  TIP3      H1              3.9531833595      -35.4295522861       34.1657803535  W2        22658           0.0000000000
     67362     22454  TIP3      H2              4.3079433595      -36.1201822861       35.4654103535  W2        22658           0.0000000000
     67363     22455  TIP3      OH2             7.1408033595      -36.2692622861       33.6467303535  W2        22659           0.0000000000
     67364     22455  TIP3      H1              6.2760233595      -36.1974122861       34.0507403535  W2        22659           0.0000000000
     67365     22455  TIP3      H2              7.0857033595      -35.7225322861       32.8629803535  W2        22659           0.0000000000
     67366     22456  TIP3      OH2            11.8513633595      -36.3813722861       32.8223303535  W2        22660           0.0000000000
     67367     22456  TIP3      H1             11.3947633595      -35.8524022861       32.1681703535  W2        22660           0.0000000000
     67368     22456  TIP3      H2             12.0141633595      -35.7782322861       33.5475603535  W2        22660           0.0000000000
     67369     22457  TIP3      OH2            14.1789933595      -37.5034122861       33.7673603535  W2        22661           0.0000000000
     67370     22457  TIP3      H1             13.2743633595      -37.3383922861       33.5015703535  W2        22661           0.0000000000
     67371     22457  TIP3      H2             14.6078533595      -36.6501922861       33.7017003535  W2        22661           0.0000000000
     67372     22458  TIP3      OH2            16.7831833595      -35.9335022861       34.0621403535  W2        22662           0.0000000000
     67373     22458  TIP3      H1             16.6013833595      -35.0176122861       33.8516303535  W2        22662           0.0000000000
     67374     22458  TIP3      H2             16.9599633595      -36.3437922861       33.2156003535  W2        22662           0.0000000000
     67375     22459  TIP3      OH2             4.0883533595      -37.2464022861       31.5271903535  W2        22663           0.0000000000
     67376     22459  TIP3      H1              4.0699533595      -37.6718922861       32.3844203535  W2        22663           0.0000000000
     67377     22459  TIP3      H2              4.8931433595      -37.5649022861       31.1184103535  W2        22663           0.0000000000
     67378     22460  TIP3      OH2             6.2296633595      -38.5365322861       30.1821803535  W2        22664           0.0000000000
     67379     22460  TIP3      H1              6.0107333595      -39.4527922861       30.3517803535  W2        22664           0.0000000000
     67380     22460  TIP3      H2              7.0538833595      -38.3964922861       30.6483203535  W2        22664           0.0000000000
     67381     22461  TIP3      OH2             8.7669133595      -38.0666022861       31.0309803535  W2        22665           0.0000000000
     67382     22461  TIP3      H1              8.9794833595      -38.9547022861       30.7440703535  W2        22665           0.0000000000
     67383     22461  TIP3      H2              8.8314233595      -38.1008322861       31.9853803535  W2        22665           0.0000000000
     67384     22462  TIP3      OH2            12.2752833595      -52.4025422861       30.1753103535  W2        22666           0.0000000000
     67385     22462  TIP3      H1             11.6009633595      -53.0319822861       30.4308903535  W2        22666           0.0000000000
     67386     22462  TIP3      H2             12.8392033595      -52.8866522861       29.5721003535  W2        22666           0.0000000000
     67387     22463  TIP3      OH2            17.4180033595      -54.2951422861       30.2880203535  W2        22667           0.0000000000
     67388     22463  TIP3      H1             18.0217633595      -53.7476022861       29.7861203535  W2        22667           0.0000000000
     67389     22463  TIP3      H2             16.5482033595      -53.9761022861       30.0474303535  W2        22667           0.0000000000
     67390     22464  TIP3      OH2            19.1450433595      -53.1562722861       28.6211103535  W2        22668           0.0000000000
     67391     22464  TIP3      H1             19.7567933595      -53.6707022861       28.0944703535  W2        22668           0.0000000000
     67392     22464  TIP3      H2             19.5273833595      -52.2790622861       28.6445503535  W2        22668           0.0000000000
     67393     22465  TIP3      OH2             4.6020333595      -53.7685122861       27.9973003535  W2        22669           0.0000000000
     67394     22465  TIP3      H1              3.8250133595      -54.0030222861       27.4898903535  W2        22669           0.0000000000
     67395     22465  TIP3      H2              5.1323933595      -54.5653022861       28.0061003535  W2        22669           0.0000000000
     67396     22466  TIP3      OH2             3.4383733595      -53.9707022861       23.8009103535  W2        22670           0.0000000000
     67397     22466  TIP3      H1              3.8774433595      -53.3596522861       23.2092603535  W2        22670           0.0000000000
     67398     22466  TIP3      H2              2.8046133595      -53.4322922861       24.2749103535  W2        22670           0.0000000000
     67399     22467  TIP3      OH2             9.1812933595      -53.8418022861       27.8106103535  W2        22671           0.0000000000
     67400     22467  TIP3      H1             10.0556333595      -53.4533722861       27.7810403535  W2        22671           0.0000000000
     67401     22467  TIP3      H2              9.0453733595      -54.0570222861       28.7333303535  W2        22671           0.0000000000
     67402     22468  TIP3      OH2            14.7381333595      -53.8118222861       29.4597803535  W2        22672           0.0000000000
     67403     22468  TIP3      H1             14.8142933595      -53.7166622861       28.5103803535  W2        22672           0.0000000000
     67404     22468  TIP3      H2             14.4630533595      -54.7195322861       29.5886903535  W2        22672           0.0000000000
     67405     22469  TIP3      OH2            16.0913933595      -53.7860422861       25.1522803535  W2        22673           0.0000000000
     67406     22469  TIP3      H1             15.3885033595      -53.1711222861       24.9424203535  W2        22673           0.0000000000
     67407     22469  TIP3      H2             15.6465333595      -54.6233722861       25.2833703535  W2        22673           0.0000000000
     67408     22470  TIP3      OH2             3.3393233595      -38.0224822861       24.6984203535  W2        22674           0.0000000000
     67409     22470  TIP3      H1              2.6543133595      -38.0605922861       24.0309303535  W2        22674           0.0000000000
     67410     22470  TIP3      H2              3.3430433595      -37.1097222861       24.9866303535  W2        22674           0.0000000000
     67411     22471  TIP3      OH2             5.2992833595      -52.0545522861       22.2433203535  W2        22675           0.0000000000
     67412     22471  TIP3      H1              5.7906233595      -52.6843122861       21.7158703535  W2        22675           0.0000000000
     67413     22471  TIP3      H2              5.9229133595      -51.7586122861       22.9064403535  W2        22675           0.0000000000
     67414     22472  TIP3      OH2            10.3252933595      -51.7614022861       24.7003703535  W2        22676           0.0000000000
     67415     22472  TIP3      H1             10.5034233595      -52.4080822861       25.3832303535  W2        22676           0.0000000000
     67416     22472  TIP3      H2             10.2719133595      -50.9276322861       25.1674803535  W2        22676           0.0000000000
     67417     22473  TIP3      OH2            12.2036733595      -36.8129922861       23.0960403535  W2        22677           0.0000000000
     67418     22473  TIP3      H1             13.0696933595      -36.4462522861       22.9178603535  W2        22677           0.0000000000
     67419     22473  TIP3      H2             11.9569533595      -37.2521922861       22.2821203535  W2        22677           0.0000000000
     67420     22474  TIP3      OH2            18.9126333595      -37.2499622861       25.7751503535  W2        22678           0.0000000000
     67421     22474  TIP3      H1             18.7183433595      -37.9977522861       25.2101103535  W2        22678           0.0000000000
     67422     22474  TIP3      H2             18.8736433595      -36.4919522861       25.1919403535  W2        22678           0.0000000000
     67423     22475  TIP3      OH2             5.1574433595      -37.1024022861       21.7236303535  W2        22681           0.0000000000
     67424     22475  TIP3      H1              4.8899033595      -36.8161122861       22.5969403535  W2        22681           0.0000000000
     67425     22475  TIP3      H2              5.9287033595      -37.6484822861       21.8758803535  W2        22681           0.0000000000
     67426     22476  TIP3      OH2            32.5362933595      -44.6122822861       27.9560503535  W2        22684           0.0000000000
     67427     22476  TIP3      H1             32.6254033595      -43.6684622861       27.8237603535  W2        22684           0.0000000000
     67428     22476  TIP3      H2             31.8980533595      -44.8876422861       27.2979903535  W2        22684           0.0000000000
     67429     22477  TIP3      OH2            31.4694233595      -45.3572122861       31.3748703535  W2        22685           0.0000000000
     67430     22477  TIP3      H1             31.4311733595      -46.0035822861       32.0798303535  W2        22685           0.0000000000
     67431     22477  TIP3      H2             31.1470733595      -45.8237722861       30.6037403535  W2        22685           0.0000000000
     67432     22478  TIP3      OH2            23.8379233595      -45.7430022861       32.9678603535  W2        22686           0.0000000000
     67433     22478  TIP3      H1             23.8791333595      -46.3686722861       33.6911003535  W2        22686           0.0000000000
     67434     22478  TIP3      H2             24.5406933595      -45.1191422861       33.1499003535  W2        22686           0.0000000000
     67435     22479  TIP3      OH2            35.1754433595      -42.4181722861       29.6763803535  W2        22687           0.0000000000
     67436     22479  TIP3      H1             34.7347133595      -43.1385722861       30.1269403535  W2        22687           0.0000000000
     67437     22479  TIP3      H2             35.1624133595      -41.6974522861       30.3061503535  W2        22687           0.0000000000
     67438     22480  TIP3      OH2            24.7612333595      -41.2931122861       31.5027703535  W2        22688           0.0000000000
     67439     22480  TIP3      H1             24.3917533595      -42.0950622861       31.1332003535  W2        22688           0.0000000000
     67440     22480  TIP3      H2             25.7023433595      -41.4616222861       31.5491103535  W2        22688           0.0000000000
     67441     22481  TIP3      OH2            21.3712833595      -47.6328522861       26.8956503535  W2        22689           0.0000000000
     67442     22481  TIP3      H1             20.9236233595      -46.7869822861       26.8773003535  W2        22689           0.0000000000
     67443     22481  TIP3      H2             20.8104033595      -48.2124322861       26.3801603535  W2        22689           0.0000000000
     67444     22482  TIP3      OH2            22.0818933595      -45.4708922861       29.0214503535  W2        22690           0.0000000000
     67445     22482  TIP3      H1             22.2952433595      -46.2407322861       29.5487503535  W2        22690           0.0000000000
     67446     22482  TIP3      H2             22.8196533595      -45.3812222861       28.4182103535  W2        22690           0.0000000000
     67447     22483  TIP3      OH2            32.2869933595      -37.3140022861       29.8884203535  W2        22691           0.0000000000
     67448     22483  TIP3      H1             32.9066333595      -37.9905322861       29.6153403535  W2        22691           0.0000000000
     67449     22483  TIP3      H2             32.0787333595      -37.5319222861       30.7969103535  W2        22691           0.0000000000
     67450     22484  TIP3      OH2            29.8588633595      -42.9250722861       31.7809703535  W2        22692           0.0000000000
     67451     22484  TIP3      H1             30.1626533595      -43.6109322861       31.1863803535  W2        22692           0.0000000000
     67452     22484  TIP3      H2             30.5802633595      -42.8062022861       32.3987703535  W2        22692           0.0000000000
     67453     22485  TIP3      OH2            38.5218433595      -51.3235422861       32.6415903535  W2        22693           0.0000000000
     67454     22485  TIP3      H1             38.5710633595      -50.7134222861       33.3775003535  W2        22693           0.0000000000
     67455     22485  TIP3      H2             38.9473533595      -50.8624522861       31.9187003535  W2        22693           0.0000000000
     67456     22486  TIP3      OH2            32.9995633595      -48.5308322861       32.1084503535  W2        22694           0.0000000000
     67457     22486  TIP3      H1             33.1421533595      -49.4771322861       32.1286103535  W2        22694           0.0000000000
     67458     22486  TIP3      H2             32.8934633595      -48.3238522861       31.1799403535  W2        22694           0.0000000000
     67459     22487  TIP3      OH2            26.1543933595      -50.4291922861       29.3809303535  W2        22695           0.0000000000
     67460     22487  TIP3      H1             26.1975033595      -49.5693422861       28.9625603535  W2        22695           0.0000000000
     67461     22487  TIP3      H2             25.6968033595      -50.9817222861       28.7472503535  W2        22695           0.0000000000
     67462     22488  TIP3      OH2            33.8766633595      -50.2986322861       27.7817603535  W2        22696           0.0000000000
     67463     22488  TIP3      H1             34.5230933595      -50.6273122861       28.4065203535  W2        22696           0.0000000000
     67464     22488  TIP3      H2             34.3866033595      -49.7807322861       27.1589003535  W2        22696           0.0000000000
     67465     22489  TIP3      OH2            22.7745433595      -48.0326122861       30.1430703535  W2        22697           0.0000000000
     67466     22489  TIP3      H1             23.4282033595      -48.5824422861       30.5750803535  W2        22697           0.0000000000
     67467     22489  TIP3      H2             22.7984733595      -48.3067122861       29.2262703535  W2        22697           0.0000000000
     67468     22490  TIP3      OH2            27.9309933595      -46.4824822861       29.3582203535  W2        22698           0.0000000000
     67469     22490  TIP3      H1             28.5470933595      -47.0089422861       29.8676203535  W2        22698           0.0000000000
     67470     22490  TIP3      H2             27.3448733595      -47.1226122861       28.9545803535  W2        22698           0.0000000000
     67471     22491  TIP3      OH2            38.9133033595      -49.8456222861       34.8775703535  W2        22699           0.0000000000
     67472     22491  TIP3      H1             38.2247633595      -49.1875522861       34.7822303535  W2        22699           0.0000000000
     67473     22491  TIP3      H2             38.9287633595      -50.0428322861       35.8141103535  W2        22699           0.0000000000
     67474     22492  TIP3      OH2            24.9645833595      -51.5113522861       33.4550103535  W2        22700           0.0000000000
     67475     22492  TIP3      H1             24.7457533595      -50.9812922861       32.6886103535  W2        22700           0.0000000000
     67476     22492  TIP3      H2             24.2966733595      -51.2848022861       34.1021503535  W2        22700           0.0000000000
     67477     22493  TIP3      OH2            32.3335633595      -42.0112422861       26.9989203535  W2        22701           0.0000000000
     67478     22493  TIP3      H1             32.0380733595      -42.3340122861       26.1476103535  W2        22701           0.0000000000
     67479     22493  TIP3      H2             32.0093433595      -41.1115722861       27.0401803535  W2        22701           0.0000000000
     67480     22494  TIP3      OH2            27.5337233595      -43.8357822861       33.7423803535  W2        22702           0.0000000000
     67481     22494  TIP3      H1             26.7936333595      -43.2376322861       33.8459003535  W2        22702           0.0000000000
     67482     22494  TIP3      H2             28.2476733595      -43.2818222861       33.4267403535  W2        22702           0.0000000000
     67483     22495  TIP3      OH2            35.6405033595      -51.0077022861       29.7623503535  W2        22703           0.0000000000
     67484     22495  TIP3      H1             35.4253033595      -51.7733622861       30.2949503535  W2        22703           0.0000000000
     67485     22495  TIP3      H2             36.2962433595      -50.5352422861       30.2752003535  W2        22703           0.0000000000
     67486     22496  TIP3      OH2            24.5583133595      -49.6191722861       31.4072303535  W2        22704           0.0000000000
     67487     22496  TIP3      H1             25.1719433595      -48.9864122861       31.7804703535  W2        22704           0.0000000000
     67488     22496  TIP3      H2             25.0703833595      -50.0916722861       30.7509203535  W2        22704           0.0000000000
     67489     22497  TIP3      OH2            25.9411533595      -41.8714822861       34.5295303535  W2        22705           0.0000000000
     67490     22497  TIP3      H1             25.9359133595      -40.9921322861       34.1514603535  W2        22705           0.0000000000
     67491     22497  TIP3      H2             25.0875633595      -41.9550722861       34.9545203535  W2        22705           0.0000000000
     67492     22498  TIP3      OH2            22.0622433595      -42.2006922861       25.3114603535  W2        22706           0.0000000000
     67493     22498  TIP3      H1             21.7903333595      -41.9715922861       24.4227503535  W2        22706           0.0000000000
     67494     22498  TIP3      H2             22.1078133595      -41.3628122861       25.7719903535  W2        22706           0.0000000000
     67495     22499  TIP3      OH2            35.6872133595      -40.5791022861       32.0243103535  W2        22707           0.0000000000
     67496     22499  TIP3      H1             34.7455833595      -40.5207122861       32.1860003535  W2        22707           0.0000000000
     67497     22499  TIP3      H2             35.9638233595      -39.6730522861       31.8872803535  W2        22707           0.0000000000
     67498     22500  TIP3      OH2            35.9879133595      -52.2925722861       33.4417003535  W2        22708           0.0000000000
     67499     22500  TIP3      H1             35.2518333595      -51.6818622861       33.4038303535  W2        22708           0.0000000000
     67500     22500  TIP3      H2             36.6713133595      -51.8776722861       32.9153403535  W2        22708           0.0000000000
     67501     22501  TIP3      OH2            28.9910533595      -54.2058422861       30.9075003535  W2        22709           0.0000000000
     67502     22501  TIP3      H1             28.8734733595      -55.1542422861       30.8533303535  W2        22709           0.0000000000
     67503     22501  TIP3      H2             28.1360633595      -53.8732322861       31.1806103535  W2        22709           0.0000000000
     67504     22502  TIP3      OH2            33.9393333595      -38.7977522861       28.6494703535  W2        22710           0.0000000000
     67505     22502  TIP3      H1             34.3645633595      -39.5049622861       28.1644303535  W2        22710           0.0000000000
     67506     22502  TIP3      H2             34.2563333595      -37.9964822861       28.2326903535  W2        22710           0.0000000000
     67507     22503  TIP3      OH2            35.0989833595      -40.8969022861       27.1581303535  W2        22711           0.0000000000
     67508     22503  TIP3      H1             34.8414633595      -41.5868922861       26.5467203535  W2        22711           0.0000000000
     67509     22503  TIP3      H2             35.1700633595      -41.3397822861       28.0037203535  W2        22711           0.0000000000
     67510     22504  TIP3      OH2            31.2575433595      -45.3682822861       25.4080803535  W2        22713           0.0000000000
     67511     22504  TIP3      H1             30.5460933595      -44.8333122861       25.0561303535  W2        22713           0.0000000000
     67512     22504  TIP3      H2             31.9485033595      -45.3130722861       24.7479703535  W2        22713           0.0000000000
     67513     22505  TIP3      OH2            31.3114633595      -46.9108522861       22.4465803535  W2        22714           0.0000000000
     67514     22505  TIP3      H1             32.0124533595      -46.8881622861       23.0979803535  W2        22714           0.0000000000
     67515     22505  TIP3      H2             31.6137533595      -47.5388822861       21.7905103535  W2        22714           0.0000000000
     67516     22506  TIP3      OH2            38.6269333595      -45.9904322861       33.7015203535  W2        22715           0.0000000000
     67517     22506  TIP3      H1             37.9743433595      -45.2958722861       33.7906103535  W2        22715           0.0000000000
     67518     22506  TIP3      H2             39.0919633595      -45.7803422861       32.8916803535  W2        22715           0.0000000000
     67519     22507  TIP3      OH2            34.6633133595      -45.1589522861       26.3596703535  W2        22716           0.0000000000
     67520     22507  TIP3      H1             33.9314133595      -44.9305822861       26.9327303535  W2        22716           0.0000000000
     67521     22507  TIP3      H2             35.1105333595      -45.8726822861       26.8144203535  W2        22716           0.0000000000
     67522     22508  TIP3      OH2            34.5606633595      -46.9846922861       35.4273703535  W2        22717           0.0000000000
     67523     22508  TIP3      H1             34.6405733595      -46.2212522861       35.9992203535  W2        22717           0.0000000000
     67524     22508  TIP3      H2             33.9594333595      -46.7054522861       34.7368803535  W2        22717           0.0000000000
     67525     22509  TIP3      OH2            26.3086833595      -44.5283322861       28.2421703535  W2        22718           0.0000000000
     67526     22509  TIP3      H1             25.9782033595      -44.8989922861       27.4238703535  W2        22718           0.0000000000
     67527     22509  TIP3      H2             26.8970933595      -45.1989322861       28.5890003535  W2        22718           0.0000000000
     67528     22510  TIP3      OH2            27.6754333595      -41.1002722861       30.9233903535  W2        22719           0.0000000000
     67529     22510  TIP3      H1             27.5805633595      -41.6789622861       30.1668503535  W2        22719           0.0000000000
     67530     22510  TIP3      H2             28.4047933595      -41.4717022861       31.4196703535  W2        22719           0.0000000000
     67531     22511  TIP3      OH2            26.6752333595      -45.7597722861       31.8756703535  W2        22720           0.0000000000
     67532     22511  TIP3      H1             27.2404833595      -45.6383522861       31.1127903535  W2        22720           0.0000000000
     67533     22511  TIP3      H2             26.9941233595      -45.1222722861       32.5145203535  W2        22720           0.0000000000
     67534     22512  TIP3      OH2            32.9844533595      -40.2565822861       32.6097203535  W2        22721           0.0000000000
     67535     22512  TIP3      H1             32.7441133595      -39.5942722861       33.2576403535  W2        22721           0.0000000000
     67536     22512  TIP3      H2             32.7862733595      -41.0910622861       33.0346803535  W2        22721           0.0000000000
     67537     22513  TIP3      OH2            33.5342633595      -45.9966622861       24.0447903535  W2        22723           0.0000000000
     67538     22513  TIP3      H1             34.1138133595      -45.8466322861       24.7916803535  W2        22723           0.0000000000
     67539     22513  TIP3      H2             33.9482633595      -45.5259222861       23.3214303535  W2        22723           0.0000000000
     67540     22514  TIP3      OH2            31.2607533595      -39.2598122861       27.4801003535  W2        22725           0.0000000000
     67541     22514  TIP3      H1             31.7345133595      -38.9641822861       28.2575203535  W2        22725           0.0000000000
     67542     22514  TIP3      H2             30.6976833595      -38.5216522861       27.2470603535  W2        22725           0.0000000000
     67543     22515  TIP3      OH2            37.2331033595      -54.2466222861       23.8577603535  W2        22727           0.0000000000
     67544     22515  TIP3      H1             36.3331733595      -54.1077222861       24.1528203535  W2        22727           0.0000000000
     67545     22515  TIP3      H2             37.4849433595      -53.4151622861       23.4559303535  W2        22727           0.0000000000
     67546     22516  TIP3      OH2            25.2989533595      -45.4589022861       25.8314503535  W2        22728           0.0000000000
     67547     22516  TIP3      H1             25.0070833595      -44.6907322861       25.3405803535  W2        22728           0.0000000000
     67548     22516  TIP3      H2             24.6244733595      -46.1182822861       25.6685903535  W2        22728           0.0000000000
     67549     22517  TIP3      OH2            38.4222433595      -39.8803822861       22.2341503535  W2        22729           0.0000000000
     67550     22517  TIP3      H1             38.4955933595      -38.9413622861       22.4046803535  W2        22729           0.0000000000
     67551     22517  TIP3      H2             39.3277533595      -40.1855222861       22.1778803535  W2        22729           0.0000000000
     67552     22518  TIP3      OH2            21.3919633595      -43.0959822861       34.6464303535  W2        22730           0.0000000000
     67553     22518  TIP3      H1             20.8908033595      -43.1240422861       33.8314003535  W2        22730           0.0000000000
     67554     22518  TIP3      H2             21.3973333595      -44.0016622861       34.9561603535  W2        22730           0.0000000000
     67555     22519  TIP3      OH2            21.1422333595      -40.3156022861       31.5304503535  W2        22731           0.0000000000
     67556     22519  TIP3      H1             22.0882933595      -40.4599022861       31.5114003535  W2        22731           0.0000000000
     67557     22519  TIP3      H2             21.0298633595      -39.5313222861       32.0675703535  W2        22731           0.0000000000
     67558     22520  TIP3      OH2            30.7330633595      -36.3033422861       25.8950203535  W2        22734           0.0000000000
     67559     22520  TIP3      H1             30.6576633595      -36.4246222861       24.9485403535  W2        22734           0.0000000000
     67560     22520  TIP3      H2             30.7659333595      -35.3540722861       26.0134803535  W2        22734           0.0000000000
     67561     22521  TIP3      OH2            24.3864433595      -37.5146422861       27.6759203535  W2        22735           0.0000000000
     67562     22521  TIP3      H1             24.5384833595      -37.8626022861       28.5545703535  W2        22735           0.0000000000
     67563     22521  TIP3      H2             23.5354833595      -37.8709122861       27.4206403535  W2        22735           0.0000000000
     67564     22522  TIP3      OH2            33.8346633595      -37.1493222861       22.8972603535  W2        22736           0.0000000000
     67565     22522  TIP3      H1             34.2095033595      -37.8937122861       22.4265203535  W2        22736           0.0000000000
     67566     22522  TIP3      H2             33.8390333595      -37.4192622861       23.8155903535  W2        22736           0.0000000000
     67567     22523  TIP3      OH2            33.5034733595      -37.2236122861       25.6464803535  W2        22737           0.0000000000
     67568     22523  TIP3      H1             32.5684533595      -37.1234222861       25.8251803535  W2        22737           0.0000000000
     67569     22523  TIP3      H2             33.7836633595      -37.9330122861       26.2248003535  W2        22737           0.0000000000
     67570     22524  TIP3      OH2            26.2598133595      -53.3023922861       31.6851303535  W2        22740           0.0000000000
     67571     22524  TIP3      H1             25.3981833595      -53.3895722861       31.2774203535  W2        22740           0.0000000000
     67572     22524  TIP3      H2             26.2373833595      -52.4463822861       32.1128903535  W2        22740           0.0000000000
     67573     22525  TIP3      OH2            30.9225933595      -53.5803522861       35.0598303535  W2        22741           0.0000000000
     67574     22525  TIP3      H1             31.3429033595      -53.9956422861       35.8128903535  W2        22741           0.0000000000
     67575     22525  TIP3      H2             29.9895533595      -53.7590222861       35.1770303535  W2        22741           0.0000000000
     67576     22526  TIP3      OH2            35.0115733595      -44.9638322861       21.6745803535  W2        22743           0.0000000000
     67577     22526  TIP3      H1             35.0536533595      -45.1864422861       20.7445803535  W2        22743           0.0000000000
     67578     22526  TIP3      H2             35.8607833595      -44.5651222861       21.8645703535  W2        22743           0.0000000000
     67579     22527  TIP3      OH2            30.5843233595      -51.0880122861       22.3449103535  W2        22744           0.0000000000
     67580     22527  TIP3      H1             30.3308033595      -51.0688522861       23.2677203535  W2        22744           0.0000000000
     67581     22527  TIP3      H2             30.3275333595      -51.9594722861       22.0435303535  W2        22744           0.0000000000
     67582     22528  TIP3      OH2            26.3508233595      -48.3369422861       32.7801503535  W2        22745           0.0000000000
     67583     22528  TIP3      H1             25.7090333595      -48.3772122861       33.4891603535  W2        22745           0.0000000000
     67584     22528  TIP3      H2             26.3880233595      -47.4104722861       32.5424503535  W2        22745           0.0000000000
     67585     22529  TIP3      OH2            26.3477333595      -48.1159322861       27.6921503535  W2        22746           0.0000000000
     67586     22529  TIP3      H1             25.4550233595      -48.4563222861       27.6335303535  W2        22746           0.0000000000
     67587     22529  TIP3      H2             26.7983933595      -48.4928422861       26.9364703535  W2        22746           0.0000000000
     67588     22530  TIP3      OH2            31.8832833595      -47.6999022861       26.5092303535  W2        22747           0.0000000000
     67589     22530  TIP3      H1             31.4743133595      -46.8850422861       26.2177103535  W2        22747           0.0000000000
     67590     22530  TIP3      H2             32.6039033595      -47.8398922861       25.8949403535  W2        22747           0.0000000000
     67591     22531  TIP3      OH2            32.8880533595      -48.2538622861       29.3232003535  W2        22749           0.0000000000
     67592     22531  TIP3      H1             32.6925033595      -47.6481822861       28.6082603535  W2        22749           0.0000000000
     67593     22531  TIP3      H2             33.0693133595      -49.0873422861       28.8888303535  W2        22749           0.0000000000
     67594     22532  TIP3      OH2            24.1008733595      -48.0165922861       34.6473503535  W2        22750           0.0000000000
     67595     22532  TIP3      H1             24.0628133595      -47.6164322861       35.5160603535  W2        22750           0.0000000000
     67596     22532  TIP3      H2             23.6099833595      -48.8333522861       34.7376403535  W2        22750           0.0000000000
     67597     22533  TIP3      OH2            27.4666133595      -50.6423622861       21.4459503535  W2        22751           0.0000000000
     67598     22533  TIP3      H1             27.0356833595      -51.0873522861       22.1756903535  W2        22751           0.0000000000
     67599     22533  TIP3      H2             26.7484833595      -50.2707322861       20.9337003535  W2        22751           0.0000000000
     67600     22534  TIP3      OH2            20.7089533595      -50.9004122861       28.4978203535  W2        22752           0.0000000000
     67601     22534  TIP3      H1             21.3397233595      -50.9292022861       29.2172103535  W2        22752           0.0000000000
     67602     22534  TIP3      H2             21.1583833595      -51.3255422861       27.7674103535  W2        22752           0.0000000000
     67603     22535  TIP3      OH2            21.9831633595      -50.1542122861       23.9218603535  W2        22753           0.0000000000
     67604     22535  TIP3      H1             22.4573333595      -49.5632222861       23.3369503535  W2        22753           0.0000000000
     67605     22535  TIP3      H2             21.2658033595      -49.6239222861       24.2688703535  W2        22753           0.0000000000
     67606     22536  TIP3      OH2            32.1519733595      -46.6157322861       33.9944403535  W2        22754           0.0000000000
     67607     22536  TIP3      H1             32.4754533595      -47.2467622861       33.3514903535  W2        22754           0.0000000000
     67608     22536  TIP3      H2             31.7119033595      -47.1505122861       34.6551803535  W2        22754           0.0000000000
     67609     22537  TIP3      OH2            28.9292633595      -50.6881822861       28.7785603535  W2        22755           0.0000000000
     67610     22537  TIP3      H1             28.0183733595      -50.6315022861       29.0671603535  W2        22755           0.0000000000
     67611     22537  TIP3      H2             29.4345533595      -50.7486322861       29.5892803535  W2        22755           0.0000000000
     67612     22538  TIP3      OH2            23.7576033595      -49.0595522861       27.6053203535  W2        22756           0.0000000000
     67613     22538  TIP3      H1             22.8684033595      -48.9600022861       27.2652803535  W2        22756           0.0000000000
     67614     22538  TIP3      H2             24.0540933595      -49.9012522861       27.2591103535  W2        22756           0.0000000000
     67615     22539  TIP3      OH2            27.4107833595      -49.0592922861       25.2617803535  W2        22757           0.0000000000
     67616     22539  TIP3      H1             28.3423333595      -48.9302922861       25.4400903535  W2        22757           0.0000000000
     67617     22539  TIP3      H2             27.1958133595      -48.3898622861       24.6122503535  W2        22757           0.0000000000
     67618     22540  TIP3      OH2            33.3344533595      -51.4535522861       32.0427403535  W2        22758           0.0000000000
     67619     22540  TIP3      H1             32.6576133595      -51.3222422861       32.7067103535  W2        22758           0.0000000000
     67620     22540  TIP3      H2             32.8489433595      -51.6086022861       31.2325103535  W2        22758           0.0000000000
     67621     22541  TIP3      OH2            26.0848033595      -47.8650722861       22.8283903535  W2        22759           0.0000000000
     67622     22541  TIP3      H1             25.5423133595      -48.2446922861       22.1371503535  W2        22759           0.0000000000
     67623     22541  TIP3      H2             26.9182933595      -47.6706022861       22.3998003535  W2        22759           0.0000000000
     67624     22542  TIP3      OH2            30.2492333595      -47.9008822861       30.6655203535  W2        22762           0.0000000000
     67625     22542  TIP3      H1             30.8135733595      -48.4472222861       30.1184803535  W2        22762           0.0000000000
     67626     22542  TIP3      H2             30.1015733595      -48.4226922861       31.4542803535  W2        22762           0.0000000000
     67627     22543  TIP3      OH2            25.2512033595      -51.7642722861       27.0840003535  W2        22763           0.0000000000
     67628     22543  TIP3      H1             24.9341533595      -52.6667422861       27.0485403535  W2        22763           0.0000000000
     67629     22543  TIP3      H2             26.0326133595      -51.7625322861       26.5311603535  W2        22763           0.0000000000
     67630     22544  TIP3      OH2            28.8758233595      -49.5122722861       33.0795603535  W2        22764           0.0000000000
     67631     22544  TIP3      H1             28.0403533595      -49.0583222861       33.1898003535  W2        22764           0.0000000000
     67632     22544  TIP3      H2             29.3998833595      -49.2364222861       33.8315503535  W2        22764           0.0000000000
     67633     22545  TIP3      OH2            29.4200833595      -43.2995022861       24.7642003535  W2        22765           0.0000000000
     67634     22545  TIP3      H1             28.6751833595      -43.8069722861       24.4419903535  W2        22765           0.0000000000
     67635     22545  TIP3      H2             29.2858033595      -43.2507022861       25.7106803535  W2        22765           0.0000000000
     67636     22546  TIP3      OH2            36.5699733595      -44.1666822861       33.5509603535  W2        22766           0.0000000000
     67637     22546  TIP3      H1             37.2118533595      -43.7100522861       33.0071803535  W2        22766           0.0000000000
     67638     22546  TIP3      H2             35.7396633595      -44.0534422861       33.0883703535  W2        22766           0.0000000000
     67639     22547  TIP3      OH2            33.3177633595      -50.4855122861       22.9634603535  W2        22767           0.0000000000
     67640     22547  TIP3      H1             32.3791833595      -50.3739522861       22.8123403535  W2        22767           0.0000000000
     67641     22547  TIP3      H2             33.6149733595      -49.6288222861       23.2700303535  W2        22767           0.0000000000
     67642     22548  TIP3      OH2            34.0361133595      -48.6182422861       24.6242003535  W2        22769           0.0000000000
     67643     22548  TIP3      H1             34.9280133595      -48.7557422861       24.9433203535  W2        22769           0.0000000000
     67644     22548  TIP3      H2             34.0924733595      -47.8276322861       24.0875503535  W2        22769           0.0000000000
     67645     22549  TIP3      OH2            24.5449133595      -44.0045022861       30.5339903535  W2        22770           0.0000000000
     67646     22549  TIP3      H1             25.2896333595      -44.0069322861       29.9326403535  W2        22770           0.0000000000
     67647     22549  TIP3      H2             24.6225733595      -44.8281222861       31.0155003535  W2        22770           0.0000000000
     67648     22550  TIP3      OH2            31.5454933595      -41.8410722861       23.7896603535  W2        22771           0.0000000000
     67649     22550  TIP3      H1             31.2503333595      -41.0142822861       24.1711403535  W2        22771           0.0000000000
     67650     22550  TIP3      H2             30.8424933595      -42.4603822861       23.9858003535  W2        22771           0.0000000000
     67651     22551  TIP3      OH2            38.9209833595      -48.4088322861       24.3188703535  W2        22775           0.0000000000
     67652     22551  TIP3      H1             38.3666133595      -48.8050322861       23.6466203535  W2        22775           0.0000000000
     67653     22551  TIP3      H2             39.0213433595      -47.4983122861       24.0412003535  W2        22775           0.0000000000
     67654     22552  TIP3      OH2            37.2161533595      -39.6227922861       24.7840803535  W2        22777           0.0000000000
     67655     22552  TIP3      H1             36.8432633595      -40.4484122861       25.0931403535  W2        22777           0.0000000000
     67656     22552  TIP3      H2             37.4935033595      -39.8058522861       23.8864203535  W2        22777           0.0000000000
     67657     22553  TIP3      OH2            34.3765433595      -44.8148422861       31.8052703535  W2        22778           0.0000000000
     67658     22553  TIP3      H1             33.4482333595      -45.0466522861       31.7782003535  W2        22778           0.0000000000
     67659     22553  TIP3      H2             34.8276533595      -45.5918622861       31.4751503535  W2        22778           0.0000000000
     67660     22554  TIP3      OH2            26.9198533595      -40.4866822861       27.9381403535  W2        22779           0.0000000000
     67661     22554  TIP3      H1             27.4470733595      -39.7132422861       27.7380203535  W2        22779           0.0000000000
     67662     22554  TIP3      H2             26.0397033595      -40.2617622861       27.6365403535  W2        22779           0.0000000000
     67663     22555  TIP3      OH2            22.6746233595      -45.6242722861       22.5253803535  W2        22780           0.0000000000
     67664     22555  TIP3      H1             23.2906133595      -44.9975522861       22.9048603535  W2        22780           0.0000000000
     67665     22555  TIP3      H2             21.8128833595      -45.3082922861       22.7970303535  W2        22780           0.0000000000
     67666     22556  TIP3      OH2            28.3470833595      -42.8236922861       27.5145703535  W2        22781           0.0000000000
     67667     22556  TIP3      H1             28.1060833595      -41.8982522861       27.5561003535  W2        22781           0.0000000000
     67668     22556  TIP3      H2             27.6064433595      -43.2825622861       27.9109603535  W2        22781           0.0000000000
     67669     22557  TIP3      OH2            28.8617433595      -38.6743322861       33.8296803535  W2        22782           0.0000000000
     67670     22557  TIP3      H1             29.2242133595      -37.8197722861       33.5961203535  W2        22782           0.0000000000
     67671     22557  TIP3      H2             29.3932633595      -38.9661722861       34.5703103535  W2        22782           0.0000000000
     67672     22558  TIP3      OH2            27.0301633595      -37.8019322861       27.0597903535  W2        22783           0.0000000000
     67673     22558  TIP3      H1             26.0802133595      -37.6961922861       27.1111203535  W2        22783           0.0000000000
     67674     22558  TIP3      H2             27.3819733595      -36.9811922861       27.4045403535  W2        22783           0.0000000000
     67675     22559  TIP3      OH2            32.4058233595      -42.5752622861       33.5302403535  W2        22784           0.0000000000
     67676     22559  TIP3      H1             31.9799533595      -42.8030922861       34.3566403535  W2        22784           0.0000000000
     67677     22559  TIP3      H2             32.9864033595      -43.3140822861       33.3477703535  W2        22784           0.0000000000
     67678     22560  TIP3      OH2            34.6087133595      -41.6462122861       22.6041403535  W2        22785           0.0000000000
     67679     22560  TIP3      H1             34.9620233595      -42.0262322861       23.4084903535  W2        22785           0.0000000000
     67680     22560  TIP3      H2             33.6600633595      -41.7397322861       22.6910703535  W2        22785           0.0000000000
     67681     22561  TIP3      OH2            39.1121533595      -37.1669622861       22.8051603535  W2        22787           0.0000000000
     67682     22561  TIP3      H1             39.8559433595      -36.5809122861       22.6653203535  W2        22787           0.0000000000
     67683     22561  TIP3      H2             38.4179633595      -36.5983822861       23.1384003535  W2        22787           0.0000000000
     67684     22562  TIP3      OH2            23.1868333595      -50.7905422861       35.4069803535  W2        22788           0.0000000000
     67685     22562  TIP3      H1             22.2940633595      -50.4520022861       35.3393803535  W2        22788           0.0000000000
     67686     22562  TIP3      H2             23.0881133595      -51.6459322861       35.8250603535  W2        22788           0.0000000000
     67687     22563  TIP3      OH2            35.4746433595      -42.9740122861       24.8309303535  W2        22789           0.0000000000
     67688     22563  TIP3      H1             35.1974033595      -43.7020822861       25.3870403535  W2        22789           0.0000000000
     67689     22563  TIP3      H2             36.4019433595      -42.8548122861       25.0361903535  W2        22789           0.0000000000
     67690     22564  TIP3      OH2            22.8380333595      -38.9861022861       33.8419203535  W2        22790           0.0000000000
     67691     22564  TIP3      H1             23.0550633595      -39.9178622861       33.8108903535  W2        22790           0.0000000000
     67692     22564  TIP3      H2             23.0843833595      -38.7116022861       34.7252003535  W2        22790           0.0000000000
     67693     22565  TIP3      OH2            28.6994933595      -40.5346022861       21.0511403535  W2        22791           0.0000000000
     67694     22565  TIP3      H1             28.9384733595      -41.2827922861       20.5040303535  W2        22791           0.0000000000
     67695     22565  TIP3      H2             28.4306233595      -40.9224322861       21.8839203535  W2        22791           0.0000000000
     67696     22566  TIP3      OH2            27.6365533595      -40.9642222861       23.5074003535  W2        22792           0.0000000000
     67697     22566  TIP3      H1             27.7833533595      -41.4842422861       24.2974903535  W2        22792           0.0000000000
     67698     22566  TIP3      H2             27.6337233595      -40.0574622861       23.8139903535  W2        22792           0.0000000000
     67699     22567  TIP3      OH2            24.0896633595      -43.7118922861       24.0179403535  W2        22793           0.0000000000
     67700     22567  TIP3      H1             23.4035933595      -43.3596422861       24.5849103535  W2        22793           0.0000000000
     67701     22567  TIP3      H2             24.6124533595      -42.9489322861       23.7713703535  W2        22793           0.0000000000
     67702     22568  TIP3      OH2            31.9211733595      -51.0495122861       34.2968403535  W2        22794           0.0000000000
     67703     22568  TIP3      H1             32.6199633595      -50.9756422861       34.9468103535  W2        22794           0.0000000000
     67704     22568  TIP3      H2             31.5403133595      -51.9140122861       34.4511303535  W2        22794           0.0000000000
     67705     22569  TIP3      OH2            32.7056633595      -51.3973422861       25.3940703535  W2        22795           0.0000000000
     67706     22569  TIP3      H1             32.9254933595      -50.9258022861       24.5906103535  W2        22795           0.0000000000
     67707     22569  TIP3      H2             33.2640633595      -51.0030822861       26.0641303535  W2        22795           0.0000000000
     67708     22570  TIP3      OH2            30.3742733595      -39.2668622861       24.2568203535  W2        22796           0.0000000000
     67709     22570  TIP3      H1             29.5578833595      -38.7698922861       24.3092503535  W2        22796           0.0000000000
     67710     22570  TIP3      H2             30.9039033595      -38.7915122861       23.6167003535  W2        22796           0.0000000000
     67711     22571  TIP3      OH2            29.9056533595      -49.6694622861       26.2289103535  W2        22797           0.0000000000
     67712     22571  TIP3      H1             30.7179133595      -49.1651422861       26.2750803535  W2        22797           0.0000000000
     67713     22571  TIP3      H2             29.6609533595      -49.8144922861       27.1428703535  W2        22797           0.0000000000
     67714     22572  TIP3      OH2            30.4412933595      -48.6831922861       35.4135703535  W2        22798           0.0000000000
     67715     22572  TIP3      H1             30.5603233595      -48.1096522861       36.1706103535  W2        22798           0.0000000000
     67716     22572  TIP3      H2             31.0967533595      -49.3712522861       35.5283503535  W2        22798           0.0000000000
     67717     22573  TIP3      OH2            30.7893233595      -52.5881622861       27.1670203535  W2        22799           0.0000000000
     67718     22573  TIP3      H1             30.4426733595      -51.9711022861       27.8114503535  W2        22799           0.0000000000
     67719     22573  TIP3      H2             31.4480133595      -52.0875922861       26.6855703535  W2        22799           0.0000000000
     67720     22574  TIP3      OH2            27.7125833595      -38.2231422861       24.2385103535  W2        22800           0.0000000000
     67721     22574  TIP3      H1             27.8734533595      -37.4233922861       23.7377703535  W2        22800           0.0000000000
     67722     22574  TIP3      H2             27.5153633595      -37.9165422861       25.1235703535  W2        22800           0.0000000000
     67723     22575  TIP3      OH2            26.4470233595      -51.5252222861       23.8542703535  W2        22801           0.0000000000
     67724     22575  TIP3      H1             26.3635033595      -50.6369122861       24.2009103535  W2        22801           0.0000000000
     67725     22575  TIP3      H2             27.3370533595      -51.7905522861       24.0859503535  W2        22801           0.0000000000
     67726     22576  TIP3      OH2            35.2479733595      -47.0260622861       30.3442703535  W2        22803           0.0000000000
     67727     22576  TIP3      H1             34.4504133595      -47.4410422861       30.0157703535  W2        22803           0.0000000000
     67728     22576  TIP3      H2             35.6930833595      -47.7166922861       30.8353203535  W2        22803           0.0000000000
     67729     22577  TIP3      OH2            24.7055533595      -41.0980022861       22.9147203535  W2        22804           0.0000000000
     67730     22577  TIP3      H1             25.2977033595      -40.3985222861       23.1909603535  W2        22804           0.0000000000
     67731     22577  TIP3      H2             25.1648533595      -41.5310522861       22.1951803535  W2        22804           0.0000000000
     67732     22578  TIP3      OH2            23.0214733595      -48.4337022861       22.0306603535  W2        22805           0.0000000000
     67733     22578  TIP3      H1             22.9767333595      -47.4943922861       22.2093603535  W2        22805           0.0000000000
     67734     22578  TIP3      H2             22.1337933595      -48.6692122861       21.7608703535  W2        22805           0.0000000000
     67735     22579  TIP3      OH2            36.3344333595      -37.7698122861       31.9666203535  W2        22806           0.0000000000
     67736     22579  TIP3      H1             36.1788633595      -37.0913722861       31.3095503535  W2        22806           0.0000000000
     67737     22579  TIP3      H2             37.2670733595      -37.6978822861       32.1696803535  W2        22806           0.0000000000
     67738     22580  TIP3      OH2            23.8296733595      -53.6520422861       30.7037603535  W2        22807           0.0000000000
     67739     22580  TIP3      H1             23.6006533595      -53.5927922861       29.7762603535  W2        22807           0.0000000000
     67740     22580  TIP3      H2             23.3870133595      -54.4434922861       31.0101703535  W2        22807           0.0000000000
     67741     22581  TIP3      OH2            22.7600033595      -39.7113322861       26.8643403535  W2        22808           0.0000000000
     67742     22581  TIP3      H1             21.9278633595      -39.2390622861       26.8914803535  W2        22808           0.0000000000
     67743     22581  TIP3      H2             23.3058333595      -39.2015722861       26.2656503535  W2        22808           0.0000000000
     67744     22582  TIP3      OH2            30.7376733595      -38.6714622861       21.1897403535  W2        22811           0.0000000000
     67745     22582  TIP3      H1             30.0937733595      -39.3026022861       21.5111103535  W2        22811           0.0000000000
     67746     22582  TIP3      H2             31.4995033595      -39.2026622861       20.9580903535  W2        22811           0.0000000000
     67747     22583  TIP3      OH2            35.3419633595      -38.8544722861       21.4235403535  W2        22813           0.0000000000
     67748     22583  TIP3      H1             35.6250033595      -39.6489522861       21.8762303535  W2        22813           0.0000000000
     67749     22583  TIP3      H2             36.0817533595      -38.6213722861       20.8626503535  W2        22813           0.0000000000
     67750     22584  TIP3      OH2            26.2966933595      -42.9449822861       21.2810303535  W2        22815           0.0000000000
     67751     22584  TIP3      H1             26.3611033595      -43.7390222861       21.8116703535  W2        22815           0.0000000000
     67752     22584  TIP3      H2             26.9496133595      -43.0637022861       20.5912303535  W2        22815           0.0000000000
     67753     22585  TIP3      OH2            31.6490333595      -41.8978122861       21.0168303535  W2        22817           0.0000000000
     67754     22585  TIP3      H1             31.3804433595      -41.7176022861       21.9177203535  W2        22817           0.0000000000
     67755     22585  TIP3      H2             31.4425933595      -42.8231922861       20.8854103535  W2        22817           0.0000000000
     67756     22586  TIP3      OH2            27.4460733595      -44.9723622861       23.5868303535  W2        22820           0.0000000000
     67757     22586  TIP3      H1             26.9862733595      -45.4565322861       24.2726803535  W2        22820           0.0000000000
     67758     22586  TIP3      H2             27.7009433595      -45.6408222861       22.9508803535  W2        22820           0.0000000000
     67759     22587  TIP3      OH2            28.5171133595      -46.7291822861       21.8491503535  W2        22822           0.0000000000
     67760     22587  TIP3      H1             28.3366133595      -46.8840622861       20.9219803535  W2        22822           0.0000000000
     67761     22587  TIP3      H2             29.4671633595      -46.6213122861       21.8939403535  W2        22822           0.0000000000
     67762     22588  TIP3      OH2            37.9069433595      -44.3747622861       21.2949603535  W2        22824           0.0000000000
     67763     22588  TIP3      H1             37.6334233595      -44.7992122861       20.4817903535  W2        22824           0.0000000000
     67764     22588  TIP3      H2             37.9463533595      -43.4433122861       21.0780003535  W2        22824           0.0000000000
     67765     22589  TIP3      OH2            27.4869433595      -51.3549922861       34.5178403535  W2        22826           0.0000000000
     67766     22589  TIP3      H1             28.0226933595      -50.9033222861       33.8657703535  W2        22826           0.0000000000
     67767     22589  TIP3      H2             26.6349033595      -51.4630122861       34.0952503535  W2        22826           0.0000000000
     67768     22590  TIP3      OH2            29.0687833595      -45.9153722861       34.7573603535  W2        22827           0.0000000000
     67769     22590  TIP3      H1             29.8192633595      -46.0716222861       34.1841403535  W2        22827           0.0000000000
     67770     22590  TIP3      H2             28.7296133595      -45.0637122861       34.4819103535  W2        22827           0.0000000000
     67771     22591  TIP3      OH2            28.2924933595      -53.8984222861       34.9492003535  W2        22831           0.0000000000
     67772     22591  TIP3      H1             28.1944533595      -52.9521022861       34.8438203535  W2        22831           0.0000000000
     67773     22591  TIP3      H2             27.5501133595      -54.2710422861       34.4735503535  W2        22831           0.0000000000
     67774     22592  TIP3      OH2            28.4142833595      -36.0388122861       22.8505103535  W2        22838           0.0000000000
     67775     22592  TIP3      H1             29.3473533595      -35.8809422861       22.9943503535  W2        22838           0.0000000000
     67776     22592  TIP3      H2             28.1501633595      -35.3635122861       22.2256603535  W2        22838           0.0000000000
     67777     22593  TIP3      OH2            21.9827733595      -41.4024322861       22.3333203535  W2        22839           0.0000000000
     67778     22593  TIP3      H1             22.8966933595      -41.3235422861       22.6067103535  W2        22839           0.0000000000
     67779     22593  TIP3      H2             21.9900833595      -42.0894722861       21.6668803535  W2        22839           0.0000000000
     67780     22594  TIP3      OH2            20.6318333595      -36.0095822861       27.4107103535  W2        22840           0.0000000000
     67781     22594  TIP3      H1             19.9845433595      -36.4714122861       26.8778303535  W2        22840           0.0000000000
     67782     22594  TIP3      H2             20.9862933595      -36.6812522861       27.9933303535  W2        22840           0.0000000000
     67783     22595  TIP3      OH2            21.5017533595      -37.9288822861       29.2153303535  W2        22841           0.0000000000
     67784     22595  TIP3      H1             21.1674333595      -38.8091522861       29.3873503535  W2        22841           0.0000000000
     67785     22595  TIP3      H2             21.7239933595      -37.5833822861       30.0798903535  W2        22841           0.0000000000
     67786     22596  TIP3      OH2            39.0502333595      -37.1192422861       32.1958103535  W2        22842           0.0000000000
     67787     22596  TIP3      H1             39.0289033595      -36.9344022861       33.1347503535  W2        22842           0.0000000000
     67788     22596  TIP3      H2             39.7408533595      -36.5508422861       31.8549503535  W2        22842           0.0000000000
     67789     22597  TIP3      OH2            38.6135233595      -37.5521322861       35.1177203535  W2        22843           0.0000000000
     67790     22597  TIP3      H1             38.1263933595      -38.2877222861       34.7464603535  W2        22843           0.0000000000
     67791     22597  TIP3      H2             39.1627933595      -37.9457422861       35.7956603535  W2        22843           0.0000000000
     67792     22598  TIP3      OH2            38.3652233595      -43.5059522861       25.2700003535  W2        22845           0.0000000000
     67793     22598  TIP3      H1             39.2153633595      -43.0848622861       25.3971603535  W2        22845           0.0000000000
     67794     22598  TIP3      H2             38.3707333595      -44.2459422861       25.8771403535  W2        22845           0.0000000000
     67795     22599  TIP3      OH2            38.7597833595      -45.4522122861       27.0935703535  W2        22846           0.0000000000
     67796     22599  TIP3      H1             38.0332433595      -45.9319522861       27.4913303535  W2        22846           0.0000000000
     67797     22599  TIP3      H2             39.3411133595      -45.2467422861       27.8257303535  W2        22846           0.0000000000
     67798     22600  TIP3      OH2            38.5189033595      -42.6674622861       32.0413303535  W2        22847           0.0000000000
     67799     22600  TIP3      H1             39.3523233595      -43.0454622861       31.7606903535  W2        22847           0.0000000000
     67800     22600  TIP3      H2             38.6309333595      -41.7243422861       31.9222403535  W2        22847           0.0000000000
     67801     22601  TIP3      OH2            37.0051333595      -39.7897122861       34.3481703535  W2        22848           0.0000000000
     67802     22601  TIP3      H1             36.3576633595      -39.4645622861       34.9736903535  W2        22848           0.0000000000
     67803     22601  TIP3      H2             36.4875333595      -40.2299422861       33.6740003535  W2        22848           0.0000000000
     67804     22602  TIP3      OH2            39.0280933595      -45.5513622861       23.4847003535  W2        22849           0.0000000000
     67805     22602  TIP3      H1             38.5062033595      -45.1949522861       22.7657903535  W2        22849           0.0000000000
     67806     22602  TIP3      H2             38.9950133595      -44.8765822861       24.1627903535  W2        22849           0.0000000000
     67807     22603  TIP3      OH2            37.3769933595      -48.3118022861       22.0354103535  W2        22850           0.0000000000
     67808     22603  TIP3      H1             37.4734333595      -47.6451022861       21.3553803535  W2        22850           0.0000000000
     67809     22603  TIP3      H2             37.2369533595      -49.1271722861       21.5539603535  W2        22850           0.0000000000
     67810     22604  TIP3      OH2            36.5464633595      -46.9315622861       27.6564403535  W2        22851           0.0000000000
     67811     22604  TIP3      H1             36.3963433595      -47.8767022861       27.6362203535  W2        22851           0.0000000000
     67812     22604  TIP3      H2             36.1929133595      -46.6504222861       28.5003503535  W2        22851           0.0000000000
     67813     22605  TIP3      OH2            21.5817033595      -44.8533422861       31.6668203535  W2        22852           0.0000000000
     67814     22605  TIP3      H1             21.7659933595      -44.9351722861       30.7311103535  W2        22852           0.0000000000
     67815     22605  TIP3      H2             22.4309933595      -44.9776422861       32.0904603535  W2        22852           0.0000000000
     67816     22606  TIP3      OH2            36.6243733595      -50.9038222861       21.1529603535  W2        22855           0.0000000000
     67817     22606  TIP3      H1             37.2349533595      -51.2751422861       21.7897803535  W2        22855           0.0000000000
     67818     22606  TIP3      H2             35.7875233595      -51.3251322861       21.3489603535  W2        22855           0.0000000000
     67819     22607  TIP3      OH2            36.2569433595      -49.3489822861       26.1189503535  W2        22856           0.0000000000
     67820     22607  TIP3      H1             36.5366533595      -50.2559422861       26.2431203535  W2        22856           0.0000000000
     67821     22607  TIP3      H2             37.0161133595      -48.9148322861       25.7298703535  W2        22856           0.0000000000
     67822     22608  TIP3      OH2            36.8687733595      -48.7672422861       31.5548403535  W2        22857           0.0000000000
     67823     22608  TIP3      H1             37.8015733595      -48.5552522861       31.5204403535  W2        22857           0.0000000000
     67824     22608  TIP3      H2             36.6335233595      -48.6660322861       32.4771403535  W2        22857           0.0000000000
     67825     22609  TIP3      OH2            36.8979633595      -48.0307122861       34.3307803535  W2        22858           0.0000000000
     67826     22609  TIP3      H1             36.0550933595      -47.7626722861       34.6967603535  W2        22858           0.0000000000
     67827     22609  TIP3      H2             37.3403933595      -47.2085222861       34.1198903535  W2        22858           0.0000000000
     67828     22610  TIP3      OH2            36.8704233595      -52.0860522861       26.1671503535  W2        22861           0.0000000000
     67829     22610  TIP3      H1             37.0529233595      -52.5349022861       26.9926503535  W2        22861           0.0000000000
     67830     22610  TIP3      H2             36.2707133595      -52.6706122861       25.7036103535  W2        22861           0.0000000000
     67831     22611  TIP3      OH2            22.4004333595      -51.2706822861       30.6989903535  W2        22862           0.0000000000
     67832     22611  TIP3      H1             22.8455933595      -52.0624322861       31.0009603535  W2        22862           0.0000000000
     67833     22611  TIP3      H2             22.8667333595      -50.5541622861       31.1295503535  W2        22862           0.0000000000
     67834     22612  TIP3      OH2            20.7044633595      -48.2713822861       31.7680103535  W2        22863           0.0000000000
     67835     22612  TIP3      H1             21.1964433595      -48.4923322861       30.9772103535  W2        22863           0.0000000000
     67836     22612  TIP3      H2             21.0665533595      -47.4310422861       32.0489603535  W2        22863           0.0000000000
     67837     22613  TIP3      OH2            38.7370433595      -52.0182422861       22.6951803535  W2        22865           0.0000000000
     67838     22613  TIP3      H1             39.1493033595      -52.7396722861       22.2199803535  W2        22865           0.0000000000
     67839     22613  TIP3      H2             39.4186933595      -51.3487822861       22.7536103535  W2        22865           0.0000000000
     67840     22614  TIP3      OH2            21.0181133595      -52.0134722861       25.8222503535  W2        22866           0.0000000000
     67841     22614  TIP3      H1             20.0929533595      -51.8048122861       25.6928003535  W2        22866           0.0000000000
     67842     22614  TIP3      H2             21.4721033595      -51.5293922861       25.1324803535  W2        22866           0.0000000000
     67843     22615  TIP3      OH2            35.7888333595      -37.0293022861       27.7679903535  W2        22867           0.0000000000
     67844     22615  TIP3      H1             36.4411233595      -37.3770922861       27.1599003535  W2        22867           0.0000000000
     67845     22615  TIP3      H2             36.2992133595      -36.5409822861       28.4139603535  W2        22867           0.0000000000
     67846     22616  TIP3      OH2            20.9816533595      -53.2755722861       34.1665003535  W2        22868           0.0000000000
     67847     22616  TIP3      H1             20.3167033595      -53.5215422861       34.8095903535  W2        22868           0.0000000000
     67848     22616  TIP3      H2             20.5387833595      -52.6535322861       33.5893003535  W2        22868           0.0000000000
     67849     22617  TIP3      OH2            26.1278733595      -39.1260422861       34.5694803535  W2        22870           0.0000000000
     67850     22617  TIP3      H1             25.7029833595      -38.3161922861       34.2869403535  W2        22870           0.0000000000
     67851     22617  TIP3      H2             27.0321533595      -39.0406322861       34.2674603535  W2        22870           0.0000000000
     67852     22618  TIP3      OH2            23.5295433595      -35.8696522861       34.6170103535  W2        22874           0.0000000000
     67853     22618  TIP3      H1             22.8091833595      -35.4295522861       34.1657803535  W2        22874           0.0000000000
     67854     22618  TIP3      H2             23.1639433595      -36.1201822861       35.4654103535  W2        22874           0.0000000000
     67855     22619  TIP3      OH2            25.9968033595      -36.2692622861       33.6467303535  W2        22875           0.0000000000
     67856     22619  TIP3      H1             25.1320233595      -36.1974122861       34.0507403535  W2        22875           0.0000000000
     67857     22619  TIP3      H2             25.9417033595      -35.7225322861       32.8629803535  W2        22875           0.0000000000
     67858     22620  TIP3      OH2            30.7073633595      -36.3813722861       32.8223303535  W2        22876           0.0000000000
     67859     22620  TIP3      H1             30.2507633595      -35.8524022861       32.1681703535  W2        22876           0.0000000000
     67860     22620  TIP3      H2             30.8701633595      -35.7782322861       33.5475603535  W2        22876           0.0000000000
     67861     22621  TIP3      OH2            33.0349933595      -37.5034122861       33.7673603535  W2        22877           0.0000000000
     67862     22621  TIP3      H1             32.1303633595      -37.3383922861       33.5015703535  W2        22877           0.0000000000
     67863     22621  TIP3      H2             33.4638533595      -36.6501922861       33.7017003535  W2        22877           0.0000000000
     67864     22622  TIP3      OH2            35.6391833595      -35.9335022861       34.0621403535  W2        22878           0.0000000000
     67865     22622  TIP3      H1             35.4573833595      -35.0176122861       33.8516303535  W2        22878           0.0000000000
     67866     22622  TIP3      H2             35.8159633595      -36.3437922861       33.2156003535  W2        22878           0.0000000000
     67867     22623  TIP3      OH2            22.9443533595      -37.2464022861       31.5271903535  W2        22879           0.0000000000
     67868     22623  TIP3      H1             22.9259533595      -37.6718922861       32.3844203535  W2        22879           0.0000000000
     67869     22623  TIP3      H2             23.7491433595      -37.5649022861       31.1184103535  W2        22879           0.0000000000
     67870     22624  TIP3      OH2            25.0856633595      -38.5365322861       30.1821803535  W2        22880           0.0000000000
     67871     22624  TIP3      H1             24.8667333595      -39.4527922861       30.3517803535  W2        22880           0.0000000000
     67872     22624  TIP3      H2             25.9098833595      -38.3964922861       30.6483203535  W2        22880           0.0000000000
     67873     22625  TIP3      OH2            27.6229133595      -38.0666022861       31.0309803535  W2        22881           0.0000000000
     67874     22625  TIP3      H1             27.8354833595      -38.9547022861       30.7440703535  W2        22881           0.0000000000
     67875     22625  TIP3      H2             27.6874233595      -38.1008322861       31.9853803535  W2        22881           0.0000000000
     67876     22626  TIP3      OH2            31.1312833595      -52.4025422861       30.1753103535  W2        22882           0.0000000000
     67877     22626  TIP3      H1             30.4569633595      -53.0319822861       30.4308903535  W2        22882           0.0000000000
     67878     22626  TIP3      H2             31.6952033595      -52.8866522861       29.5721003535  W2        22882           0.0000000000
     67879     22627  TIP3      OH2            36.2740033595      -54.2951422861       30.2880203535  W2        22883           0.0000000000
     67880     22627  TIP3      H1             36.8777633595      -53.7476022861       29.7861203535  W2        22883           0.0000000000
     67881     22627  TIP3      H2             35.4042033595      -53.9761022861       30.0474303535  W2        22883           0.0000000000
     67882     22628  TIP3      OH2            38.0010433595      -53.1562722861       28.6211103535  W2        22884           0.0000000000
     67883     22628  TIP3      H1             38.6127933595      -53.6707022861       28.0944703535  W2        22884           0.0000000000
     67884     22628  TIP3      H2             38.3833833595      -52.2790622861       28.6445503535  W2        22884           0.0000000000
     67885     22629  TIP3      OH2            23.4580333595      -53.7685122861       27.9973003535  W2        22885           0.0000000000
     67886     22629  TIP3      H1             22.6810133595      -54.0030222861       27.4898903535  W2        22885           0.0000000000
     67887     22629  TIP3      H2             23.9883933595      -54.5653022861       28.0061003535  W2        22885           0.0000000000
     67888     22630  TIP3      OH2            22.2943733595      -53.9707022861       23.8009103535  W2        22886           0.0000000000
     67889     22630  TIP3      H1             22.7334433595      -53.3596522861       23.2092603535  W2        22886           0.0000000000
     67890     22630  TIP3      H2             21.6606133595      -53.4322922861       24.2749103535  W2        22886           0.0000000000
     67891     22631  TIP3      OH2            28.0372933595      -53.8418022861       27.8106103535  W2        22887           0.0000000000
     67892     22631  TIP3      H1             28.9116333595      -53.4533722861       27.7810403535  W2        22887           0.0000000000
     67893     22631  TIP3      H2             27.9013733595      -54.0570222861       28.7333303535  W2        22887           0.0000000000
     67894     22632  TIP3      OH2            33.5941333595      -53.8118222861       29.4597803535  W2        22888           0.0000000000
     67895     22632  TIP3      H1             33.6702933595      -53.7166622861       28.5103803535  W2        22888           0.0000000000
     67896     22632  TIP3      H2             33.3190533595      -54.7195322861       29.5886903535  W2        22888           0.0000000000
     67897     22633  TIP3      OH2            34.9473933595      -53.7860422861       25.1522803535  W2        22889           0.0000000000
     67898     22633  TIP3      H1             34.2445033595      -53.1711222861       24.9424203535  W2        22889           0.0000000000
     67899     22633  TIP3      H2             34.5025333595      -54.6233722861       25.2833703535  W2        22889           0.0000000000
     67900     22634  TIP3      OH2            22.1953233595      -38.0224822861       24.6984203535  W2        22890           0.0000000000
     67901     22634  TIP3      H1             21.5103133595      -38.0605922861       24.0309303535  W2        22890           0.0000000000
     67902     22634  TIP3      H2             22.1990433595      -37.1097222861       24.9866303535  W2        22890           0.0000000000
     67903     22635  TIP3      OH2            24.1552833595      -52.0545522861       22.2433203535  W2        22891           0.0000000000
     67904     22635  TIP3      H1             24.6466233595      -52.6843122861       21.7158703535  W2        22891           0.0000000000
     67905     22635  TIP3      H2             24.7789133595      -51.7586122861       22.9064403535  W2        22891           0.0000000000
     67906     22636  TIP3      OH2            29.1812933595      -51.7614022861       24.7003703535  W2        22892           0.0000000000
     67907     22636  TIP3      H1             29.3594233595      -52.4080822861       25.3832303535  W2        22892           0.0000000000
     67908     22636  TIP3      H2             29.1279133595      -50.9276322861       25.1674803535  W2        22892           0.0000000000
     67909     22637  TIP3      OH2            31.0596733595      -36.8129922861       23.0960403535  W2        22893           0.0000000000
     67910     22637  TIP3      H1             31.9256933595      -36.4462522861       22.9178603535  W2        22893           0.0000000000
     67911     22637  TIP3      H2             30.8129533595      -37.2521922861       22.2821203535  W2        22893           0.0000000000
     67912     22638  TIP3      OH2            37.7686333595      -37.2499622861       25.7751503535  W2        22894           0.0000000000
     67913     22638  TIP3      H1             37.5743433595      -37.9977522861       25.2101103535  W2        22894           0.0000000000
     67914     22638  TIP3      H2             37.7296433595      -36.4919522861       25.1919403535  W2        22894           0.0000000000
     67915     22639  TIP3      OH2            24.0134433595      -37.1024022861       21.7236303535  W2        22897           0.0000000000
     67916     22639  TIP3      H1             23.7459033595      -36.8161122861       22.5969403535  W2        22897           0.0000000000
     67917     22639  TIP3      H2             24.7847033595      -37.6484822861       21.8758803535  W2        22897           0.0000000000
     67918     22640  TIP3      OH2            51.3922933595      -44.6122822861       27.9560503535  W2        22900           0.0000000000
     67919     22640  TIP3      H1             51.4814033595      -43.6684622861       27.8237603535  W2        22900           0.0000000000
     67920     22640  TIP3      H2             50.7540533595      -44.8876422861       27.2979903535  W2        22900           0.0000000000
     67921     22641  TIP3      OH2            50.3254233595      -45.3572122861       31.3748703535  W2        22901           0.0000000000
     67922     22641  TIP3      H1             50.2871733595      -46.0035822861       32.0798303535  W2        22901           0.0000000000
     67923     22641  TIP3      H2             50.0030733595      -45.8237722861       30.6037403535  W2        22901           0.0000000000
     67924     22642  TIP3      OH2            42.6939233595      -45.7430022861       32.9678603535  W2        22902           0.0000000000
     67925     22642  TIP3      H1             42.7351333595      -46.3686722861       33.6911003535  W2        22902           0.0000000000
     67926     22642  TIP3      H2             43.3966933595      -45.1191422861       33.1499003535  W2        22902           0.0000000000
     67927     22643  TIP3      OH2            54.0314433595      -42.4181722861       29.6763803535  W2        22903           0.0000000000
     67928     22643  TIP3      H1             53.5907133595      -43.1385722861       30.1269403535  W2        22903           0.0000000000
     67929     22643  TIP3      H2             54.0184133595      -41.6974522861       30.3061503535  W2        22903           0.0000000000
     67930     22644  TIP3      OH2            43.6172333595      -41.2931122861       31.5027703535  W2        22904           0.0000000000
     67931     22644  TIP3      H1             43.2477533595      -42.0950622861       31.1332003535  W2        22904           0.0000000000
     67932     22644  TIP3      H2             44.5583433595      -41.4616222861       31.5491103535  W2        22904           0.0000000000
     67933     22645  TIP3      OH2            40.2272833595      -47.6328522861       26.8956503535  W2        22905           0.0000000000
     67934     22645  TIP3      H1             39.7796233595      -46.7869822861       26.8773003535  W2        22905           0.0000000000
     67935     22645  TIP3      H2             39.6664033595      -48.2124322861       26.3801603535  W2        22905           0.0000000000
     67936     22646  TIP3      OH2            40.9378933595      -45.4708922861       29.0214503535  W2        22906           0.0000000000
     67937     22646  TIP3      H1             41.1512433595      -46.2407322861       29.5487503535  W2        22906           0.0000000000
     67938     22646  TIP3      H2             41.6756533595      -45.3812222861       28.4182103535  W2        22906           0.0000000000
     67939     22647  TIP3      OH2            51.1429933595      -37.3140022861       29.8884203535  W2        22907           0.0000000000
     67940     22647  TIP3      H1             51.7626333595      -37.9905322861       29.6153403535  W2        22907           0.0000000000
     67941     22647  TIP3      H2             50.9347333595      -37.5319222861       30.7969103535  W2        22907           0.0000000000
     67942     22648  TIP3      OH2            48.7148633595      -42.9250722861       31.7809703535  W2        22908           0.0000000000
     67943     22648  TIP3      H1             49.0186533595      -43.6109322861       31.1863803535  W2        22908           0.0000000000
     67944     22648  TIP3      H2             49.4362633595      -42.8062022861       32.3987703535  W2        22908           0.0000000000
     67945     22649  TIP3      OH2            51.8555633595      -48.5308322861       32.1084503535  W2        22909           0.0000000000
     67946     22649  TIP3      H1             51.9981533595      -49.4771322861       32.1286103535  W2        22909           0.0000000000
     67947     22649  TIP3      H2             51.7494633595      -48.3238522861       31.1799403535  W2        22909           0.0000000000
     67948     22650  TIP3      OH2            45.0103933595      -50.4291922861       29.3809303535  W2        22910           0.0000000000
     67949     22650  TIP3      H1             45.0535033595      -49.5693422861       28.9625603535  W2        22910           0.0000000000
     67950     22650  TIP3      H2             44.5528033595      -50.9817222861       28.7472503535  W2        22910           0.0000000000
     67951     22651  TIP3      OH2            52.7326633595      -50.2986322861       27.7817603535  W2        22911           0.0000000000
     67952     22651  TIP3      H1             53.3790933595      -50.6273122861       28.4065203535  W2        22911           0.0000000000
     67953     22651  TIP3      H2             53.2426033595      -49.7807322861       27.1589003535  W2        22911           0.0000000000
     67954     22652  TIP3      OH2            41.6305433595      -48.0326122861       30.1430703535  W2        22912           0.0000000000
     67955     22652  TIP3      H1             42.2842033595      -48.5824422861       30.5750803535  W2        22912           0.0000000000
     67956     22652  TIP3      H2             41.6544733595      -48.3067122861       29.2262703535  W2        22912           0.0000000000
     67957     22653  TIP3      OH2            46.7869933595      -46.4824822861       29.3582203535  W2        22913           0.0000000000
     67958     22653  TIP3      H1             47.4030933595      -47.0089422861       29.8676203535  W2        22913           0.0000000000
     67959     22653  TIP3      H2             46.2008733595      -47.1226122861       28.9545803535  W2        22913           0.0000000000
     67960     22654  TIP3      OH2            43.8205833595      -51.5113522861       33.4550103535  W2        22914           0.0000000000
     67961     22654  TIP3      H1             43.6017533595      -50.9812922861       32.6886103535  W2        22914           0.0000000000
     67962     22654  TIP3      H2             43.1526733595      -51.2848022861       34.1021503535  W2        22914           0.0000000000
     67963     22655  TIP3      OH2            51.1895633595      -42.0112422861       26.9989203535  W2        22915           0.0000000000
     67964     22655  TIP3      H1             50.8940733595      -42.3340122861       26.1476103535  W2        22915           0.0000000000
     67965     22655  TIP3      H2             50.8653433595      -41.1115722861       27.0401803535  W2        22915           0.0000000000
     67966     22656  TIP3      OH2            46.3897233595      -43.8357822861       33.7423803535  W2        22916           0.0000000000
     67967     22656  TIP3      H1             45.6496333595      -43.2376322861       33.8459003535  W2        22916           0.0000000000
     67968     22656  TIP3      H2             47.1036733595      -43.2818222861       33.4267403535  W2        22916           0.0000000000
     67969     22657  TIP3      OH2            54.4965033595      -51.0077022861       29.7623503535  W2        22917           0.0000000000
     67970     22657  TIP3      H1             54.2813033595      -51.7733622861       30.2949503535  W2        22917           0.0000000000
     67971     22657  TIP3      H2             55.1522433595      -50.5352422861       30.2752003535  W2        22917           0.0000000000
     67972     22658  TIP3      OH2            43.4143133595      -49.6191722861       31.4072303535  W2        22918           0.0000000000
     67973     22658  TIP3      H1             44.0279433595      -48.9864122861       31.7804703535  W2        22918           0.0000000000
     67974     22658  TIP3      H2             43.9263833595      -50.0916722861       30.7509203535  W2        22918           0.0000000000
     67975     22659  TIP3      OH2            44.7971533595      -41.8714822861       34.5295303535  W2        22919           0.0000000000
     67976     22659  TIP3      H1             44.7919133595      -40.9921322861       34.1514603535  W2        22919           0.0000000000
     67977     22659  TIP3      H2             43.9435633595      -41.9550722861       34.9545203535  W2        22919           0.0000000000
     67978     22660  TIP3      OH2            40.9182433595      -42.2006922861       25.3114603535  W2        22920           0.0000000000
     67979     22660  TIP3      H1             40.6463333595      -41.9715922861       24.4227503535  W2        22920           0.0000000000
     67980     22660  TIP3      H2             40.9638133595      -41.3628122861       25.7719903535  W2        22920           0.0000000000
     67981     22661  TIP3      OH2            54.5432133595      -40.5791022861       32.0243103535  W2        22921           0.0000000000
     67982     22661  TIP3      H1             53.6015833595      -40.5207122861       32.1860003535  W2        22921           0.0000000000
     67983     22661  TIP3      H2             54.8198233595      -39.6730522861       31.8872803535  W2        22921           0.0000000000
     67984     22662  TIP3      OH2            47.8470533595      -54.2058422861       30.9075003535  W2        22922           0.0000000000
     67985     22662  TIP3      H1             47.7294733595      -55.1542422861       30.8533303535  W2        22922           0.0000000000
     67986     22662  TIP3      H2             46.9920633595      -53.8732322861       31.1806103535  W2        22922           0.0000000000
     67987     22663  TIP3      OH2            52.7953333595      -38.7977522861       28.6494703535  W2        22923           0.0000000000
     67988     22663  TIP3      H1             53.2205633595      -39.5049622861       28.1644303535  W2        22923           0.0000000000
     67989     22663  TIP3      H2             53.1123333595      -37.9964822861       28.2326903535  W2        22923           0.0000000000
     67990     22664  TIP3      OH2            53.9549833595      -40.8969022861       27.1581303535  W2        22924           0.0000000000
     67991     22664  TIP3      H1             53.6974633595      -41.5868922861       26.5467203535  W2        22924           0.0000000000
     67992     22664  TIP3      H2             54.0260633595      -41.3397822861       28.0037203535  W2        22924           0.0000000000
     67993     22665  TIP3      OH2            50.1135433595      -45.3682822861       25.4080803535  W2        22925           0.0000000000
     67994     22665  TIP3      H1             49.4020933595      -44.8333122861       25.0561303535  W2        22925           0.0000000000
     67995     22665  TIP3      H2             50.8045033595      -45.3130722861       24.7479703535  W2        22925           0.0000000000
     67996     22666  TIP3      OH2            50.1674633595      -46.9108522861       22.4465803535  W2        22926           0.0000000000
     67997     22666  TIP3      H1             50.8684533595      -46.8881622861       23.0979803535  W2        22926           0.0000000000
     67998     22666  TIP3      H2             50.4697533595      -47.5388822861       21.7905103535  W2        22926           0.0000000000
     67999     22667  TIP3      OH2            53.5193133595      -45.1589522861       26.3596703535  W2        22927           0.0000000000
     68000     22667  TIP3      H1             52.7874133595      -44.9305822861       26.9327303535  W2        22927           0.0000000000
     68001     22667  TIP3      H2             53.9665333595      -45.8726822861       26.8144203535  W2        22927           0.0000000000
     68002     22668  TIP3      OH2            53.4166633595      -46.9846922861       35.4273703535  W2        22928           0.0000000000
     68003     22668  TIP3      H1             53.4965733595      -46.2212522861       35.9992203535  W2        22928           0.0000000000
     68004     22668  TIP3      H2             52.8154333595      -46.7054522861       34.7368803535  W2        22928           0.0000000000
     68005     22669  TIP3      OH2            45.1646833595      -44.5283322861       28.2421703535  W2        22929           0.0000000000
     68006     22669  TIP3      H1             44.8342033595      -44.8989922861       27.4238703535  W2        22929           0.0000000000
     68007     22669  TIP3      H2             45.7530933595      -45.1989322861       28.5890003535  W2        22929           0.0000000000
     68008     22670  TIP3      OH2            46.5314333595      -41.1002722861       30.9233903535  W2        22930           0.0000000000
     68009     22670  TIP3      H1             46.4365633595      -41.6789622861       30.1668503535  W2        22930           0.0000000000
     68010     22670  TIP3      H2             47.2607933595      -41.4717022861       31.4196703535  W2        22930           0.0000000000
     68011     22671  TIP3      OH2            45.5312333595      -45.7597722861       31.8756703535  W2        22931           0.0000000000
     68012     22671  TIP3      H1             46.0964833595      -45.6383522861       31.1127903535  W2        22931           0.0000000000
     68013     22671  TIP3      H2             45.8501233595      -45.1222722861       32.5145203535  W2        22931           0.0000000000
     68014     22672  TIP3      OH2            51.8404533595      -40.2565822861       32.6097203535  W2        22932           0.0000000000
     68015     22672  TIP3      H1             51.6001133595      -39.5942722861       33.2576403535  W2        22932           0.0000000000
     68016     22672  TIP3      H2             51.6422733595      -41.0910622861       33.0346803535  W2        22932           0.0000000000
     68017     22673  TIP3      OH2            52.3902633595      -45.9966622861       24.0447903535  W2        22934           0.0000000000
     68018     22673  TIP3      H1             52.9698133595      -45.8466322861       24.7916803535  W2        22934           0.0000000000
     68019     22673  TIP3      H2             52.8042633595      -45.5259222861       23.3214303535  W2        22934           0.0000000000
     68020     22674  TIP3      OH2            50.1167533595      -39.2598122861       27.4801003535  W2        22936           0.0000000000
     68021     22674  TIP3      H1             50.5905133595      -38.9641822861       28.2575203535  W2        22936           0.0000000000
     68022     22674  TIP3      H2             49.5536833595      -38.5216522861       27.2470603535  W2        22936           0.0000000000
     68023     22675  TIP3      OH2            44.1549533595      -45.4589022861       25.8314503535  W2        22938           0.0000000000
     68024     22675  TIP3      H1             43.8630833595      -44.6907322861       25.3405803535  W2        22938           0.0000000000
     68025     22675  TIP3      H2             43.4804733595      -46.1182822861       25.6685903535  W2        22938           0.0000000000
     68026     22676  TIP3      OH2            40.2479633595      -43.0959822861       34.6464303535  W2        22939           0.0000000000
     68027     22676  TIP3      H1             39.7468033595      -43.1240422861       33.8314003535  W2        22939           0.0000000000
     68028     22676  TIP3      H2             40.2533333595      -44.0016622861       34.9561603535  W2        22939           0.0000000000
     68029     22677  TIP3      OH2            39.9982333595      -40.3156022861       31.5304503535  W2        22940           0.0000000000
     68030     22677  TIP3      H1             40.9442933595      -40.4599022861       31.5114003535  W2        22940           0.0000000000
     68031     22677  TIP3      H2             39.8858633595      -39.5313222861       32.0675703535  W2        22940           0.0000000000
     68032     22678  TIP3      OH2            49.5890633595      -36.3033422861       25.8950203535  W2        22942           0.0000000000
     68033     22678  TIP3      H1             49.5136633595      -36.4246222861       24.9485403535  W2        22942           0.0000000000
     68034     22678  TIP3      H2             49.6219333595      -35.3540722861       26.0134803535  W2        22942           0.0000000000
     68035     22679  TIP3      OH2            43.2424433595      -37.5146422861       27.6759203535  W2        22943           0.0000000000
     68036     22679  TIP3      H1             43.3944833595      -37.8626022861       28.5545703535  W2        22943           0.0000000000
     68037     22679  TIP3      H2             42.3914833595      -37.8709122861       27.4206403535  W2        22943           0.0000000000
     68038     22680  TIP3      OH2            52.6906633595      -37.1493222861       22.8972603535  W2        22944           0.0000000000
     68039     22680  TIP3      H1             53.0655033595      -37.8937122861       22.4265203535  W2        22944           0.0000000000
     68040     22680  TIP3      H2             52.6950333595      -37.4192622861       23.8155903535  W2        22944           0.0000000000
     68041     22681  TIP3      OH2            52.3594733595      -37.2236122861       25.6464803535  W2        22945           0.0000000000
     68042     22681  TIP3      H1             51.4244533595      -37.1234222861       25.8251803535  W2        22945           0.0000000000
     68043     22681  TIP3      H2             52.6396633595      -37.9330122861       26.2248003535  W2        22945           0.0000000000
     68044     22682  TIP3      OH2            45.1158133595      -53.3023922861       31.6851303535  W2        22947           0.0000000000
     68045     22682  TIP3      H1             44.2541833595      -53.3895722861       31.2774203535  W2        22947           0.0000000000
     68046     22682  TIP3      H2             45.0933833595      -52.4463822861       32.1128903535  W2        22947           0.0000000000
     68047     22683  TIP3      OH2            49.7785933595      -53.5803522861       35.0598303535  W2        22948           0.0000000000
     68048     22683  TIP3      H1             50.1989033595      -53.9956422861       35.8128903535  W2        22948           0.0000000000
     68049     22683  TIP3      H2             48.8455533595      -53.7590222861       35.1770303535  W2        22948           0.0000000000
     68050     22684  TIP3      OH2            53.8675733595      -44.9638322861       21.6745803535  W2        22950           0.0000000000
     68051     22684  TIP3      H1             53.9096533595      -45.1864422861       20.7445803535  W2        22950           0.0000000000
     68052     22684  TIP3      H2             54.7167833595      -44.5651222861       21.8645703535  W2        22950           0.0000000000
     68053     22685  TIP3      OH2            49.4403233595      -51.0880122861       22.3449103535  W2        22951           0.0000000000
     68054     22685  TIP3      H1             49.1868033595      -51.0688522861       23.2677203535  W2        22951           0.0000000000
     68055     22685  TIP3      H2             49.1835333595      -51.9594722861       22.0435303535  W2        22951           0.0000000000
     68056     22686  TIP3      OH2            45.2068233595      -48.3369422861       32.7801503535  W2        22952           0.0000000000
     68057     22686  TIP3      H1             44.5650333595      -48.3772122861       33.4891603535  W2        22952           0.0000000000
     68058     22686  TIP3      H2             45.2440233595      -47.4104722861       32.5424503535  W2        22952           0.0000000000
     68059     22687  TIP3      OH2            45.2037333595      -48.1159322861       27.6921503535  W2        22953           0.0000000000
     68060     22687  TIP3      H1             44.3110233595      -48.4563222861       27.6335303535  W2        22953           0.0000000000
     68061     22687  TIP3      H2             45.6543933595      -48.4928422861       26.9364703535  W2        22953           0.0000000000
     68062     22688  TIP3      OH2            50.7392833595      -47.6999022861       26.5092303535  W2        22954           0.0000000000
     68063     22688  TIP3      H1             50.3303133595      -46.8850422861       26.2177103535  W2        22954           0.0000000000
     68064     22688  TIP3      H2             51.4599033595      -47.8398922861       25.8949403535  W2        22954           0.0000000000
     68065     22689  TIP3      OH2            51.7440533595      -48.2538622861       29.3232003535  W2        22956           0.0000000000
     68066     22689  TIP3      H1             51.5485033595      -47.6481822861       28.6082603535  W2        22956           0.0000000000
     68067     22689  TIP3      H2             51.9253133595      -49.0873422861       28.8888303535  W2        22956           0.0000000000
     68068     22690  TIP3      OH2            42.9568733595      -48.0165922861       34.6473503535  W2        22957           0.0000000000
     68069     22690  TIP3      H1             42.9188133595      -47.6164322861       35.5160603535  W2        22957           0.0000000000
     68070     22690  TIP3      H2             42.4659833595      -48.8333522861       34.7376403535  W2        22957           0.0000000000
     68071     22691  TIP3      OH2            46.3226133595      -50.6423622861       21.4459503535  W2        22958           0.0000000000
     68072     22691  TIP3      H1             45.8916833595      -51.0873522861       22.1756903535  W2        22958           0.0000000000
     68073     22691  TIP3      H2             45.6044833595      -50.2707322861       20.9337003535  W2        22958           0.0000000000
     68074     22692  TIP3      OH2            39.5649533595      -50.9004122861       28.4978203535  W2        22959           0.0000000000
     68075     22692  TIP3      H1             40.1957233595      -50.9292022861       29.2172103535  W2        22959           0.0000000000
     68076     22692  TIP3      H2             40.0143833595      -51.3255422861       27.7674103535  W2        22959           0.0000000000
     68077     22693  TIP3      OH2            40.8391633595      -50.1542122861       23.9218603535  W2        22960           0.0000000000
     68078     22693  TIP3      H1             41.3133333595      -49.5632222861       23.3369503535  W2        22960           0.0000000000
     68079     22693  TIP3      H2             40.1218033595      -49.6239222861       24.2688703535  W2        22960           0.0000000000
     68080     22694  TIP3      OH2            51.0079733595      -46.6157322861       33.9944403535  W2        22961           0.0000000000
     68081     22694  TIP3      H1             51.3314533595      -47.2467622861       33.3514903535  W2        22961           0.0000000000
     68082     22694  TIP3      H2             50.5679033595      -47.1505122861       34.6551803535  W2        22961           0.0000000000
     68083     22695  TIP3      OH2            47.7852633595      -50.6881822861       28.7785603535  W2        22962           0.0000000000
     68084     22695  TIP3      H1             46.8743733595      -50.6315022861       29.0671603535  W2        22962           0.0000000000
     68085     22695  TIP3      H2             48.2905533595      -50.7486322861       29.5892803535  W2        22962           0.0000000000
     68086     22696  TIP3      OH2            42.6136033595      -49.0595522861       27.6053203535  W2        22963           0.0000000000
     68087     22696  TIP3      H1             41.7244033595      -48.9600022861       27.2652803535  W2        22963           0.0000000000
     68088     22696  TIP3      H2             42.9100933595      -49.9012522861       27.2591103535  W2        22963           0.0000000000
     68089     22697  TIP3      OH2            46.2667833595      -49.0592922861       25.2617803535  W2        22964           0.0000000000
     68090     22697  TIP3      H1             47.1983333595      -48.9302922861       25.4400903535  W2        22964           0.0000000000
     68091     22697  TIP3      H2             46.0518133595      -48.3898622861       24.6122503535  W2        22964           0.0000000000
     68092     22698  TIP3      OH2            52.1904533595      -51.4535522861       32.0427403535  W2        22965           0.0000000000
     68093     22698  TIP3      H1             51.5136133595      -51.3222422861       32.7067103535  W2        22965           0.0000000000
     68094     22698  TIP3      H2             51.7049433595      -51.6086022861       31.2325103535  W2        22965           0.0000000000
     68095     22699  TIP3      OH2            44.9408033595      -47.8650722861       22.8283903535  W2        22966           0.0000000000
     68096     22699  TIP3      H1             44.3983133595      -48.2446922861       22.1371503535  W2        22966           0.0000000000
     68097     22699  TIP3      H2             45.7742933595      -47.6706022861       22.3998003535  W2        22966           0.0000000000
     68098     22700  TIP3      OH2            49.1052333595      -47.9008822861       30.6655203535  W2        22968           0.0000000000
     68099     22700  TIP3      H1             49.6695733595      -48.4472222861       30.1184803535  W2        22968           0.0000000000
     68100     22700  TIP3      H2             48.9575733595      -48.4226922861       31.4542803535  W2        22968           0.0000000000
     68101     22701  TIP3      OH2            44.1072033595      -51.7642722861       27.0840003535  W2        22969           0.0000000000
     68102     22701  TIP3      H1             43.7901533595      -52.6667422861       27.0485403535  W2        22969           0.0000000000
     68103     22701  TIP3      H2             44.8886133595      -51.7625322861       26.5311603535  W2        22969           0.0000000000
     68104     22702  TIP3      OH2            47.7318233595      -49.5122722861       33.0795603535  W2        22970           0.0000000000
     68105     22702  TIP3      H1             46.8963533595      -49.0583222861       33.1898003535  W2        22970           0.0000000000
     68106     22702  TIP3      H2             48.2558833595      -49.2364222861       33.8315503535  W2        22970           0.0000000000
     68107     22703  TIP3      OH2            48.2760833595      -43.2995022861       24.7642003535  W2        22971           0.0000000000
     68108     22703  TIP3      H1             47.5311833595      -43.8069722861       24.4419903535  W2        22971           0.0000000000
     68109     22703  TIP3      H2             48.1418033595      -43.2507022861       25.7106803535  W2        22971           0.0000000000
     68110     22704  TIP3      OH2            52.1737633595      -50.4855122861       22.9634603535  W2        22972           0.0000000000
     68111     22704  TIP3      H1             51.2351833595      -50.3739522861       22.8123403535  W2        22972           0.0000000000
     68112     22704  TIP3      H2             52.4709733595      -49.6288222861       23.2700303535  W2        22972           0.0000000000
     68113     22705  TIP3      OH2            52.8921133595      -48.6182422861       24.6242003535  W2        22974           0.0000000000
     68114     22705  TIP3      H1             53.7840133595      -48.7557422861       24.9433203535  W2        22974           0.0000000000
     68115     22705  TIP3      H2             52.9484733595      -47.8276322861       24.0875503535  W2        22974           0.0000000000
     68116     22706  TIP3      OH2            43.4009133595      -44.0045022861       30.5339903535  W2        22975           0.0000000000
     68117     22706  TIP3      H1             44.1456333595      -44.0069322861       29.9326403535  W2        22975           0.0000000000
     68118     22706  TIP3      H2             43.4785733595      -44.8281222861       31.0155003535  W2        22975           0.0000000000
     68119     22707  TIP3      OH2            50.4014933595      -41.8410722861       23.7896603535  W2        22976           0.0000000000
     68120     22707  TIP3      H1             50.1063333595      -41.0142822861       24.1711403535  W2        22976           0.0000000000
     68121     22707  TIP3      H2             49.6984933595      -42.4603822861       23.9858003535  W2        22976           0.0000000000
     68122     22708  TIP3      OH2            53.2325433595      -44.8148422861       31.8052703535  W2        22980           0.0000000000
     68123     22708  TIP3      H1             52.3042333595      -45.0466522861       31.7782003535  W2        22980           0.0000000000
     68124     22708  TIP3      H2             53.6836533595      -45.5918622861       31.4751503535  W2        22980           0.0000000000
     68125     22709  TIP3      OH2            45.7758533595      -40.4866822861       27.9381403535  W2        22981           0.0000000000
     68126     22709  TIP3      H1             46.3030733595      -39.7132422861       27.7380203535  W2        22981           0.0000000000
     68127     22709  TIP3      H2             44.8957033595      -40.2617622861       27.6365403535  W2        22981           0.0000000000
     68128     22710  TIP3      OH2            41.5306233595      -45.6242722861       22.5253803535  W2        22982           0.0000000000
     68129     22710  TIP3      H1             42.1466133595      -44.9975522861       22.9048603535  W2        22982           0.0000000000
     68130     22710  TIP3      H2             40.6688833595      -45.3082922861       22.7970303535  W2        22982           0.0000000000
     68131     22711  TIP3      OH2            47.2030833595      -42.8236922861       27.5145703535  W2        22983           0.0000000000
     68132     22711  TIP3      H1             46.9620833595      -41.8982522861       27.5561003535  W2        22983           0.0000000000
     68133     22711  TIP3      H2             46.4624433595      -43.2825622861       27.9109603535  W2        22983           0.0000000000
     68134     22712  TIP3      OH2            47.7177433595      -38.6743322861       33.8296803535  W2        22984           0.0000000000
     68135     22712  TIP3      H1             48.0802133595      -37.8197722861       33.5961203535  W2        22984           0.0000000000
     68136     22712  TIP3      H2             48.2492633595      -38.9661722861       34.5703103535  W2        22984           0.0000000000
     68137     22713  TIP3      OH2            45.8861633595      -37.8019322861       27.0597903535  W2        22985           0.0000000000
     68138     22713  TIP3      H1             44.9362133595      -37.6961922861       27.1111203535  W2        22985           0.0000000000
     68139     22713  TIP3      H2             46.2379733595      -36.9811922861       27.4045403535  W2        22985           0.0000000000
     68140     22714  TIP3      OH2            51.2618233595      -42.5752622861       33.5302403535  W2        22986           0.0000000000
     68141     22714  TIP3      H1             50.8359533595      -42.8030922861       34.3566403535  W2        22986           0.0000000000
     68142     22714  TIP3      H2             51.8424033595      -43.3140822861       33.3477703535  W2        22986           0.0000000000
     68143     22715  TIP3      OH2            53.4647133595      -41.6462122861       22.6041403535  W2        22987           0.0000000000
     68144     22715  TIP3      H1             53.8180233595      -42.0262322861       23.4084903535  W2        22987           0.0000000000
     68145     22715  TIP3      H2             52.5160633595      -41.7397322861       22.6910703535  W2        22987           0.0000000000
     68146     22716  TIP3      OH2            42.0428333595      -50.7905422861       35.4069803535  W2        22989           0.0000000000
     68147     22716  TIP3      H1             41.1500633595      -50.4520022861       35.3393803535  W2        22989           0.0000000000
     68148     22716  TIP3      H2             41.9441133595      -51.6459322861       35.8250603535  W2        22989           0.0000000000
     68149     22717  TIP3      OH2            54.3306433595      -42.9740122861       24.8309303535  W2        22990           0.0000000000
     68150     22717  TIP3      H1             54.0534033595      -43.7020822861       25.3870403535  W2        22990           0.0000000000
     68151     22717  TIP3      H2             55.2579433595      -42.8548122861       25.0361903535  W2        22990           0.0000000000
     68152     22718  TIP3      OH2            41.6940333595      -38.9861022861       33.8419203535  W2        22991           0.0000000000
     68153     22718  TIP3      H1             41.9110633595      -39.9178622861       33.8108903535  W2        22991           0.0000000000
     68154     22718  TIP3      H2             41.9403833595      -38.7116022861       34.7252003535  W2        22991           0.0000000000
     68155     22719  TIP3      OH2            47.5554933595      -40.5346022861       21.0511403535  W2        22992           0.0000000000
     68156     22719  TIP3      H1             47.7944733595      -41.2827922861       20.5040303535  W2        22992           0.0000000000
     68157     22719  TIP3      H2             47.2866233595      -40.9224322861       21.8839203535  W2        22992           0.0000000000
     68158     22720  TIP3      OH2            46.4925533595      -40.9642222861       23.5074003535  W2        22993           0.0000000000
     68159     22720  TIP3      H1             46.6393533595      -41.4842422861       24.2974903535  W2        22993           0.0000000000
     68160     22720  TIP3      H2             46.4897233595      -40.0574622861       23.8139903535  W2        22993           0.0000000000
     68161     22721  TIP3      OH2            42.9456633595      -43.7118922861       24.0179403535  W2        22994           0.0000000000
     68162     22721  TIP3      H1             42.2595933595      -43.3596422861       24.5849103535  W2        22994           0.0000000000
     68163     22721  TIP3      H2             43.4684533595      -42.9489322861       23.7713703535  W2        22994           0.0000000000
     68164     22722  TIP3      OH2            50.7771733595      -51.0495122861       34.2968403535  W2        22995           0.0000000000
     68165     22722  TIP3      H1             51.4759633595      -50.9756422861       34.9468103535  W2        22995           0.0000000000
     68166     22722  TIP3      H2             50.3963133595      -51.9140122861       34.4511303535  W2        22995           0.0000000000
     68167     22723  TIP3      OH2            51.5616633595      -51.3973422861       25.3940703535  W2        22996           0.0000000000
     68168     22723  TIP3      H1             51.7814933595      -50.9258022861       24.5906103535  W2        22996           0.0000000000
     68169     22723  TIP3      H2             52.1200633595      -51.0030822861       26.0641303535  W2        22996           0.0000000000
     68170     22724  TIP3      OH2            49.2302733595      -39.2668622861       24.2568203535  W2        22997           0.0000000000
     68171     22724  TIP3      H1             48.4138833595      -38.7698922861       24.3092503535  W2        22997           0.0000000000
     68172     22724  TIP3      H2             49.7599033595      -38.7915122861       23.6167003535  W2        22997           0.0000000000
     68173     22725  TIP3      OH2            48.7616533595      -49.6694622861       26.2289103535  W2        22998           0.0000000000
     68174     22725  TIP3      H1             49.5739133595      -49.1651422861       26.2750803535  W2        22998           0.0000000000
     68175     22725  TIP3      H2             48.5169533595      -49.8144922861       27.1428703535  W2        22998           0.0000000000
     68176     22726  TIP3      OH2            49.2972933595      -48.6831922861       35.4135703535  W2        22999           0.0000000000
     68177     22726  TIP3      H1             49.4163233595      -48.1096522861       36.1706103535  W2        22999           0.0000000000
     68178     22726  TIP3      H2             49.9527533595      -49.3712522861       35.5283503535  W2        22999           0.0000000000
     68179     22727  TIP3      OH2            49.6453233595      -52.5881622861       27.1670203535  W2        23000           0.0000000000
     68180     22727  TIP3      H1             49.2986733595      -51.9711022861       27.8114503535  W2        23000           0.0000000000
     68181     22727  TIP3      H2             50.3040133595      -52.0875922861       26.6855703535  W2        23000           0.0000000000
     68182     22728  TIP3      OH2            46.5685833595      -38.2231422861       24.2385103535  W2        23001           0.0000000000
     68183     22728  TIP3      H1             46.7294533595      -37.4233922861       23.7377703535  W2        23001           0.0000000000
     68184     22728  TIP3      H2             46.3713633595      -37.9165422861       25.1235703535  W2        23001           0.0000000000
     68185     22729  TIP3      OH2            45.3030233595      -51.5252222861       23.8542703535  W2        23002           0.0000000000
     68186     22729  TIP3      H1             45.2195033595      -50.6369122861       24.2009103535  W2        23002           0.0000000000
     68187     22729  TIP3      H2             46.1930533595      -51.7905522861       24.0859503535  W2        23002           0.0000000000
     68188     22730  TIP3      OH2            54.1039733595      -47.0260622861       30.3442703535  W2        23003           0.0000000000
     68189     22730  TIP3      H1             53.3064133595      -47.4410422861       30.0157703535  W2        23003           0.0000000000
     68190     22730  TIP3      H2             54.5490833595      -47.7166922861       30.8353203535  W2        23003           0.0000000000
     68191     22731  TIP3      OH2            43.5615533595      -41.0980022861       22.9147203535  W2        23004           0.0000000000
     68192     22731  TIP3      H1             44.1537033595      -40.3985222861       23.1909603535  W2        23004           0.0000000000
     68193     22731  TIP3      H2             44.0208533595      -41.5310522861       22.1951803535  W2        23004           0.0000000000
     68194     22732  TIP3      OH2            41.8774733595      -48.4337022861       22.0306603535  W2        23005           0.0000000000
     68195     22732  TIP3      H1             41.8327333595      -47.4943922861       22.2093603535  W2        23005           0.0000000000
     68196     22732  TIP3      H2             40.9897933595      -48.6692122861       21.7608703535  W2        23005           0.0000000000
     68197     22733  TIP3      OH2            42.6856733595      -53.6520422861       30.7037603535  W2        23006           0.0000000000
     68198     22733  TIP3      H1             42.4566533595      -53.5927922861       29.7762603535  W2        23006           0.0000000000
     68199     22733  TIP3      H2             42.2430133595      -54.4434922861       31.0101703535  W2        23006           0.0000000000
     68200     22734  TIP3      OH2            41.6160033595      -39.7113322861       26.8643403535  W2        23007           0.0000000000
     68201     22734  TIP3      H1             40.7838633595      -39.2390622861       26.8914803535  W2        23007           0.0000000000
     68202     22734  TIP3      H2             42.1618333595      -39.2015722861       26.2656503535  W2        23007           0.0000000000
     68203     22735  TIP3      OH2            49.5936733595      -38.6714622861       21.1897403535  W2        23010           0.0000000000
     68204     22735  TIP3      H1             48.9497733595      -39.3026022861       21.5111103535  W2        23010           0.0000000000
     68205     22735  TIP3      H2             50.3555033595      -39.2026622861       20.9580903535  W2        23010           0.0000000000
     68206     22736  TIP3      OH2            54.1979633595      -38.8544722861       21.4235403535  W2        23012           0.0000000000
     68207     22736  TIP3      H1             54.4810033595      -39.6489522861       21.8762303535  W2        23012           0.0000000000
     68208     22736  TIP3      H2             54.9377533595      -38.6213722861       20.8626503535  W2        23012           0.0000000000
     68209     22737  TIP3      OH2            45.1526933595      -42.9449822861       21.2810303535  W2        23014           0.0000000000
     68210     22737  TIP3      H1             45.2171033595      -43.7390222861       21.8116703535  W2        23014           0.0000000000
     68211     22737  TIP3      H2             45.8056133595      -43.0637022861       20.5912303535  W2        23014           0.0000000000
     68212     22738  TIP3      OH2            50.5050333595      -41.8978122861       21.0168303535  W2        23016           0.0000000000
     68213     22738  TIP3      H1             50.2364433595      -41.7176022861       21.9177203535  W2        23016           0.0000000000
     68214     22738  TIP3      H2             50.2985933595      -42.8231922861       20.8854103535  W2        23016           0.0000000000
     68215     22739  TIP3      OH2            46.3020733595      -44.9723622861       23.5868303535  W2        23019           0.0000000000
     68216     22739  TIP3      H1             45.8422733595      -45.4565322861       24.2726803535  W2        23019           0.0000000000
     68217     22739  TIP3      H2             46.5569433595      -45.6408222861       22.9508803535  W2        23019           0.0000000000
     68218     22740  TIP3      OH2            47.3731133595      -46.7291822861       21.8491503535  W2        23021           0.0000000000
     68219     22740  TIP3      H1             47.1926133595      -46.8840622861       20.9219803535  W2        23021           0.0000000000
     68220     22740  TIP3      H2             48.3231633595      -46.6213122861       21.8939403535  W2        23021           0.0000000000
     68221     22741  TIP3      OH2            46.3429433595      -51.3549922861       34.5178403535  W2        23024           0.0000000000
     68222     22741  TIP3      H1             46.8786933595      -50.9033222861       33.8657703535  W2        23024           0.0000000000
     68223     22741  TIP3      H2             45.4909033595      -51.4630122861       34.0952503535  W2        23024           0.0000000000
     68224     22742  TIP3      OH2            47.9247833595      -45.9153722861       34.7573603535  W2        23025           0.0000000000
     68225     22742  TIP3      H1             48.6752633595      -46.0716222861       34.1841403535  W2        23025           0.0000000000
     68226     22742  TIP3      H2             47.5856133595      -45.0637122861       34.4819103535  W2        23025           0.0000000000
     68227     22743  TIP3      OH2            47.1484933595      -53.8984222861       34.9492003535  W2        23029           0.0000000000
     68228     22743  TIP3      H1             47.0504533595      -52.9521022861       34.8438203535  W2        23029           0.0000000000
     68229     22743  TIP3      H2             46.4061133595      -54.2710422861       34.4735503535  W2        23029           0.0000000000
     68230     22744  TIP3      OH2            47.2702833595      -36.0388122861       22.8505103535  W2        23036           0.0000000000
     68231     22744  TIP3      H1             48.2033533595      -35.8809422861       22.9943503535  W2        23036           0.0000000000
     68232     22744  TIP3      H2             47.0061633595      -35.3635122861       22.2256603535  W2        23036           0.0000000000
     68233     22745  TIP3      OH2            40.8387733595      -41.4024322861       22.3333203535  W2        23037           0.0000000000
     68234     22745  TIP3      H1             41.7526933595      -41.3235422861       22.6067103535  W2        23037           0.0000000000
     68235     22745  TIP3      H2             40.8460833595      -42.0894722861       21.6668803535  W2        23037           0.0000000000
     68236     22746  TIP3      OH2            39.4878333595      -36.0095822861       27.4107103535  W2        23038           0.0000000000
     68237     22746  TIP3      H1             38.8405433595      -36.4714122861       26.8778303535  W2        23038           0.0000000000
     68238     22746  TIP3      H2             39.8422933595      -36.6812522861       27.9933303535  W2        23038           0.0000000000
     68239     22747  TIP3      OH2            40.3577533595      -37.9288822861       29.2153303535  W2        23039           0.0000000000
     68240     22747  TIP3      H1             40.0234333595      -38.8091522861       29.3873503535  W2        23039           0.0000000000
     68241     22747  TIP3      H2             40.5799933595      -37.5833822861       30.0798903535  W2        23039           0.0000000000
     68242     22748  TIP3      OH2            40.4377033595      -44.8533422861       31.6668203535  W2        23040           0.0000000000
     68243     22748  TIP3      H1             40.6219933595      -44.9351722861       30.7311103535  W2        23040           0.0000000000
     68244     22748  TIP3      H2             41.2869933595      -44.9776422861       32.0904603535  W2        23040           0.0000000000
     68245     22749  TIP3      OH2            41.2564333595      -51.2706822861       30.6989903535  W2        23042           0.0000000000
     68246     22749  TIP3      H1             41.7015933595      -52.0624322861       31.0009603535  W2        23042           0.0000000000
     68247     22749  TIP3      H2             41.7227333595      -50.5541622861       31.1295503535  W2        23042           0.0000000000
     68248     22750  TIP3      OH2            39.5604633595      -48.2713822861       31.7680103535  W2        23043           0.0000000000
     68249     22750  TIP3      H1             40.0524433595      -48.4923322861       30.9772103535  W2        23043           0.0000000000
     68250     22750  TIP3      H2             39.9225533595      -47.4310422861       32.0489603535  W2        23043           0.0000000000
     68251     22751  TIP3      OH2            39.8741133595      -52.0134722861       25.8222503535  W2        23044           0.0000000000
     68252     22751  TIP3      H1             38.9489533595      -51.8048122861       25.6928003535  W2        23044           0.0000000000
     68253     22751  TIP3      H2             40.3281033595      -51.5293922861       25.1324803535  W2        23044           0.0000000000
     68254     22752  TIP3      OH2            54.6448333595      -37.0293022861       27.7679903535  W2        23045           0.0000000000
     68255     22752  TIP3      H1             55.2971233595      -37.3770922861       27.1599003535  W2        23045           0.0000000000
     68256     22752  TIP3      H2             55.1552133595      -36.5409822861       28.4139603535  W2        23045           0.0000000000
     68257     22753  TIP3      OH2            39.8376533595      -53.2755722861       34.1665003535  W2        23046           0.0000000000
     68258     22753  TIP3      H1             39.1727033595      -53.5215422861       34.8095903535  W2        23046           0.0000000000
     68259     22753  TIP3      H2             39.3947833595      -52.6535322861       33.5893003535  W2        23046           0.0000000000
     68260     22754  TIP3      OH2            44.9838733595      -39.1260422861       34.5694803535  W2        23048           0.0000000000
     68261     22754  TIP3      H1             44.5589833595      -38.3161922861       34.2869403535  W2        23048           0.0000000000
     68262     22754  TIP3      H2             45.8881533595      -39.0406322861       34.2674603535  W2        23048           0.0000000000
     68263     22755  TIP3      OH2            42.3855433595      -35.8696522861       34.6170103535  W2        23051           0.0000000000
     68264     22755  TIP3      H1             41.6651833595      -35.4295522861       34.1657803535  W2        23051           0.0000000000
     68265     22755  TIP3      H2             42.0199433595      -36.1201822861       35.4654103535  W2        23051           0.0000000000
     68266     22756  TIP3      OH2            44.8528033595      -36.2692622861       33.6467303535  W2        23052           0.0000000000
     68267     22756  TIP3      H1             43.9880233595      -36.1974122861       34.0507403535  W2        23052           0.0000000000
     68268     22756  TIP3      H2             44.7977033595      -35.7225322861       32.8629803535  W2        23052           0.0000000000
     68269     22757  TIP3      OH2            49.5633633595      -36.3813722861       32.8223303535  W2        23053           0.0000000000
     68270     22757  TIP3      H1             49.1067633595      -35.8524022861       32.1681703535  W2        23053           0.0000000000
     68271     22757  TIP3      H2             49.7261633595      -35.7782322861       33.5475603535  W2        23053           0.0000000000
     68272     22758  TIP3      OH2            51.8909933595      -37.5034122861       33.7673603535  W2        23054           0.0000000000
     68273     22758  TIP3      H1             50.9863633595      -37.3383922861       33.5015703535  W2        23054           0.0000000000
     68274     22758  TIP3      H2             52.3198533595      -36.6501922861       33.7017003535  W2        23054           0.0000000000
     68275     22759  TIP3      OH2            54.4951833595      -35.9335022861       34.0621403535  W2        23055           0.0000000000
     68276     22759  TIP3      H1             54.3133833595      -35.0176122861       33.8516303535  W2        23055           0.0000000000
     68277     22759  TIP3      H2             54.6719633595      -36.3437922861       33.2156003535  W2        23055           0.0000000000
     68278     22760  TIP3      OH2            41.8003533595      -37.2464022861       31.5271903535  W2        23056           0.0000000000
     68279     22760  TIP3      H1             41.7819533595      -37.6718922861       32.3844203535  W2        23056           0.0000000000
     68280     22760  TIP3      H2             42.6051433595      -37.5649022861       31.1184103535  W2        23056           0.0000000000
     68281     22761  TIP3      OH2            43.9416633595      -38.5365322861       30.1821803535  W2        23057           0.0000000000
     68282     22761  TIP3      H1             43.7227333595      -39.4527922861       30.3517803535  W2        23057           0.0000000000
     68283     22761  TIP3      H2             44.7658833595      -38.3964922861       30.6483203535  W2        23057           0.0000000000
     68284     22762  TIP3      OH2            46.4789133595      -38.0666022861       31.0309803535  W2        23058           0.0000000000
     68285     22762  TIP3      H1             46.6914833595      -38.9547022861       30.7440703535  W2        23058           0.0000000000
     68286     22762  TIP3      H2             46.5434233595      -38.1008322861       31.9853803535  W2        23058           0.0000000000
     68287     22763  TIP3      OH2            49.9872833595      -52.4025422861       30.1753103535  W2        23059           0.0000000000
     68288     22763  TIP3      H1             49.3129633595      -53.0319822861       30.4308903535  W2        23059           0.0000000000
     68289     22763  TIP3      H2             50.5512033595      -52.8866522861       29.5721003535  W2        23059           0.0000000000
     68290     22764  TIP3      OH2            42.3140333595      -53.7685122861       27.9973003535  W2        23060           0.0000000000
     68291     22764  TIP3      H1             41.5370133595      -54.0030222861       27.4898903535  W2        23060           0.0000000000
     68292     22764  TIP3      H2             42.8443933595      -54.5653022861       28.0061003535  W2        23060           0.0000000000
     68293     22765  TIP3      OH2            41.1503733595      -53.9707022861       23.8009103535  W2        23061           0.0000000000
     68294     22765  TIP3      H1             41.5894433595      -53.3596522861       23.2092603535  W2        23061           0.0000000000
     68295     22765  TIP3      H2             40.5166133595      -53.4322922861       24.2749103535  W2        23061           0.0000000000
     68296     22766  TIP3      OH2            46.8932933595      -53.8418022861       27.8106103535  W2        23062           0.0000000000
     68297     22766  TIP3      H1             47.7676333595      -53.4533722861       27.7810403535  W2        23062           0.0000000000
     68298     22766  TIP3      H2             46.7573733595      -54.0570222861       28.7333303535  W2        23062           0.0000000000
     68299     22767  TIP3      OH2            52.4501333595      -53.8118222861       29.4597803535  W2        23063           0.0000000000
     68300     22767  TIP3      H1             52.5262933595      -53.7166622861       28.5103803535  W2        23063           0.0000000000
     68301     22767  TIP3      H2             52.1750533595      -54.7195322861       29.5886903535  W2        23063           0.0000000000
     68302     22768  TIP3      OH2            53.8033933595      -53.7860422861       25.1522803535  W2        23064           0.0000000000
     68303     22768  TIP3      H1             53.1005033595      -53.1711222861       24.9424203535  W2        23064           0.0000000000
     68304     22768  TIP3      H2             53.3585333595      -54.6233722861       25.2833703535  W2        23064           0.0000000000
     68305     22769  TIP3      OH2            41.0513233595      -38.0224822861       24.6984203535  W2        23065           0.0000000000
     68306     22769  TIP3      H1             40.3663133595      -38.0605922861       24.0309303535  W2        23065           0.0000000000
     68307     22769  TIP3      H2             41.0550433595      -37.1097222861       24.9866303535  W2        23065           0.0000000000
     68308     22770  TIP3      OH2            43.0112833595      -52.0545522861       22.2433203535  W2        23066           0.0000000000
     68309     22770  TIP3      H1             43.5026233595      -52.6843122861       21.7158703535  W2        23066           0.0000000000
     68310     22770  TIP3      H2             43.6349133595      -51.7586122861       22.9064403535  W2        23066           0.0000000000
     68311     22771  TIP3      OH2            48.0372933595      -51.7614022861       24.7003703535  W2        23067           0.0000000000
     68312     22771  TIP3      H1             48.2154233595      -52.4080822861       25.3832303535  W2        23067           0.0000000000
     68313     22771  TIP3      H2             47.9839133595      -50.9276322861       25.1674803535  W2        23067           0.0000000000
     68314     22772  TIP3      OH2            49.9156733595      -36.8129922861       23.0960403535  W2        23068           0.0000000000
     68315     22772  TIP3      H1             50.7816933595      -36.4462522861       22.9178603535  W2        23068           0.0000000000
     68316     22772  TIP3      H2             49.6689533595      -37.2521922861       22.2821203535  W2        23068           0.0000000000
     68317     22773  TIP3      OH2            42.8694433595      -37.1024022861       21.7236303535  W2        23071           0.0000000000
     68318     22773  TIP3      H1             42.6019033595      -36.8161122861       22.5969403535  W2        23071           0.0000000000
     68319     22773  TIP3      H2             43.6407033595      -37.6484822861       21.8758803535  W2        23071           0.0000000000
     68320     22774  TIP3      OH2           -42.8877066405      -25.7562822861       27.9560503535  W2        23073           0.0000000000
     68321     22774  TIP3      H1            -42.7985966405      -24.8124622861       27.8237603535  W2        23073           0.0000000000
     68322     22774  TIP3      H2            -43.5259466405      -26.0316422861       27.2979903535  W2        23073           0.0000000000
     68323     22775  TIP3      OH2           -43.9545766405      -26.5012122861       31.3748703535  W2        23074           0.0000000000
     68324     22775  TIP3      H1            -43.9928266405      -27.1475822861       32.0798303535  W2        23074           0.0000000000
     68325     22775  TIP3      H2            -44.2769266405      -26.9677722861       30.6037403535  W2        23074           0.0000000000
     68326     22776  TIP3      OH2           -51.5860766405      -26.8870022861       32.9678603535  W2        23075           0.0000000000
     68327     22776  TIP3      H1            -51.5448666405      -27.5126722861       33.6911003535  W2        23075           0.0000000000
     68328     22776  TIP3      H2            -50.8833066405      -26.2631422861       33.1499003535  W2        23075           0.0000000000
     68329     22777  TIP3      OH2           -40.2485566405      -23.5621722861       29.6763803535  W2        23076           0.0000000000
     68330     22777  TIP3      H1            -40.6892866405      -24.2825722861       30.1269403535  W2        23076           0.0000000000
     68331     22777  TIP3      H2            -40.2615866405      -22.8414522861       30.3061503535  W2        23076           0.0000000000
     68332     22778  TIP3      OH2           -50.6627666405      -22.4371122861       31.5027703535  W2        23077           0.0000000000
     68333     22778  TIP3      H1            -51.0322466405      -23.2390622861       31.1332003535  W2        23077           0.0000000000
     68334     22778  TIP3      H2            -49.7216566405      -22.6056222861       31.5491103535  W2        23077           0.0000000000
     68335     22779  TIP3      OH2           -54.0527166405      -28.7768522861       26.8956503535  W2        23078           0.0000000000
     68336     22779  TIP3      H1            -54.5003766405      -27.9309822861       26.8773003535  W2        23078           0.0000000000
     68337     22779  TIP3      H2            -54.6135966405      -29.3564322861       26.3801603535  W2        23078           0.0000000000
     68338     22780  TIP3      OH2           -53.3421066405      -26.6148922861       29.0214503535  W2        23079           0.0000000000
     68339     22780  TIP3      H1            -53.1287566405      -27.3847322861       29.5487503535  W2        23079           0.0000000000
     68340     22780  TIP3      H2            -52.6043466405      -26.5252222861       28.4182103535  W2        23079           0.0000000000
     68341     22781  TIP3      OH2           -43.1370066405      -18.4580022861       29.8884203535  W2        23080           0.0000000000
     68342     22781  TIP3      H1            -42.5173666405      -19.1345322861       29.6153403535  W2        23080           0.0000000000
     68343     22781  TIP3      H2            -43.3452666405      -18.6759222861       30.7969103535  W2        23080           0.0000000000
     68344     22782  TIP3      OH2           -45.5651366405      -24.0690722861       31.7809703535  W2        23081           0.0000000000
     68345     22782  TIP3      H1            -45.2613466405      -24.7549322861       31.1863803535  W2        23081           0.0000000000
     68346     22782  TIP3      H2            -44.8437366405      -23.9502022861       32.3987703535  W2        23081           0.0000000000
     68347     22783  TIP3      OH2           -36.9021566405      -32.4675422861       32.6415903535  W2        23082           0.0000000000
     68348     22783  TIP3      H1            -36.8529366405      -31.8574222861       33.3775003535  W2        23082           0.0000000000
     68349     22783  TIP3      H2            -36.4766466405      -32.0064522861       31.9187003535  W2        23082           0.0000000000
     68350     22784  TIP3      OH2           -42.4244366405      -29.6748322861       32.1084503535  W2        23083           0.0000000000
     68351     22784  TIP3      H1            -42.2818466405      -30.6211322861       32.1286103535  W2        23083           0.0000000000
     68352     22784  TIP3      H2            -42.5305366405      -29.4678522861       31.1799403535  W2        23083           0.0000000000
     68353     22785  TIP3      OH2           -49.2696066405      -31.5731922861       29.3809303535  W2        23084           0.0000000000
     68354     22785  TIP3      H1            -49.2264966405      -30.7133422861       28.9625603535  W2        23084           0.0000000000
     68355     22785  TIP3      H2            -49.7271966405      -32.1257222861       28.7472503535  W2        23084           0.0000000000
     68356     22786  TIP3      OH2           -41.5473366405      -31.4426322861       27.7817603535  W2        23085           0.0000000000
     68357     22786  TIP3      H1            -40.9009066405      -31.7713122861       28.4065203535  W2        23085           0.0000000000
     68358     22786  TIP3      H2            -41.0373966405      -30.9247322861       27.1589003535  W2        23085           0.0000000000
     68359     22787  TIP3      OH2           -52.6494566405      -29.1766122861       30.1430703535  W2        23086           0.0000000000
     68360     22787  TIP3      H1            -51.9957966405      -29.7264422861       30.5750803535  W2        23086           0.0000000000
     68361     22787  TIP3      H2            -52.6255266405      -29.4507122861       29.2262703535  W2        23086           0.0000000000
     68362     22788  TIP3      OH2           -47.4930066405      -27.6264822861       29.3582203535  W2        23087           0.0000000000
     68363     22788  TIP3      H1            -46.8769066405      -28.1529422861       29.8676203535  W2        23087           0.0000000000
     68364     22788  TIP3      H2            -48.0791266405      -28.2666122861       28.9545803535  W2        23087           0.0000000000
     68365     22789  TIP3      OH2           -36.5106966405      -30.9896222861       34.8775703535  W2        23088           0.0000000000
     68366     22789  TIP3      H1            -37.1992366405      -30.3315522861       34.7822303535  W2        23088           0.0000000000
     68367     22789  TIP3      H2            -36.4952366405      -31.1868322861       35.8141103535  W2        23088           0.0000000000
     68368     22790  TIP3      OH2           -50.4594166405      -32.6553522861       33.4550103535  W2        23089           0.0000000000
     68369     22790  TIP3      H1            -50.6782466405      -32.1252922861       32.6886103535  W2        23089           0.0000000000
     68370     22790  TIP3      H2            -51.1273266405      -32.4288022861       34.1021503535  W2        23089           0.0000000000
     68371     22791  TIP3      OH2           -43.0904366405      -23.1552422861       26.9989203535  W2        23090           0.0000000000
     68372     22791  TIP3      H1            -43.3859266405      -23.4780122861       26.1476103535  W2        23090           0.0000000000
     68373     22791  TIP3      H2            -43.4146566405      -22.2555722861       27.0401803535  W2        23090           0.0000000000
     68374     22792  TIP3      OH2           -47.8902766405      -24.9797822861       33.7423803535  W2        23091           0.0000000000
     68375     22792  TIP3      H1            -48.6303666405      -24.3816322861       33.8459003535  W2        23091           0.0000000000
     68376     22792  TIP3      H2            -47.1763266405      -24.4258222861       33.4267403535  W2        23091           0.0000000000
     68377     22793  TIP3      OH2           -39.7834966405      -32.1517022861       29.7623503535  W2        23092           0.0000000000
     68378     22793  TIP3      H1            -39.9986966405      -32.9173622861       30.2949503535  W2        23092           0.0000000000
     68379     22793  TIP3      H2            -39.1277566405      -31.6792422861       30.2752003535  W2        23092           0.0000000000
     68380     22794  TIP3      OH2           -50.8656866405      -30.7631722861       31.4072303535  W2        23093           0.0000000000
     68381     22794  TIP3      H1            -50.2520566405      -30.1304122861       31.7804703535  W2        23093           0.0000000000
     68382     22794  TIP3      H2            -50.3536166405      -31.2356722861       30.7509203535  W2        23093           0.0000000000
     68383     22795  TIP3      OH2           -49.4828466405      -23.0154822861       34.5295303535  W2        23094           0.0000000000
     68384     22795  TIP3      H1            -49.4880866405      -22.1361322861       34.1514603535  W2        23094           0.0000000000
     68385     22795  TIP3      H2            -50.3364366405      -23.0990722861       34.9545203535  W2        23094           0.0000000000
     68386     22796  TIP3      OH2           -53.3617566405      -23.3446922861       25.3114603535  W2        23095           0.0000000000
     68387     22796  TIP3      H1            -53.6336666405      -23.1155922861       24.4227503535  W2        23095           0.0000000000
     68388     22796  TIP3      H2            -53.3161866405      -22.5068122861       25.7719903535  W2        23095           0.0000000000
     68389     22797  TIP3      OH2           -39.7367866405      -21.7231022861       32.0243103535  W2        23096           0.0000000000
     68390     22797  TIP3      H1            -40.6784166405      -21.6647122861       32.1860003535  W2        23096           0.0000000000
     68391     22797  TIP3      H2            -39.4601766405      -20.8170522861       31.8872803535  W2        23096           0.0000000000
     68392     22798  TIP3      OH2           -39.4360866405      -33.4365722861       33.4417003535  W2        23097           0.0000000000
     68393     22798  TIP3      H1            -40.1721666405      -32.8258622861       33.4038303535  W2        23097           0.0000000000
     68394     22798  TIP3      H2            -38.7526866405      -33.0216722861       32.9153403535  W2        23097           0.0000000000
     68395     22799  TIP3      OH2           -46.4329466405      -35.3498422861       30.9075003535  W2        23098           0.0000000000
     68396     22799  TIP3      H1            -46.5505266405      -36.2982422861       30.8533303535  W2        23098           0.0000000000
     68397     22799  TIP3      H2            -47.2879366405      -35.0172322861       31.1806103535  W2        23098           0.0000000000
     68398     22800  TIP3      OH2           -41.4846666405      -19.9417522861       28.6494703535  W2        23099           0.0000000000
     68399     22800  TIP3      H1            -41.0594366405      -20.6489622861       28.1644303535  W2        23099           0.0000000000
     68400     22800  TIP3      H2            -41.1676666405      -19.1404822861       28.2326903535  W2        23099           0.0000000000
     68401     22801  TIP3      OH2           -40.3250166405      -22.0409022861       27.1581303535  W2        23100           0.0000000000
     68402     22801  TIP3      H1            -40.5825366405      -22.7308922861       26.5467203535  W2        23100           0.0000000000
     68403     22801  TIP3      H2            -40.2539366405      -22.4837822861       28.0037203535  W2        23100           0.0000000000
     68404     22802  TIP3      OH2           -44.1664566405      -26.5122822861       25.4080803535  W2        23102           0.0000000000
     68405     22802  TIP3      H1            -44.8779066405      -25.9773122861       25.0561303535  W2        23102           0.0000000000
     68406     22802  TIP3      H2            -43.4754966405      -26.4570722861       24.7479703535  W2        23102           0.0000000000
     68407     22803  TIP3      OH2           -44.1125366405      -28.0548522861       22.4465803535  W2        23103           0.0000000000
     68408     22803  TIP3      H1            -43.4115466405      -28.0321622861       23.0979803535  W2        23103           0.0000000000
     68409     22803  TIP3      H2            -43.8102466405      -28.6828822861       21.7905103535  W2        23103           0.0000000000
     68410     22804  TIP3      OH2           -36.7970666405      -27.1344322861       33.7015203535  W2        23104           0.0000000000
     68411     22804  TIP3      H1            -37.4496566405      -26.4398722861       33.7906103535  W2        23104           0.0000000000
     68412     22804  TIP3      H2            -36.3320366405      -26.9243422861       32.8916803535  W2        23104           0.0000000000
     68413     22805  TIP3      OH2           -40.7606866405      -26.3029522861       26.3596703535  W2        23105           0.0000000000
     68414     22805  TIP3      H1            -41.4925866405      -26.0745822861       26.9327303535  W2        23105           0.0000000000
     68415     22805  TIP3      H2            -40.3134666405      -27.0166822861       26.8144203535  W2        23105           0.0000000000
     68416     22806  TIP3      OH2           -40.8633366405      -28.1286922861       35.4273703535  W2        23106           0.0000000000
     68417     22806  TIP3      H1            -40.7834266405      -27.3652522861       35.9992203535  W2        23106           0.0000000000
     68418     22806  TIP3      H2            -41.4645666405      -27.8494522861       34.7368803535  W2        23106           0.0000000000
     68419     22807  TIP3      OH2           -49.1153166405      -25.6723322861       28.2421703535  W2        23107           0.0000000000
     68420     22807  TIP3      H1            -49.4457966405      -26.0429922861       27.4238703535  W2        23107           0.0000000000
     68421     22807  TIP3      H2            -48.5269066405      -26.3429322861       28.5890003535  W2        23107           0.0000000000
     68422     22808  TIP3      OH2           -47.7485666405      -22.2442722861       30.9233903535  W2        23108           0.0000000000
     68423     22808  TIP3      H1            -47.8434366405      -22.8229622861       30.1668503535  W2        23108           0.0000000000
     68424     22808  TIP3      H2            -47.0192066405      -22.6157022861       31.4196703535  W2        23108           0.0000000000
     68425     22809  TIP3      OH2           -48.7487666405      -26.9037722861       31.8756703535  W2        23109           0.0000000000
     68426     22809  TIP3      H1            -48.1835166405      -26.7823522861       31.1127903535  W2        23109           0.0000000000
     68427     22809  TIP3      H2            -48.4298766405      -26.2662722861       32.5145203535  W2        23109           0.0000000000
     68428     22810  TIP3      OH2           -42.4395466405      -21.4005822861       32.6097203535  W2        23110           0.0000000000
     68429     22810  TIP3      H1            -42.6798866405      -20.7382722861       33.2576403535  W2        23110           0.0000000000
     68430     22810  TIP3      H2            -42.6377266405      -22.2350622861       33.0346803535  W2        23110           0.0000000000
     68431     22811  TIP3      OH2           -41.8897366405      -27.1406622861       24.0447903535  W2        23112           0.0000000000
     68432     22811  TIP3      H1            -41.3101866405      -26.9906322861       24.7916803535  W2        23112           0.0000000000
     68433     22811  TIP3      H2            -41.4757366405      -26.6699222861       23.3214303535  W2        23112           0.0000000000
     68434     22812  TIP3      OH2           -44.1632466405      -20.4038122861       27.4801003535  W2        23114           0.0000000000
     68435     22812  TIP3      H1            -43.6894866405      -20.1081822861       28.2575203535  W2        23114           0.0000000000
     68436     22812  TIP3      H2            -44.7263166405      -19.6656522861       27.2470603535  W2        23114           0.0000000000
     68437     22813  TIP3      OH2           -38.1908966405      -35.3906222861       23.8577603535  W2        23116           0.0000000000
     68438     22813  TIP3      H1            -39.0908266405      -35.2517222861       24.1528203535  W2        23116           0.0000000000
     68439     22813  TIP3      H2            -37.9390566405      -34.5591622861       23.4559303535  W2        23116           0.0000000000
     68440     22814  TIP3      OH2           -50.1250466405      -26.6029022861       25.8314503535  W2        23117           0.0000000000
     68441     22814  TIP3      H1            -50.4169166405      -25.8347322861       25.3405803535  W2        23117           0.0000000000
     68442     22814  TIP3      H2            -50.7995266405      -27.2622822861       25.6685903535  W2        23117           0.0000000000
     68443     22815  TIP3      OH2           -37.0017566405      -21.0243822861       22.2341503535  W2        23118           0.0000000000
     68444     22815  TIP3      H1            -36.9284066405      -20.0853622861       22.4046803535  W2        23118           0.0000000000
     68445     22815  TIP3      H2            -36.0962466405      -21.3295222861       22.1778803535  W2        23118           0.0000000000
     68446     22816  TIP3      OH2           -54.0320366405      -24.2399822861       34.6464303535  W2        23119           0.0000000000
     68447     22816  TIP3      H1            -54.5331966405      -24.2680422861       33.8314003535  W2        23119           0.0000000000
     68448     22816  TIP3      H2            -54.0266666405      -25.1456622861       34.9561603535  W2        23119           0.0000000000
     68449     22817  TIP3      OH2           -54.2817666405      -21.4596022861       31.5304503535  W2        23120           0.0000000000
     68450     22817  TIP3      H1            -53.3357066405      -21.6039022861       31.5114003535  W2        23120           0.0000000000
     68451     22817  TIP3      H2            -54.3941366405      -20.6753222861       32.0675703535  W2        23120           0.0000000000
     68452     22818  TIP3      OH2           -44.6909366405      -17.4473422861       25.8950203535  W2        23123           0.0000000000
     68453     22818  TIP3      H1            -44.7663366405      -17.5686222861       24.9485403535  W2        23123           0.0000000000
     68454     22818  TIP3      H2            -44.6580666405      -16.4980722861       26.0134803535  W2        23123           0.0000000000
     68455     22819  TIP3      OH2           -51.0375566405      -18.6586422861       27.6759203535  W2        23124           0.0000000000
     68456     22819  TIP3      H1            -50.8855166405      -19.0066022861       28.5545703535  W2        23124           0.0000000000
     68457     22819  TIP3      H2            -51.8885166405      -19.0149122861       27.4206403535  W2        23124           0.0000000000
     68458     22820  TIP3      OH2           -41.5893366405      -18.2933222861       22.8972603535  W2        23125           0.0000000000
     68459     22820  TIP3      H1            -41.2144966405      -19.0377122861       22.4265203535  W2        23125           0.0000000000
     68460     22820  TIP3      H2            -41.5849666405      -18.5632622861       23.8155903535  W2        23125           0.0000000000
     68461     22821  TIP3      OH2           -41.9205266405      -18.3676122861       25.6464803535  W2        23126           0.0000000000
     68462     22821  TIP3      H1            -42.8555466405      -18.2674222861       25.8251803535  W2        23126           0.0000000000
     68463     22821  TIP3      H2            -41.6403366405      -19.0770122861       26.2248003535  W2        23126           0.0000000000
     68464     22822  TIP3      OH2           -49.1641866405      -34.4463922861       31.6851303535  W2        23129           0.0000000000
     68465     22822  TIP3      H1            -50.0258166405      -34.5335722861       31.2774203535  W2        23129           0.0000000000
     68466     22822  TIP3      H2            -49.1866166405      -33.5903822861       32.1128903535  W2        23129           0.0000000000
     68467     22823  TIP3      OH2           -44.5014066405      -34.7243522861       35.0598303535  W2        23130           0.0000000000
     68468     22823  TIP3      H1            -44.0810966405      -35.1396422861       35.8128903535  W2        23130           0.0000000000
     68469     22823  TIP3      H2            -45.4344466405      -34.9030222861       35.1770303535  W2        23130           0.0000000000
     68470     22824  TIP3      OH2           -40.4124266405      -26.1078322861       21.6745803535  W2        23132           0.0000000000
     68471     22824  TIP3      H1            -40.3703466405      -26.3304422861       20.7445803535  W2        23132           0.0000000000
     68472     22824  TIP3      H2            -39.5632166405      -25.7091222861       21.8645703535  W2        23132           0.0000000000
     68473     22825  TIP3      OH2           -44.8396766405      -32.2320122861       22.3449103535  W2        23133           0.0000000000
     68474     22825  TIP3      H1            -45.0931966405      -32.2128522861       23.2677203535  W2        23133           0.0000000000
     68475     22825  TIP3      H2            -45.0964666405      -33.1034722861       22.0435303535  W2        23133           0.0000000000
     68476     22826  TIP3      OH2           -49.0731766405      -29.4809422861       32.7801503535  W2        23134           0.0000000000
     68477     22826  TIP3      H1            -49.7149666405      -29.5212122861       33.4891603535  W2        23134           0.0000000000
     68478     22826  TIP3      H2            -49.0359766405      -28.5544722861       32.5424503535  W2        23134           0.0000000000
     68479     22827  TIP3      OH2           -49.0762666405      -29.2599322861       27.6921503535  W2        23135           0.0000000000
     68480     22827  TIP3      H1            -49.9689766405      -29.6003222861       27.6335303535  W2        23135           0.0000000000
     68481     22827  TIP3      H2            -48.6256066405      -29.6368422861       26.9364703535  W2        23135           0.0000000000
     68482     22828  TIP3      OH2           -43.5407166405      -28.8439022861       26.5092303535  W2        23136           0.0000000000
     68483     22828  TIP3      H1            -43.9496866405      -28.0290422861       26.2177103535  W2        23136           0.0000000000
     68484     22828  TIP3      H2            -42.8200966405      -28.9838922861       25.8949403535  W2        23136           0.0000000000
     68485     22829  TIP3      OH2           -42.5359466405      -29.3978622861       29.3232003535  W2        23138           0.0000000000
     68486     22829  TIP3      H1            -42.7314966405      -28.7921822861       28.6082603535  W2        23138           0.0000000000
     68487     22829  TIP3      H2            -42.3546866405      -30.2313422861       28.8888303535  W2        23138           0.0000000000
     68488     22830  TIP3      OH2           -51.3231266405      -29.1605922861       34.6473503535  W2        23139           0.0000000000
     68489     22830  TIP3      H1            -51.3611866405      -28.7604322861       35.5160603535  W2        23139           0.0000000000
     68490     22830  TIP3      H2            -51.8140166405      -29.9773522861       34.7376403535  W2        23139           0.0000000000
     68491     22831  TIP3      OH2           -47.9573866405      -31.7863622861       21.4459503535  W2        23140           0.0000000000
     68492     22831  TIP3      H1            -48.3883166405      -32.2313522861       22.1756903535  W2        23140           0.0000000000
     68493     22831  TIP3      H2            -48.6755166405      -31.4147322861       20.9337003535  W2        23140           0.0000000000
     68494     22832  TIP3      OH2           -54.7150466405      -32.0444122861       28.4978203535  W2        23141           0.0000000000
     68495     22832  TIP3      H1            -54.0842766405      -32.0732022861       29.2172103535  W2        23141           0.0000000000
     68496     22832  TIP3      H2            -54.2656166405      -32.4695422861       27.7674103535  W2        23141           0.0000000000
     68497     22833  TIP3      OH2           -53.4408366405      -31.2982122861       23.9218603535  W2        23142           0.0000000000
     68498     22833  TIP3      H1            -52.9666666405      -30.7072222861       23.3369503535  W2        23142           0.0000000000
     68499     22833  TIP3      H2            -54.1581966405      -30.7679222861       24.2688703535  W2        23142           0.0000000000
     68500     22834  TIP3      OH2           -43.2720266405      -27.7597322861       33.9944403535  W2        23143           0.0000000000
     68501     22834  TIP3      H1            -42.9485466405      -28.3907622861       33.3514903535  W2        23143           0.0000000000
     68502     22834  TIP3      H2            -43.7120966405      -28.2945122861       34.6551803535  W2        23143           0.0000000000
     68503     22835  TIP3      OH2           -46.4947366405      -31.8321822861       28.7785603535  W2        23144           0.0000000000
     68504     22835  TIP3      H1            -47.4056266405      -31.7755022861       29.0671603535  W2        23144           0.0000000000
     68505     22835  TIP3      H2            -45.9894466405      -31.8926322861       29.5892803535  W2        23144           0.0000000000
     68506     22836  TIP3      OH2           -51.6663966405      -30.2035522861       27.6053203535  W2        23145           0.0000000000
     68507     22836  TIP3      H1            -52.5555966405      -30.1040022861       27.2652803535  W2        23145           0.0000000000
     68508     22836  TIP3      H2            -51.3699066405      -31.0452522861       27.2591103535  W2        23145           0.0000000000
     68509     22837  TIP3      OH2           -48.0132166405      -30.2032922861       25.2617803535  W2        23146           0.0000000000
     68510     22837  TIP3      H1            -47.0816666405      -30.0742922861       25.4400903535  W2        23146           0.0000000000
     68511     22837  TIP3      H2            -48.2281866405      -29.5338622861       24.6122503535  W2        23146           0.0000000000
     68512     22838  TIP3      OH2           -42.0895466405      -32.5975522861       32.0427403535  W2        23147           0.0000000000
     68513     22838  TIP3      H1            -42.7663866405      -32.4662422861       32.7067103535  W2        23147           0.0000000000
     68514     22838  TIP3      H2            -42.5750566405      -32.7526022861       31.2325103535  W2        23147           0.0000000000
     68515     22839  TIP3      OH2           -49.3391966405      -29.0090722861       22.8283903535  W2        23148           0.0000000000
     68516     22839  TIP3      H1            -49.8816866405      -29.3886922861       22.1371503535  W2        23148           0.0000000000
     68517     22839  TIP3      H2            -48.5057066405      -28.8146022861       22.3998003535  W2        23148           0.0000000000
     68518     22840  TIP3      OH2           -45.1747666405      -29.0448822861       30.6655203535  W2        23151           0.0000000000
     68519     22840  TIP3      H1            -44.6104266405      -29.5912222861       30.1184803535  W2        23151           0.0000000000
     68520     22840  TIP3      H2            -45.3224266405      -29.5666922861       31.4542803535  W2        23151           0.0000000000
     68521     22841  TIP3      OH2           -50.1727966405      -32.9082722861       27.0840003535  W2        23152           0.0000000000
     68522     22841  TIP3      H1            -50.4898466405      -33.8107422861       27.0485403535  W2        23152           0.0000000000
     68523     22841  TIP3      H2            -49.3913866405      -32.9065322861       26.5311603535  W2        23152           0.0000000000
     68524     22842  TIP3      OH2           -46.5481766405      -30.6562722861       33.0795603535  W2        23153           0.0000000000
     68525     22842  TIP3      H1            -47.3836466405      -30.2023222861       33.1898003535  W2        23153           0.0000000000
     68526     22842  TIP3      H2            -46.0241166405      -30.3804222861       33.8315503535  W2        23153           0.0000000000
     68527     22843  TIP3      OH2           -46.0039166405      -24.4435022861       24.7642003535  W2        23154           0.0000000000
     68528     22843  TIP3      H1            -46.7488166405      -24.9509722861       24.4419903535  W2        23154           0.0000000000
     68529     22843  TIP3      H2            -46.1381966405      -24.3947022861       25.7106803535  W2        23154           0.0000000000
     68530     22844  TIP3      OH2           -38.8540266405      -25.3106822861       33.5509603535  W2        23155           0.0000000000
     68531     22844  TIP3      H1            -38.2121466405      -24.8540522861       33.0071803535  W2        23155           0.0000000000
     68532     22844  TIP3      H2            -39.6843366405      -25.1974422861       33.0883703535  W2        23155           0.0000000000
     68533     22845  TIP3      OH2           -42.1062366405      -31.6295122861       22.9634603535  W2        23156           0.0000000000
     68534     22845  TIP3      H1            -43.0448166405      -31.5179522861       22.8123403535  W2        23156           0.0000000000
     68535     22845  TIP3      H2            -41.8090266405      -30.7728222861       23.2700303535  W2        23156           0.0000000000
     68536     22846  TIP3      OH2           -41.3878866405      -29.7622422861       24.6242003535  W2        23158           0.0000000000
     68537     22846  TIP3      H1            -40.4959866405      -29.8997422861       24.9433203535  W2        23158           0.0000000000
     68538     22846  TIP3      H2            -41.3315266405      -28.9716322861       24.0875503535  W2        23158           0.0000000000
     68539     22847  TIP3      OH2           -50.8790866405      -25.1485022861       30.5339903535  W2        23159           0.0000000000
     68540     22847  TIP3      H1            -50.1343666405      -25.1509322861       29.9326403535  W2        23159           0.0000000000
     68541     22847  TIP3      H2            -50.8014266405      -25.9721222861       31.0155003535  W2        23159           0.0000000000
     68542     22848  TIP3      OH2           -43.8785066405      -22.9850722861       23.7896603535  W2        23160           0.0000000000
     68543     22848  TIP3      H1            -44.1736666405      -22.1582822861       24.1711403535  W2        23160           0.0000000000
     68544     22848  TIP3      H2            -44.5815066405      -23.6043822861       23.9858003535  W2        23160           0.0000000000
     68545     22849  TIP3      OH2           -36.5030166405      -29.5528322861       24.3188703535  W2        23164           0.0000000000
     68546     22849  TIP3      H1            -37.0573866405      -29.9490322861       23.6466203535  W2        23164           0.0000000000
     68547     22849  TIP3      H2            -36.4026566405      -28.6423122861       24.0412003535  W2        23164           0.0000000000
     68548     22850  TIP3      OH2           -38.2078466405      -20.7667922861       24.7840803535  W2        23166           0.0000000000
     68549     22850  TIP3      H1            -38.5807366405      -21.5924122861       25.0931403535  W2        23166           0.0000000000
     68550     22850  TIP3      H2            -37.9304966405      -20.9498522861       23.8864203535  W2        23166           0.0000000000
     68551     22851  TIP3      OH2           -41.0474566405      -25.9588422861       31.8052703535  W2        23167           0.0000000000
     68552     22851  TIP3      H1            -41.9757666405      -26.1906522861       31.7782003535  W2        23167           0.0000000000
     68553     22851  TIP3      H2            -40.5963466405      -26.7358622861       31.4751503535  W2        23167           0.0000000000
     68554     22852  TIP3      OH2           -48.5041466405      -21.6306822861       27.9381403535  W2        23168           0.0000000000
     68555     22852  TIP3      H1            -47.9769266405      -20.8572422861       27.7380203535  W2        23168           0.0000000000
     68556     22852  TIP3      H2            -49.3842966405      -21.4057622861       27.6365403535  W2        23168           0.0000000000
     68557     22853  TIP3      OH2           -52.7493766405      -26.7682722861       22.5253803535  W2        23169           0.0000000000
     68558     22853  TIP3      H1            -52.1333866405      -26.1415522861       22.9048603535  W2        23169           0.0000000000
     68559     22853  TIP3      H2            -53.6111166405      -26.4522922861       22.7970303535  W2        23169           0.0000000000
     68560     22854  TIP3      OH2           -47.0769166405      -23.9676922861       27.5145703535  W2        23170           0.0000000000
     68561     22854  TIP3      H1            -47.3179166405      -23.0422522861       27.5561003535  W2        23170           0.0000000000
     68562     22854  TIP3      H2            -47.8175566405      -24.4265622861       27.9109603535  W2        23170           0.0000000000
     68563     22855  TIP3      OH2           -46.5622566405      -19.8183322861       33.8296803535  W2        23171           0.0000000000
     68564     22855  TIP3      H1            -46.1997866405      -18.9637722861       33.5961203535  W2        23171           0.0000000000
     68565     22855  TIP3      H2            -46.0307366405      -20.1101722861       34.5703103535  W2        23171           0.0000000000
     68566     22856  TIP3      OH2           -48.3938366405      -18.9459322861       27.0597903535  W2        23172           0.0000000000
     68567     22856  TIP3      H1            -49.3437866405      -18.8401922861       27.1111203535  W2        23172           0.0000000000
     68568     22856  TIP3      H2            -48.0420266405      -18.1251922861       27.4045403535  W2        23172           0.0000000000
     68569     22857  TIP3      OH2           -43.0181766405      -23.7192622861       33.5302403535  W2        23173           0.0000000000
     68570     22857  TIP3      H1            -43.4440466405      -23.9470922861       34.3566403535  W2        23173           0.0000000000
     68571     22857  TIP3      H2            -42.4375966405      -24.4580822861       33.3477703535  W2        23173           0.0000000000
     68572     22858  TIP3      OH2           -40.8152866405      -22.7902122861       22.6041403535  W2        23174           0.0000000000
     68573     22858  TIP3      H1            -40.4619766405      -23.1702322861       23.4084903535  W2        23174           0.0000000000
     68574     22858  TIP3      H2            -41.7639366405      -22.8837322861       22.6910703535  W2        23174           0.0000000000
     68575     22859  TIP3      OH2           -36.3118466405      -18.3109622861       22.8051603535  W2        23176           0.0000000000
     68576     22859  TIP3      H1            -35.5680566405      -17.7249122861       22.6653203535  W2        23176           0.0000000000
     68577     22859  TIP3      H2            -37.0060366405      -17.7423822861       23.1384003535  W2        23176           0.0000000000
     68578     22860  TIP3      OH2           -52.2371666405      -31.9345422861       35.4069803535  W2        23177           0.0000000000
     68579     22860  TIP3      H1            -53.1299366405      -31.5960022861       35.3393803535  W2        23177           0.0000000000
     68580     22860  TIP3      H2            -52.3358866405      -32.7899322861       35.8250603535  W2        23177           0.0000000000
     68581     22861  TIP3      OH2           -39.9493566405      -24.1180122861       24.8309303535  W2        23178           0.0000000000
     68582     22861  TIP3      H1            -40.2265966405      -24.8460822861       25.3870403535  W2        23178           0.0000000000
     68583     22861  TIP3      H2            -39.0220566405      -23.9988122861       25.0361903535  W2        23178           0.0000000000
     68584     22862  TIP3      OH2           -52.5859666405      -20.1301022861       33.8419203535  W2        23179           0.0000000000
     68585     22862  TIP3      H1            -52.3689366405      -21.0618622861       33.8108903535  W2        23179           0.0000000000
     68586     22862  TIP3      H2            -52.3396166405      -19.8556022861       34.7252003535  W2        23179           0.0000000000
     68587     22863  TIP3      OH2           -46.7245066405      -21.6786022861       21.0511403535  W2        23180           0.0000000000
     68588     22863  TIP3      H1            -46.4855266405      -22.4267922861       20.5040303535  W2        23180           0.0000000000
     68589     22863  TIP3      H2            -46.9933766405      -22.0664322861       21.8839203535  W2        23180           0.0000000000
     68590     22864  TIP3      OH2           -47.7874466405      -22.1082222861       23.5074003535  W2        23181           0.0000000000
     68591     22864  TIP3      H1            -47.6406466405      -22.6282422861       24.2974903535  W2        23181           0.0000000000
     68592     22864  TIP3      H2            -47.7902766405      -21.2014622861       23.8139903535  W2        23181           0.0000000000
     68593     22865  TIP3      OH2           -51.3343366405      -24.8558922861       24.0179403535  W2        23182           0.0000000000
     68594     22865  TIP3      H1            -52.0204066405      -24.5036422861       24.5849103535  W2        23182           0.0000000000
     68595     22865  TIP3      H2            -50.8115466405      -24.0929322861       23.7713703535  W2        23182           0.0000000000
     68596     22866  TIP3      OH2           -43.5028266405      -32.1935122861       34.2968403535  W2        23183           0.0000000000
     68597     22866  TIP3      H1            -42.8040366405      -32.1196422861       34.9468103535  W2        23183           0.0000000000
     68598     22866  TIP3      H2            -43.8836866405      -33.0580122861       34.4511303535  W2        23183           0.0000000000
     68599     22867  TIP3      OH2           -42.7183366405      -32.5413422861       25.3940703535  W2        23184           0.0000000000
     68600     22867  TIP3      H1            -42.4985066405      -32.0698022861       24.5906103535  W2        23184           0.0000000000
     68601     22867  TIP3      H2            -42.1599366405      -32.1470822861       26.0641303535  W2        23184           0.0000000000
     68602     22868  TIP3      OH2           -45.0497266405      -20.4108622861       24.2568203535  W2        23185           0.0000000000
     68603     22868  TIP3      H1            -45.8661166405      -19.9138922861       24.3092503535  W2        23185           0.0000000000
     68604     22868  TIP3      H2            -44.5200966405      -19.9355122861       23.6167003535  W2        23185           0.0000000000
     68605     22869  TIP3      OH2           -45.5183466405      -30.8134622861       26.2289103535  W2        23186           0.0000000000
     68606     22869  TIP3      H1            -44.7060866405      -30.3091422861       26.2750803535  W2        23186           0.0000000000
     68607     22869  TIP3      H2            -45.7630466405      -30.9584922861       27.1428703535  W2        23186           0.0000000000
     68608     22870  TIP3      OH2           -44.9827066405      -29.8271922861       35.4135703535  W2        23187           0.0000000000
     68609     22870  TIP3      H1            -44.8636766405      -29.2536522861       36.1706103535  W2        23187           0.0000000000
     68610     22870  TIP3      H2            -44.3272466405      -30.5152522861       35.5283503535  W2        23187           0.0000000000
     68611     22871  TIP3      OH2           -44.6346766405      -33.7321622861       27.1670203535  W2        23188           0.0000000000
     68612     22871  TIP3      H1            -44.9813266405      -33.1151022861       27.8114503535  W2        23188           0.0000000000
     68613     22871  TIP3      H2            -43.9759866405      -33.2315922861       26.6855703535  W2        23188           0.0000000000
     68614     22872  TIP3      OH2           -47.7114166405      -19.3671422861       24.2385103535  W2        23189           0.0000000000
     68615     22872  TIP3      H1            -47.5505466405      -18.5673922861       23.7377703535  W2        23189           0.0000000000
     68616     22872  TIP3      H2            -47.9086366405      -19.0605422861       25.1235703535  W2        23189           0.0000000000
     68617     22873  TIP3      OH2           -48.9769766405      -32.6692222861       23.8542703535  W2        23190           0.0000000000
     68618     22873  TIP3      H1            -49.0604966405      -31.7809122861       24.2009103535  W2        23190           0.0000000000
     68619     22873  TIP3      H2            -48.0869466405      -32.9345522861       24.0859503535  W2        23190           0.0000000000
     68620     22874  TIP3      OH2           -40.1760266405      -28.1700622861       30.3442703535  W2        23192           0.0000000000
     68621     22874  TIP3      H1            -40.9735866405      -28.5850422861       30.0157703535  W2        23192           0.0000000000
     68622     22874  TIP3      H2            -39.7309166405      -28.8606922861       30.8353203535  W2        23192           0.0000000000
     68623     22875  TIP3      OH2           -50.7184466405      -22.2420022861       22.9147203535  W2        23193           0.0000000000
     68624     22875  TIP3      H1            -50.1262966405      -21.5425222861       23.1909603535  W2        23193           0.0000000000
     68625     22875  TIP3      H2            -50.2591466405      -22.6750522861       22.1951803535  W2        23193           0.0000000000
     68626     22876  TIP3      OH2           -52.4025266405      -29.5777022861       22.0306603535  W2        23194           0.0000000000
     68627     22876  TIP3      H1            -52.4472666405      -28.6383922861       22.2093603535  W2        23194           0.0000000000
     68628     22876  TIP3      H2            -53.2902066405      -29.8132122861       21.7608703535  W2        23194           0.0000000000
     68629     22877  TIP3      OH2           -39.0895666405      -18.9138122861       31.9666203535  W2        23195           0.0000000000
     68630     22877  TIP3      H1            -39.2451366405      -18.2353722861       31.3095503535  W2        23195           0.0000000000
     68631     22877  TIP3      H2            -38.1569266405      -18.8418822861       32.1696803535  W2        23195           0.0000000000
     68632     22878  TIP3      OH2           -51.5943266405      -34.7960422861       30.7037603535  W2        23196           0.0000000000
     68633     22878  TIP3      H1            -51.8233466405      -34.7367922861       29.7762603535  W2        23196           0.0000000000
     68634     22878  TIP3      H2            -52.0369866405      -35.5874922861       31.0101703535  W2        23196           0.0000000000
     68635     22879  TIP3      OH2           -52.6639966405      -20.8553322861       26.8643403535  W2        23197           0.0000000000
     68636     22879  TIP3      H1            -53.4961366405      -20.3830622861       26.8914803535  W2        23197           0.0000000000
     68637     22879  TIP3      H2            -52.1181666405      -20.3455722861       26.2656503535  W2        23197           0.0000000000
     68638     22880  TIP3      OH2           -44.6863266405      -19.8154622861       21.1897403535  W2        23200           0.0000000000
     68639     22880  TIP3      H1            -45.3302266405      -20.4466022861       21.5111103535  W2        23200           0.0000000000
     68640     22880  TIP3      H2            -43.9244966405      -20.3466622861       20.9580903535  W2        23200           0.0000000000
     68641     22881  TIP3      OH2           -40.0820366405      -19.9984722861       21.4235403535  W2        23202           0.0000000000
     68642     22881  TIP3      H1            -39.7989966405      -20.7929522861       21.8762303535  W2        23202           0.0000000000
     68643     22881  TIP3      H2            -39.3422466405      -19.7653722861       20.8626503535  W2        23202           0.0000000000
     68644     22882  TIP3      OH2           -49.1273066405      -24.0889822861       21.2810303535  W2        23204           0.0000000000
     68645     22882  TIP3      H1            -49.0628966405      -24.8830222861       21.8116703535  W2        23204           0.0000000000
     68646     22882  TIP3      H2            -48.4743866405      -24.2077022861       20.5912303535  W2        23204           0.0000000000
     68647     22883  TIP3      OH2           -43.7749666405      -23.0418122861       21.0168303535  W2        23206           0.0000000000
     68648     22883  TIP3      H1            -44.0435566405      -22.8616022861       21.9177203535  W2        23206           0.0000000000
     68649     22883  TIP3      H2            -43.9814066405      -23.9671922861       20.8854103535  W2        23206           0.0000000000
     68650     22884  TIP3      OH2           -47.9779266405      -26.1163622861       23.5868303535  W2        23209           0.0000000000
     68651     22884  TIP3      H1            -48.4377266405      -26.6005322861       24.2726803535  W2        23209           0.0000000000
     68652     22884  TIP3      H2            -47.7230566405      -26.7848222861       22.9508803535  W2        23209           0.0000000000
     68653     22885  TIP3      OH2           -46.9068866405      -27.8731822861       21.8491503535  W2        23211           0.0000000000
     68654     22885  TIP3      H1            -47.0873866405      -28.0280622861       20.9219803535  W2        23211           0.0000000000
     68655     22885  TIP3      H2            -45.9568366405      -27.7653122861       21.8939403535  W2        23211           0.0000000000
     68656     22886  TIP3      OH2           -37.5170566405      -25.5187622861       21.2949603535  W2        23213           0.0000000000
     68657     22886  TIP3      H1            -37.7905766405      -25.9432122861       20.4817903535  W2        23213           0.0000000000
     68658     22886  TIP3      H2            -37.4776466405      -24.5873122861       21.0780003535  W2        23213           0.0000000000
     68659     22887  TIP3      OH2           -47.9370566405      -32.4989922861       34.5178403535  W2        23215           0.0000000000
     68660     22887  TIP3      H1            -47.4013066405      -32.0473222861       33.8657703535  W2        23215           0.0000000000
     68661     22887  TIP3      H2            -48.7890966405      -32.6070122861       34.0952503535  W2        23215           0.0000000000
     68662     22888  TIP3      OH2           -46.3552166405      -27.0593722861       34.7573603535  W2        23216           0.0000000000
     68663     22888  TIP3      H1            -45.6047366405      -27.2156222861       34.1841403535  W2        23216           0.0000000000
     68664     22888  TIP3      H2            -46.6943866405      -26.2077122861       34.4819103535  W2        23216           0.0000000000
     68665     22889  TIP3      OH2           -47.1315066405      -35.0424222861       34.9492003535  W2        23220           0.0000000000
     68666     22889  TIP3      H1            -47.2295466405      -34.0961022861       34.8438203535  W2        23220           0.0000000000
     68667     22889  TIP3      H2            -47.8738866405      -35.4150422861       34.4735503535  W2        23220           0.0000000000
     68668     22890  TIP3      OH2           -47.0097166405      -17.1828122861       22.8505103535  W2        23227           0.0000000000
     68669     22890  TIP3      H1            -46.0766466405      -17.0249422861       22.9943503535  W2        23227           0.0000000000
     68670     22890  TIP3      H2            -47.2738366405      -16.5075122861       22.2256603535  W2        23227           0.0000000000
     68671     22891  TIP3      OH2           -53.4412266405      -22.5464322861       22.3333203535  W2        23228           0.0000000000
     68672     22891  TIP3      H1            -52.5273066405      -22.4675422861       22.6067103535  W2        23228           0.0000000000
     68673     22891  TIP3      H2            -53.4339166405      -23.2334722861       21.6668803535  W2        23228           0.0000000000
     68674     22892  TIP3      OH2           -54.7921666405      -17.1535822861       27.4107103535  W2        23229           0.0000000000
     68675     22892  TIP3      H1            -55.4394566405      -17.6154122861       26.8778303535  W2        23229           0.0000000000
     68676     22892  TIP3      H2            -54.4377066405      -17.8252522861       27.9933303535  W2        23229           0.0000000000
     68677     22893  TIP3      OH2           -53.9222466405      -19.0728822861       29.2153303535  W2        23230           0.0000000000
     68678     22893  TIP3      H1            -54.2565666405      -19.9531522861       29.3873503535  W2        23230           0.0000000000
     68679     22893  TIP3      H2            -53.7000066405      -18.7273822861       30.0798903535  W2        23230           0.0000000000
     68680     22894  TIP3      OH2           -36.3737666405      -18.2632422861       32.1958103535  W2        23231           0.0000000000
     68681     22894  TIP3      H1            -36.3950966405      -18.0784022861       33.1347503535  W2        23231           0.0000000000
     68682     22894  TIP3      H2            -35.6831466405      -17.6948422861       31.8549503535  W2        23231           0.0000000000
     68683     22895  TIP3      OH2           -36.8104766405      -18.6961322861       35.1177203535  W2        23232           0.0000000000
     68684     22895  TIP3      H1            -37.2976066405      -19.4317222861       34.7464603535  W2        23232           0.0000000000
     68685     22895  TIP3      H2            -36.2612066405      -19.0897422861       35.7956603535  W2        23232           0.0000000000
     68686     22896  TIP3      OH2           -37.0587766405      -24.6499522861       25.2700003535  W2        23234           0.0000000000
     68687     22896  TIP3      H1            -36.2086366405      -24.2288622861       25.3971603535  W2        23234           0.0000000000
     68688     22896  TIP3      H2            -37.0532666405      -25.3899422861       25.8771403535  W2        23234           0.0000000000
     68689     22897  TIP3      OH2           -36.6642166405      -26.5962122861       27.0935703535  W2        23235           0.0000000000
     68690     22897  TIP3      H1            -37.3907566405      -27.0759522861       27.4913303535  W2        23235           0.0000000000
     68691     22897  TIP3      H2            -36.0828866405      -26.3907422861       27.8257303535  W2        23235           0.0000000000
     68692     22898  TIP3      OH2           -36.9050966405      -23.8114622861       32.0413303535  W2        23236           0.0000000000
     68693     22898  TIP3      H1            -36.0716766405      -24.1894622861       31.7606903535  W2        23236           0.0000000000
     68694     22898  TIP3      H2            -36.7930666405      -22.8683422861       31.9222403535  W2        23236           0.0000000000
     68695     22899  TIP3      OH2           -38.4188666405      -20.9337122861       34.3481703535  W2        23237           0.0000000000
     68696     22899  TIP3      H1            -39.0663366405      -20.6085622861       34.9736903535  W2        23237           0.0000000000
     68697     22899  TIP3      H2            -38.9364666405      -21.3739422861       33.6740003535  W2        23237           0.0000000000
     68698     22900  TIP3      OH2           -36.3959066405      -26.6953622861       23.4847003535  W2        23238           0.0000000000
     68699     22900  TIP3      H1            -36.9177966405      -26.3389522861       22.7657903535  W2        23238           0.0000000000
     68700     22900  TIP3      H2            -36.4289866405      -26.0205822861       24.1627903535  W2        23238           0.0000000000
     68701     22901  TIP3      OH2           -38.0470066405      -29.4558022861       22.0354103535  W2        23239           0.0000000000
     68702     22901  TIP3      H1            -37.9505666405      -28.7891022861       21.3553803535  W2        23239           0.0000000000
     68703     22901  TIP3      H2            -38.1870466405      -30.2711722861       21.5539603535  W2        23239           0.0000000000
     68704     22902  TIP3      OH2           -38.8775366405      -28.0755622861       27.6564403535  W2        23240           0.0000000000
     68705     22902  TIP3      H1            -39.0276566405      -29.0207022861       27.6362203535  W2        23240           0.0000000000
     68706     22902  TIP3      H2            -39.2310866405      -27.7944222861       28.5003503535  W2        23240           0.0000000000
     68707     22903  TIP3      OH2           -53.8422966405      -25.9973422861       31.6668203535  W2        23241           0.0000000000
     68708     22903  TIP3      H1            -53.6580066405      -26.0791722861       30.7311103535  W2        23241           0.0000000000
     68709     22903  TIP3      H2            -52.9930066405      -26.1216422861       32.0904603535  W2        23241           0.0000000000
     68710     22904  TIP3      OH2           -38.7996266405      -32.0478222861       21.1529603535  W2        23244           0.0000000000
     68711     22904  TIP3      H1            -38.1890466405      -32.4191422861       21.7897803535  W2        23244           0.0000000000
     68712     22904  TIP3      H2            -39.6364766405      -32.4691322861       21.3489603535  W2        23244           0.0000000000
     68713     22905  TIP3      OH2           -39.1670566405      -30.4929822861       26.1189503535  W2        23245           0.0000000000
     68714     22905  TIP3      H1            -38.8873466405      -31.3999422861       26.2431203535  W2        23245           0.0000000000
     68715     22905  TIP3      H2            -38.4078866405      -30.0588322861       25.7298703535  W2        23245           0.0000000000
     68716     22906  TIP3      OH2           -38.5552266405      -29.9112422861       31.5548403535  W2        23246           0.0000000000
     68717     22906  TIP3      H1            -37.6224266405      -29.6992522861       31.5204403535  W2        23246           0.0000000000
     68718     22906  TIP3      H2            -38.7904766405      -29.8100322861       32.4771403535  W2        23246           0.0000000000
     68719     22907  TIP3      OH2           -38.5260366405      -29.1747122861       34.3307803535  W2        23247           0.0000000000
     68720     22907  TIP3      H1            -39.3689066405      -28.9066722861       34.6967603535  W2        23247           0.0000000000
     68721     22907  TIP3      H2            -38.0836066405      -28.3525222861       34.1198903535  W2        23247           0.0000000000
     68722     22908  TIP3      OH2           -38.5535766405      -33.2300522861       26.1671503535  W2        23250           0.0000000000
     68723     22908  TIP3      H1            -38.3710766405      -33.6789022861       26.9926503535  W2        23250           0.0000000000
     68724     22908  TIP3      H2            -39.1532866405      -33.8146122861       25.7036103535  W2        23250           0.0000000000
     68725     22909  TIP3      OH2           -53.0235666405      -32.4146822861       30.6989903535  W2        23251           0.0000000000
     68726     22909  TIP3      H1            -52.5784066405      -33.2064322861       31.0009603535  W2        23251           0.0000000000
     68727     22909  TIP3      H2            -52.5572666405      -31.6981622861       31.1295503535  W2        23251           0.0000000000
     68728     22910  TIP3      OH2           -54.7195366405      -29.4153822861       31.7680103535  W2        23252           0.0000000000
     68729     22910  TIP3      H1            -54.2275566405      -29.6363322861       30.9772103535  W2        23252           0.0000000000
     68730     22910  TIP3      H2            -54.3574466405      -28.5750422861       32.0489603535  W2        23252           0.0000000000
     68731     22911  TIP3      OH2           -36.6869566405      -33.1622422861       22.6951803535  W2        23254           0.0000000000
     68732     22911  TIP3      H1            -36.2746966405      -33.8836722861       22.2199803535  W2        23254           0.0000000000
     68733     22911  TIP3      H2            -36.0053066405      -32.4927822861       22.7536103535  W2        23254           0.0000000000
     68734     22912  TIP3      OH2           -54.4058866405      -33.1574722861       25.8222503535  W2        23255           0.0000000000
     68735     22912  TIP3      H1            -55.3310466405      -32.9488122861       25.6928003535  W2        23255           0.0000000000
     68736     22912  TIP3      H2            -53.9518966405      -32.6733922861       25.1324803535  W2        23255           0.0000000000
     68737     22913  TIP3      OH2           -39.6351666405      -18.1733022861       27.7679903535  W2        23256           0.0000000000
     68738     22913  TIP3      H1            -38.9828766405      -18.5210922861       27.1599003535  W2        23256           0.0000000000
     68739     22913  TIP3      H2            -39.1247866405      -17.6849822861       28.4139603535  W2        23256           0.0000000000
     68740     22914  TIP3      OH2           -54.4423466405      -34.4195722861       34.1665003535  W2        23257           0.0000000000
     68741     22914  TIP3      H1            -55.1072966405      -34.6655422861       34.8095903535  W2        23257           0.0000000000
     68742     22914  TIP3      H2            -54.8852166405      -33.7975322861       33.5893003535  W2        23257           0.0000000000
     68743     22915  TIP3      OH2           -49.2961266405      -20.2700422861       34.5694803535  W2        23259           0.0000000000
     68744     22915  TIP3      H1            -49.7210166405      -19.4601922861       34.2869403535  W2        23259           0.0000000000
     68745     22915  TIP3      H2            -48.3918466405      -20.1846322861       34.2674603535  W2        23259           0.0000000000
     68746     22916  TIP3      OH2           -51.8944566405      -17.0136522861       34.6170103535  W2        23263           0.0000000000
     68747     22916  TIP3      H1            -52.6148166405      -16.5735522861       34.1657803535  W2        23263           0.0000000000
     68748     22916  TIP3      H2            -52.2600566405      -17.2641822861       35.4654103535  W2        23263           0.0000000000
     68749     22917  TIP3      OH2           -49.4271966405      -17.4132622861       33.6467303535  W2        23264           0.0000000000
     68750     22917  TIP3      H1            -50.2919766405      -17.3414122861       34.0507403535  W2        23264           0.0000000000
     68751     22917  TIP3      H2            -49.4822966405      -16.8665322861       32.8629803535  W2        23264           0.0000000000
     68752     22918  TIP3      OH2           -44.7166366405      -17.5253722861       32.8223303535  W2        23265           0.0000000000
     68753     22918  TIP3      H1            -45.1732366405      -16.9964022861       32.1681703535  W2        23265           0.0000000000
     68754     22918  TIP3      H2            -44.5538366405      -16.9222322861       33.5475603535  W2        23265           0.0000000000
     68755     22919  TIP3      OH2           -42.3890066405      -18.6474122861       33.7673603535  W2        23266           0.0000000000
     68756     22919  TIP3      H1            -43.2936366405      -18.4823922861       33.5015703535  W2        23266           0.0000000000
     68757     22919  TIP3      H2            -41.9601466405      -17.7941922861       33.7017003535  W2        23266           0.0000000000
     68758     22920  TIP3      OH2           -39.7848166405      -17.0775022861       34.0621403535  W2        23267           0.0000000000
     68759     22920  TIP3      H1            -39.9666166405      -16.1616122861       33.8516303535  W2        23267           0.0000000000
     68760     22920  TIP3      H2            -39.6080366405      -17.4877922861       33.2156003535  W2        23267           0.0000000000
     68761     22921  TIP3      OH2           -52.4796466405      -18.3904022861       31.5271903535  W2        23268           0.0000000000
     68762     22921  TIP3      H1            -52.4980466405      -18.8158922861       32.3844203535  W2        23268           0.0000000000
     68763     22921  TIP3      H2            -51.6748566405      -18.7089022861       31.1184103535  W2        23268           0.0000000000
     68764     22922  TIP3      OH2           -50.3383366405      -19.6805322861       30.1821803535  W2        23269           0.0000000000
     68765     22922  TIP3      H1            -50.5572666405      -20.5967922861       30.3517803535  W2        23269           0.0000000000
     68766     22922  TIP3      H2            -49.5141166405      -19.5404922861       30.6483203535  W2        23269           0.0000000000
     68767     22923  TIP3      OH2           -47.8010866405      -19.2106022861       31.0309803535  W2        23270           0.0000000000
     68768     22923  TIP3      H1            -47.5885166405      -20.0987022861       30.7440703535  W2        23270           0.0000000000
     68769     22923  TIP3      H2            -47.7365766405      -19.2448322861       31.9853803535  W2        23270           0.0000000000
     68770     22924  TIP3      OH2           -44.2927166405      -33.5465422861       30.1753103535  W2        23271           0.0000000000
     68771     22924  TIP3      H1            -44.9670366405      -34.1759822861       30.4308903535  W2        23271           0.0000000000
     68772     22924  TIP3      H2            -43.7287966405      -34.0306522861       29.5721003535  W2        23271           0.0000000000
     68773     22925  TIP3      OH2           -39.1499966405      -35.4391422861       30.2880203535  W2        23272           0.0000000000
     68774     22925  TIP3      H1            -38.5462366405      -34.8916022861       29.7861203535  W2        23272           0.0000000000
     68775     22925  TIP3      H2            -40.0197966405      -35.1201022861       30.0474303535  W2        23272           0.0000000000
     68776     22926  TIP3      OH2           -37.4229566405      -34.3002722861       28.6211103535  W2        23273           0.0000000000
     68777     22926  TIP3      H1            -36.8112066405      -34.8147022861       28.0944703535  W2        23273           0.0000000000
     68778     22926  TIP3      H2            -37.0406166405      -33.4230622861       28.6445503535  W2        23273           0.0000000000
     68779     22927  TIP3      OH2           -51.9659666405      -34.9125122861       27.9973003535  W2        23274           0.0000000000
     68780     22927  TIP3      H1            -52.7429866405      -35.1470222861       27.4898903535  W2        23274           0.0000000000
     68781     22927  TIP3      H2            -51.4356066405      -35.7093022861       28.0061003535  W2        23274           0.0000000000
     68782     22928  TIP3      OH2           -53.1296266405      -35.1147022861       23.8009103535  W2        23275           0.0000000000
     68783     22928  TIP3      H1            -52.6905566405      -34.5036522861       23.2092603535  W2        23275           0.0000000000
     68784     22928  TIP3      H2            -53.7633866405      -34.5762922861       24.2749103535  W2        23275           0.0000000000
     68785     22929  TIP3      OH2           -47.3867066405      -34.9858022861       27.8106103535  W2        23276           0.0000000000
     68786     22929  TIP3      H1            -46.5123666405      -34.5973722861       27.7810403535  W2        23276           0.0000000000
     68787     22929  TIP3      H2            -47.5226266405      -35.2010222861       28.7333303535  W2        23276           0.0000000000
     68788     22930  TIP3      OH2           -41.8298666405      -34.9558222861       29.4597803535  W2        23277           0.0000000000
     68789     22930  TIP3      H1            -41.7537066405      -34.8606622861       28.5103803535  W2        23277           0.0000000000
     68790     22930  TIP3      H2            -42.1049466405      -35.8635322861       29.5886903535  W2        23277           0.0000000000
     68791     22931  TIP3      OH2           -40.4766066405      -34.9300422861       25.1522803535  W2        23278           0.0000000000
     68792     22931  TIP3      H1            -41.1794966405      -34.3151222861       24.9424203535  W2        23278           0.0000000000
     68793     22931  TIP3      H2            -40.9214666405      -35.7673722861       25.2833703535  W2        23278           0.0000000000
     68794     22932  TIP3      OH2           -53.2286766405      -19.1664822861       24.6984203535  W2        23279           0.0000000000
     68795     22932  TIP3      H1            -53.9136866405      -19.2045922861       24.0309303535  W2        23279           0.0000000000
     68796     22932  TIP3      H2            -53.2249566405      -18.2537222861       24.9866303535  W2        23279           0.0000000000
     68797     22933  TIP3      OH2           -51.2687166405      -33.1985522861       22.2433203535  W2        23280           0.0000000000
     68798     22933  TIP3      H1            -50.7773766405      -33.8283122861       21.7158703535  W2        23280           0.0000000000
     68799     22933  TIP3      H2            -50.6450866405      -32.9026122861       22.9064403535  W2        23280           0.0000000000
     68800     22934  TIP3      OH2           -46.2427066405      -32.9054022861       24.7003703535  W2        23281           0.0000000000
     68801     22934  TIP3      H1            -46.0645766405      -33.5520822861       25.3832303535  W2        23281           0.0000000000
     68802     22934  TIP3      H2            -46.2960866405      -32.0716322861       25.1674803535  W2        23281           0.0000000000
     68803     22935  TIP3      OH2           -44.3643266405      -17.9569922861       23.0960403535  W2        23282           0.0000000000
     68804     22935  TIP3      H1            -43.4983066405      -17.5902522861       22.9178603535  W2        23282           0.0000000000
     68805     22935  TIP3      H2            -44.6110466405      -18.3961922861       22.2821203535  W2        23282           0.0000000000
     68806     22936  TIP3      OH2           -37.6553666405      -18.3939622861       25.7751503535  W2        23283           0.0000000000
     68807     22936  TIP3      H1            -37.8496566405      -19.1417522861       25.2101103535  W2        23283           0.0000000000
     68808     22936  TIP3      H2            -37.6943566405      -17.6359522861       25.1919403535  W2        23283           0.0000000000
     68809     22937  TIP3      OH2           -51.4105566405      -18.2464022861       21.7236303535  W2        23286           0.0000000000
     68810     22937  TIP3      H1            -51.6780966405      -17.9601122861       22.5969403535  W2        23286           0.0000000000
     68811     22937  TIP3      H2            -50.6392966405      -18.7924822861       21.8758803535  W2        23286           0.0000000000
     68812     22938  TIP3      OH2           -24.0317066405      -25.7562822861       27.9560503535  W2        23289           0.0000000000
     68813     22938  TIP3      H1            -23.9425966405      -24.8124622861       27.8237603535  W2        23289           0.0000000000
     68814     22938  TIP3      H2            -24.6699466405      -26.0316422861       27.2979903535  W2        23289           0.0000000000
     68815     22939  TIP3      OH2           -25.0985766405      -26.5012122861       31.3748703535  W2        23290           0.0000000000
     68816     22939  TIP3      H1            -25.1368266405      -27.1475822861       32.0798303535  W2        23290           0.0000000000
     68817     22939  TIP3      H2            -25.4209266405      -26.9677722861       30.6037403535  W2        23290           0.0000000000
     68818     22940  TIP3      OH2           -32.7300766405      -26.8870022861       32.9678603535  W2        23291           0.0000000000
     68819     22940  TIP3      H1            -32.6888666405      -27.5126722861       33.6911003535  W2        23291           0.0000000000
     68820     22940  TIP3      H2            -32.0273066405      -26.2631422861       33.1499003535  W2        23291           0.0000000000
     68821     22941  TIP3      OH2           -21.3925566405      -23.5621722861       29.6763803535  W2        23292           0.0000000000
     68822     22941  TIP3      H1            -21.8332866405      -24.2825722861       30.1269403535  W2        23292           0.0000000000
     68823     22941  TIP3      H2            -21.4055866405      -22.8414522861       30.3061503535  W2        23292           0.0000000000
     68824     22942  TIP3      OH2           -31.8067666405      -22.4371122861       31.5027703535  W2        23293           0.0000000000
     68825     22942  TIP3      H1            -32.1762466405      -23.2390622861       31.1332003535  W2        23293           0.0000000000
     68826     22942  TIP3      H2            -30.8656566405      -22.6056222861       31.5491103535  W2        23293           0.0000000000
     68827     22943  TIP3      OH2           -35.1967166405      -28.7768522861       26.8956503535  W2        23294           0.0000000000
     68828     22943  TIP3      H1            -35.6443766405      -27.9309822861       26.8773003535  W2        23294           0.0000000000
     68829     22943  TIP3      H2            -35.7575966405      -29.3564322861       26.3801603535  W2        23294           0.0000000000
     68830     22944  TIP3      OH2           -34.4861066405      -26.6148922861       29.0214503535  W2        23295           0.0000000000
     68831     22944  TIP3      H1            -34.2727566405      -27.3847322861       29.5487503535  W2        23295           0.0000000000
     68832     22944  TIP3      H2            -33.7483466405      -26.5252222861       28.4182103535  W2        23295           0.0000000000
     68833     22945  TIP3      OH2           -24.2810066405      -18.4580022861       29.8884203535  W2        23296           0.0000000000
     68834     22945  TIP3      H1            -23.6613666405      -19.1345322861       29.6153403535  W2        23296           0.0000000000
     68835     22945  TIP3      H2            -24.4892666405      -18.6759222861       30.7969103535  W2        23296           0.0000000000
     68836     22946  TIP3      OH2           -26.7091366405      -24.0690722861       31.7809703535  W2        23297           0.0000000000
     68837     22946  TIP3      H1            -26.4053466405      -24.7549322861       31.1863803535  W2        23297           0.0000000000
     68838     22946  TIP3      H2            -25.9877366405      -23.9502022861       32.3987703535  W2        23297           0.0000000000
     68839     22947  TIP3      OH2           -18.0461566405      -32.4675422861       32.6415903535  W2        23298           0.0000000000
     68840     22947  TIP3      H1            -17.9969366405      -31.8574222861       33.3775003535  W2        23298           0.0000000000
     68841     22947  TIP3      H2            -17.6206466405      -32.0064522861       31.9187003535  W2        23298           0.0000000000
     68842     22948  TIP3      OH2           -23.5684366405      -29.6748322861       32.1084503535  W2        23299           0.0000000000
     68843     22948  TIP3      H1            -23.4258466405      -30.6211322861       32.1286103535  W2        23299           0.0000000000
     68844     22948  TIP3      H2            -23.6745366405      -29.4678522861       31.1799403535  W2        23299           0.0000000000
     68845     22949  TIP3      OH2           -30.4136066405      -31.5731922861       29.3809303535  W2        23300           0.0000000000
     68846     22949  TIP3      H1            -30.3704966405      -30.7133422861       28.9625603535  W2        23300           0.0000000000
     68847     22949  TIP3      H2            -30.8711966405      -32.1257222861       28.7472503535  W2        23300           0.0000000000
     68848     22950  TIP3      OH2           -22.6913366405      -31.4426322861       27.7817603535  W2        23301           0.0000000000
     68849     22950  TIP3      H1            -22.0449066405      -31.7713122861       28.4065203535  W2        23301           0.0000000000
     68850     22950  TIP3      H2            -22.1813966405      -30.9247322861       27.1589003535  W2        23301           0.0000000000
     68851     22951  TIP3      OH2           -33.7934566405      -29.1766122861       30.1430703535  W2        23302           0.0000000000
     68852     22951  TIP3      H1            -33.1397966405      -29.7264422861       30.5750803535  W2        23302           0.0000000000
     68853     22951  TIP3      H2            -33.7695266405      -29.4507122861       29.2262703535  W2        23302           0.0000000000
     68854     22952  TIP3      OH2           -28.6370066405      -27.6264822861       29.3582203535  W2        23303           0.0000000000
     68855     22952  TIP3      H1            -28.0209066405      -28.1529422861       29.8676203535  W2        23303           0.0000000000
     68856     22952  TIP3      H2            -29.2231266405      -28.2666122861       28.9545803535  W2        23303           0.0000000000
     68857     22953  TIP3      OH2           -17.6546966405      -30.9896222861       34.8775703535  W2        23304           0.0000000000
     68858     22953  TIP3      H1            -18.3432366405      -30.3315522861       34.7822303535  W2        23304           0.0000000000
     68859     22953  TIP3      H2            -17.6392366405      -31.1868322861       35.8141103535  W2        23304           0.0000000000
     68860     22954  TIP3      OH2           -31.6034166405      -32.6553522861       33.4550103535  W2        23305           0.0000000000
     68861     22954  TIP3      H1            -31.8222466405      -32.1252922861       32.6886103535  W2        23305           0.0000000000
     68862     22954  TIP3      H2            -32.2713266405      -32.4288022861       34.1021503535  W2        23305           0.0000000000
     68863     22955  TIP3      OH2           -24.2344366405      -23.1552422861       26.9989203535  W2        23306           0.0000000000
     68864     22955  TIP3      H1            -24.5299266405      -23.4780122861       26.1476103535  W2        23306           0.0000000000
     68865     22955  TIP3      H2            -24.5586566405      -22.2555722861       27.0401803535  W2        23306           0.0000000000
     68866     22956  TIP3      OH2           -29.0342766405      -24.9797822861       33.7423803535  W2        23307           0.0000000000
     68867     22956  TIP3      H1            -29.7743666405      -24.3816322861       33.8459003535  W2        23307           0.0000000000
     68868     22956  TIP3      H2            -28.3203266405      -24.4258222861       33.4267403535  W2        23307           0.0000000000
     68869     22957  TIP3      OH2           -20.9274966405      -32.1517022861       29.7623503535  W2        23308           0.0000000000
     68870     22957  TIP3      H1            -21.1426966405      -32.9173622861       30.2949503535  W2        23308           0.0000000000
     68871     22957  TIP3      H2            -20.2717566405      -31.6792422861       30.2752003535  W2        23308           0.0000000000
     68872     22958  TIP3      OH2           -32.0096866405      -30.7631722861       31.4072303535  W2        23309           0.0000000000
     68873     22958  TIP3      H1            -31.3960566405      -30.1304122861       31.7804703535  W2        23309           0.0000000000
     68874     22958  TIP3      H2            -31.4976166405      -31.2356722861       30.7509203535  W2        23309           0.0000000000
     68875     22959  TIP3      OH2           -30.6268466405      -23.0154822861       34.5295303535  W2        23310           0.0000000000
     68876     22959  TIP3      H1            -30.6320866405      -22.1361322861       34.1514603535  W2        23310           0.0000000000
     68877     22959  TIP3      H2            -31.4804366405      -23.0990722861       34.9545203535  W2        23310           0.0000000000
     68878     22960  TIP3      OH2           -34.5057566405      -23.3446922861       25.3114603535  W2        23311           0.0000000000
     68879     22960  TIP3      H1            -34.7776666405      -23.1155922861       24.4227503535  W2        23311           0.0000000000
     68880     22960  TIP3      H2            -34.4601866405      -22.5068122861       25.7719903535  W2        23311           0.0000000000
     68881     22961  TIP3      OH2           -20.8807866405      -21.7231022861       32.0243103535  W2        23312           0.0000000000
     68882     22961  TIP3      H1            -21.8224166405      -21.6647122861       32.1860003535  W2        23312           0.0000000000
     68883     22961  TIP3      H2            -20.6041766405      -20.8170522861       31.8872803535  W2        23312           0.0000000000
     68884     22962  TIP3      OH2           -20.5800866405      -33.4365722861       33.4417003535  W2        23313           0.0000000000
     68885     22962  TIP3      H1            -21.3161666405      -32.8258622861       33.4038303535  W2        23313           0.0000000000
     68886     22962  TIP3      H2            -19.8966866405      -33.0216722861       32.9153403535  W2        23313           0.0000000000
     68887     22963  TIP3      OH2           -27.5769466405      -35.3498422861       30.9075003535  W2        23314           0.0000000000
     68888     22963  TIP3      H1            -27.6945266405      -36.2982422861       30.8533303535  W2        23314           0.0000000000
     68889     22963  TIP3      H2            -28.4319366405      -35.0172322861       31.1806103535  W2        23314           0.0000000000
     68890     22964  TIP3      OH2           -22.6286666405      -19.9417522861       28.6494703535  W2        23315           0.0000000000
     68891     22964  TIP3      H1            -22.2034366405      -20.6489622861       28.1644303535  W2        23315           0.0000000000
     68892     22964  TIP3      H2            -22.3116666405      -19.1404822861       28.2326903535  W2        23315           0.0000000000
     68893     22965  TIP3      OH2           -21.4690166405      -22.0409022861       27.1581303535  W2        23316           0.0000000000
     68894     22965  TIP3      H1            -21.7265366405      -22.7308922861       26.5467203535  W2        23316           0.0000000000
     68895     22965  TIP3      H2            -21.3979366405      -22.4837822861       28.0037203535  W2        23316           0.0000000000
     68896     22966  TIP3      OH2           -25.3104566405      -26.5122822861       25.4080803535  W2        23318           0.0000000000
     68897     22966  TIP3      H1            -26.0219066405      -25.9773122861       25.0561303535  W2        23318           0.0000000000
     68898     22966  TIP3      H2            -24.6194966405      -26.4570722861       24.7479703535  W2        23318           0.0000000000
     68899     22967  TIP3      OH2           -25.2565366405      -28.0548522861       22.4465803535  W2        23319           0.0000000000
     68900     22967  TIP3      H1            -24.5555466405      -28.0321622861       23.0979803535  W2        23319           0.0000000000
     68901     22967  TIP3      H2            -24.9542466405      -28.6828822861       21.7905103535  W2        23319           0.0000000000
     68902     22968  TIP3      OH2           -17.9410666405      -27.1344322861       33.7015203535  W2        23320           0.0000000000
     68903     22968  TIP3      H1            -18.5936566405      -26.4398722861       33.7906103535  W2        23320           0.0000000000
     68904     22968  TIP3      H2            -17.4760366405      -26.9243422861       32.8916803535  W2        23320           0.0000000000
     68905     22969  TIP3      OH2           -21.9046866405      -26.3029522861       26.3596703535  W2        23321           0.0000000000
     68906     22969  TIP3      H1            -22.6365866405      -26.0745822861       26.9327303535  W2        23321           0.0000000000
     68907     22969  TIP3      H2            -21.4574666405      -27.0166822861       26.8144203535  W2        23321           0.0000000000
     68908     22970  TIP3      OH2           -22.0073366405      -28.1286922861       35.4273703535  W2        23322           0.0000000000
     68909     22970  TIP3      H1            -21.9274266405      -27.3652522861       35.9992203535  W2        23322           0.0000000000
     68910     22970  TIP3      H2            -22.6085666405      -27.8494522861       34.7368803535  W2        23322           0.0000000000
     68911     22971  TIP3      OH2           -30.2593166405      -25.6723322861       28.2421703535  W2        23323           0.0000000000
     68912     22971  TIP3      H1            -30.5897966405      -26.0429922861       27.4238703535  W2        23323           0.0000000000
     68913     22971  TIP3      H2            -29.6709066405      -26.3429322861       28.5890003535  W2        23323           0.0000000000
     68914     22972  TIP3      OH2           -28.8925666405      -22.2442722861       30.9233903535  W2        23324           0.0000000000
     68915     22972  TIP3      H1            -28.9874366405      -22.8229622861       30.1668503535  W2        23324           0.0000000000
     68916     22972  TIP3      H2            -28.1632066405      -22.6157022861       31.4196703535  W2        23324           0.0000000000
     68917     22973  TIP3      OH2           -29.8927666405      -26.9037722861       31.8756703535  W2        23325           0.0000000000
     68918     22973  TIP3      H1            -29.3275166405      -26.7823522861       31.1127903535  W2        23325           0.0000000000
     68919     22973  TIP3      H2            -29.5738766405      -26.2662722861       32.5145203535  W2        23325           0.0000000000
     68920     22974  TIP3      OH2           -23.5835466405      -21.4005822861       32.6097203535  W2        23326           0.0000000000
     68921     22974  TIP3      H1            -23.8238866405      -20.7382722861       33.2576403535  W2        23326           0.0000000000
     68922     22974  TIP3      H2            -23.7817266405      -22.2350622861       33.0346803535  W2        23326           0.0000000000
     68923     22975  TIP3      OH2           -23.0337366405      -27.1406622861       24.0447903535  W2        23328           0.0000000000
     68924     22975  TIP3      H1            -22.4541866405      -26.9906322861       24.7916803535  W2        23328           0.0000000000
     68925     22975  TIP3      H2            -22.6197366405      -26.6699222861       23.3214303535  W2        23328           0.0000000000
     68926     22976  TIP3      OH2           -25.3072466405      -20.4038122861       27.4801003535  W2        23330           0.0000000000
     68927     22976  TIP3      H1            -24.8334866405      -20.1081822861       28.2575203535  W2        23330           0.0000000000
     68928     22976  TIP3      H2            -25.8703166405      -19.6656522861       27.2470603535  W2        23330           0.0000000000
     68929     22977  TIP3      OH2           -19.3348966405      -35.3906222861       23.8577603535  W2        23332           0.0000000000
     68930     22977  TIP3      H1            -20.2348266405      -35.2517222861       24.1528203535  W2        23332           0.0000000000
     68931     22977  TIP3      H2            -19.0830566405      -34.5591622861       23.4559303535  W2        23332           0.0000000000
     68932     22978  TIP3      OH2           -31.2690466405      -26.6029022861       25.8314503535  W2        23333           0.0000000000
     68933     22978  TIP3      H1            -31.5609166405      -25.8347322861       25.3405803535  W2        23333           0.0000000000
     68934     22978  TIP3      H2            -31.9435266405      -27.2622822861       25.6685903535  W2        23333           0.0000000000
     68935     22979  TIP3      OH2           -18.1457566405      -21.0243822861       22.2341503535  W2        23334           0.0000000000
     68936     22979  TIP3      H1            -18.0724066405      -20.0853622861       22.4046803535  W2        23334           0.0000000000
     68937     22979  TIP3      H2            -17.2402466405      -21.3295222861       22.1778803535  W2        23334           0.0000000000
     68938     22980  TIP3      OH2           -35.1760366405      -24.2399822861       34.6464303535  W2        23335           0.0000000000
     68939     22980  TIP3      H1            -35.6771966405      -24.2680422861       33.8314003535  W2        23335           0.0000000000
     68940     22980  TIP3      H2            -35.1706666405      -25.1456622861       34.9561603535  W2        23335           0.0000000000
     68941     22981  TIP3      OH2           -35.4257666405      -21.4596022861       31.5304503535  W2        23336           0.0000000000
     68942     22981  TIP3      H1            -34.4797066405      -21.6039022861       31.5114003535  W2        23336           0.0000000000
     68943     22981  TIP3      H2            -35.5381366405      -20.6753222861       32.0675703535  W2        23336           0.0000000000
     68944     22982  TIP3      OH2           -25.8349366405      -17.4473422861       25.8950203535  W2        23339           0.0000000000
     68945     22982  TIP3      H1            -25.9103366405      -17.5686222861       24.9485403535  W2        23339           0.0000000000
     68946     22982  TIP3      H2            -25.8020666405      -16.4980722861       26.0134803535  W2        23339           0.0000000000
     68947     22983  TIP3      OH2           -32.1815566405      -18.6586422861       27.6759203535  W2        23340           0.0000000000
     68948     22983  TIP3      H1            -32.0295166405      -19.0066022861       28.5545703535  W2        23340           0.0000000000
     68949     22983  TIP3      H2            -33.0325166405      -19.0149122861       27.4206403535  W2        23340           0.0000000000
     68950     22984  TIP3      OH2           -22.7333366405      -18.2933222861       22.8972603535  W2        23341           0.0000000000
     68951     22984  TIP3      H1            -22.3584966405      -19.0377122861       22.4265203535  W2        23341           0.0000000000
     68952     22984  TIP3      H2            -22.7289666405      -18.5632622861       23.8155903535  W2        23341           0.0000000000
     68953     22985  TIP3      OH2           -23.0645266405      -18.3676122861       25.6464803535  W2        23342           0.0000000000
     68954     22985  TIP3      H1            -23.9995466405      -18.2674222861       25.8251803535  W2        23342           0.0000000000
     68955     22985  TIP3      H2            -22.7843366405      -19.0770122861       26.2248003535  W2        23342           0.0000000000
     68956     22986  TIP3      OH2           -30.3081866405      -34.4463922861       31.6851303535  W2        23345           0.0000000000
     68957     22986  TIP3      H1            -31.1698166405      -34.5335722861       31.2774203535  W2        23345           0.0000000000
     68958     22986  TIP3      H2            -30.3306166405      -33.5903822861       32.1128903535  W2        23345           0.0000000000
     68959     22987  TIP3      OH2           -25.6454066405      -34.7243522861       35.0598303535  W2        23346           0.0000000000
     68960     22987  TIP3      H1            -25.2250966405      -35.1396422861       35.8128903535  W2        23346           0.0000000000
     68961     22987  TIP3      H2            -26.5784466405      -34.9030222861       35.1770303535  W2        23346           0.0000000000
     68962     22988  TIP3      OH2           -21.5564266405      -26.1078322861       21.6745803535  W2        23348           0.0000000000
     68963     22988  TIP3      H1            -21.5143466405      -26.3304422861       20.7445803535  W2        23348           0.0000000000
     68964     22988  TIP3      H2            -20.7072166405      -25.7091222861       21.8645703535  W2        23348           0.0000000000
     68965     22989  TIP3      OH2           -25.9836766405      -32.2320122861       22.3449103535  W2        23349           0.0000000000
     68966     22989  TIP3      H1            -26.2371966405      -32.2128522861       23.2677203535  W2        23349           0.0000000000
     68967     22989  TIP3      H2            -26.2404666405      -33.1034722861       22.0435303535  W2        23349           0.0000000000
     68968     22990  TIP3      OH2           -30.2171766405      -29.4809422861       32.7801503535  W2        23350           0.0000000000
     68969     22990  TIP3      H1            -30.8589666405      -29.5212122861       33.4891603535  W2        23350           0.0000000000
     68970     22990  TIP3      H2            -30.1799766405      -28.5544722861       32.5424503535  W2        23350           0.0000000000
     68971     22991  TIP3      OH2           -30.2202666405      -29.2599322861       27.6921503535  W2        23351           0.0000000000
     68972     22991  TIP3      H1            -31.1129766405      -29.6003222861       27.6335303535  W2        23351           0.0000000000
     68973     22991  TIP3      H2            -29.7696066405      -29.6368422861       26.9364703535  W2        23351           0.0000000000
     68974     22992  TIP3      OH2           -24.6847166405      -28.8439022861       26.5092303535  W2        23352           0.0000000000
     68975     22992  TIP3      H1            -25.0936866405      -28.0290422861       26.2177103535  W2        23352           0.0000000000
     68976     22992  TIP3      H2            -23.9640966405      -28.9838922861       25.8949403535  W2        23352           0.0000000000
     68977     22993  TIP3      OH2           -23.6799466405      -29.3978622861       29.3232003535  W2        23354           0.0000000000
     68978     22993  TIP3      H1            -23.8754966405      -28.7921822861       28.6082603535  W2        23354           0.0000000000
     68979     22993  TIP3      H2            -23.4986866405      -30.2313422861       28.8888303535  W2        23354           0.0000000000
     68980     22994  TIP3      OH2           -32.4671266405      -29.1605922861       34.6473503535  W2        23355           0.0000000000
     68981     22994  TIP3      H1            -32.5051866405      -28.7604322861       35.5160603535  W2        23355           0.0000000000
     68982     22994  TIP3      H2            -32.9580166405      -29.9773522861       34.7376403535  W2        23355           0.0000000000
     68983     22995  TIP3      OH2           -29.1013866405      -31.7863622861       21.4459503535  W2        23356           0.0000000000
     68984     22995  TIP3      H1            -29.5323166405      -32.2313522861       22.1756903535  W2        23356           0.0000000000
     68985     22995  TIP3      H2            -29.8195166405      -31.4147322861       20.9337003535  W2        23356           0.0000000000
     68986     22996  TIP3      OH2           -35.8590466405      -32.0444122861       28.4978203535  W2        23357           0.0000000000
     68987     22996  TIP3      H1            -35.2282766405      -32.0732022861       29.2172103535  W2        23357           0.0000000000
     68988     22996  TIP3      H2            -35.4096166405      -32.4695422861       27.7674103535  W2        23357           0.0000000000
     68989     22997  TIP3      OH2           -34.5848366405      -31.2982122861       23.9218603535  W2        23358           0.0000000000
     68990     22997  TIP3      H1            -34.1106666405      -30.7072222861       23.3369503535  W2        23358           0.0000000000
     68991     22997  TIP3      H2            -35.3021966405      -30.7679222861       24.2688703535  W2        23358           0.0000000000
     68992     22998  TIP3      OH2           -24.4160266405      -27.7597322861       33.9944403535  W2        23359           0.0000000000
     68993     22998  TIP3      H1            -24.0925466405      -28.3907622861       33.3514903535  W2        23359           0.0000000000
     68994     22998  TIP3      H2            -24.8560966405      -28.2945122861       34.6551803535  W2        23359           0.0000000000
     68995     22999  TIP3      OH2           -27.6387366405      -31.8321822861       28.7785603535  W2        23360           0.0000000000
     68996     22999  TIP3      H1            -28.5496266405      -31.7755022861       29.0671603535  W2        23360           0.0000000000
     68997     22999  TIP3      H2            -27.1334466405      -31.8926322861       29.5892803535  W2        23360           0.0000000000
     68998     23000  TIP3      OH2           -32.8103966405      -30.2035522861       27.6053203535  W2        23361           0.0000000000
     68999     23000  TIP3      H1            -33.6995966405      -30.1040022861       27.2652803535  W2        23361           0.0000000000
     69000     23000  TIP3      H2            -32.5139066405      -31.0452522861       27.2591103535  W2        23361           0.0000000000
     69001     23001  TIP3      OH2           -29.1572166405      -30.2032922861       25.2617803535  W2        23362           0.0000000000
     69002     23001  TIP3      H1            -28.2256666405      -30.0742922861       25.4400903535  W2        23362           0.0000000000
     69003     23001  TIP3      H2            -29.3721866405      -29.5338622861       24.6122503535  W2        23362           0.0000000000
     69004     23002  TIP3      OH2           -23.2335466405      -32.5975522861       32.0427403535  W2        23363           0.0000000000
     69005     23002  TIP3      H1            -23.9103866405      -32.4662422861       32.7067103535  W2        23363           0.0000000000
     69006     23002  TIP3      H2            -23.7190566405      -32.7526022861       31.2325103535  W2        23363           0.0000000000
     69007     23003  TIP3      OH2           -30.4831966405      -29.0090722861       22.8283903535  W2        23364           0.0000000000
     69008     23003  TIP3      H1            -31.0256866405      -29.3886922861       22.1371503535  W2        23364           0.0000000000
     69009     23003  TIP3      H2            -29.6497066405      -28.8146022861       22.3998003535  W2        23364           0.0000000000
     69010     23004  TIP3      OH2           -26.3187666405      -29.0448822861       30.6655203535  W2        23367           0.0000000000
     69011     23004  TIP3      H1            -25.7544266405      -29.5912222861       30.1184803535  W2        23367           0.0000000000
     69012     23004  TIP3      H2            -26.4664266405      -29.5666922861       31.4542803535  W2        23367           0.0000000000
     69013     23005  TIP3      OH2           -31.3167966405      -32.9082722861       27.0840003535  W2        23368           0.0000000000
     69014     23005  TIP3      H1            -31.6338466405      -33.8107422861       27.0485403535  W2        23368           0.0000000000
     69015     23005  TIP3      H2            -30.5353866405      -32.9065322861       26.5311603535  W2        23368           0.0000000000
     69016     23006  TIP3      OH2           -27.6921766405      -30.6562722861       33.0795603535  W2        23369           0.0000000000
     69017     23006  TIP3      H1            -28.5276466405      -30.2023222861       33.1898003535  W2        23369           0.0000000000
     69018     23006  TIP3      H2            -27.1681166405      -30.3804222861       33.8315503535  W2        23369           0.0000000000
     69019     23007  TIP3      OH2           -27.1479166405      -24.4435022861       24.7642003535  W2        23370           0.0000000000
     69020     23007  TIP3      H1            -27.8928166405      -24.9509722861       24.4419903535  W2        23370           0.0000000000
     69021     23007  TIP3      H2            -27.2821966405      -24.3947022861       25.7106803535  W2        23370           0.0000000000
     69022     23008  TIP3      OH2           -19.9980266405      -25.3106822861       33.5509603535  W2        23371           0.0000000000
     69023     23008  TIP3      H1            -19.3561466405      -24.8540522861       33.0071803535  W2        23371           0.0000000000
     69024     23008  TIP3      H2            -20.8283366405      -25.1974422861       33.0883703535  W2        23371           0.0000000000
     69025     23009  TIP3      OH2           -23.2502366405      -31.6295122861       22.9634603535  W2        23372           0.0000000000
     69026     23009  TIP3      H1            -24.1888166405      -31.5179522861       22.8123403535  W2        23372           0.0000000000
     69027     23009  TIP3      H2            -22.9530266405      -30.7728222861       23.2700303535  W2        23372           0.0000000000
     69028     23010  TIP3      OH2           -22.5318866405      -29.7622422861       24.6242003535  W2        23374           0.0000000000
     69029     23010  TIP3      H1            -21.6399866405      -29.8997422861       24.9433203535  W2        23374           0.0000000000
     69030     23010  TIP3      H2            -22.4755266405      -28.9716322861       24.0875503535  W2        23374           0.0000000000
     69031     23011  TIP3      OH2           -32.0230866405      -25.1485022861       30.5339903535  W2        23375           0.0000000000
     69032     23011  TIP3      H1            -31.2783666405      -25.1509322861       29.9326403535  W2        23375           0.0000000000
     69033     23011  TIP3      H2            -31.9454266405      -25.9721222861       31.0155003535  W2        23375           0.0000000000
     69034     23012  TIP3      OH2           -25.0225066405      -22.9850722861       23.7896603535  W2        23376           0.0000000000
     69035     23012  TIP3      H1            -25.3176666405      -22.1582822861       24.1711403535  W2        23376           0.0000000000
     69036     23012  TIP3      H2            -25.7255066405      -23.6043822861       23.9858003535  W2        23376           0.0000000000
     69037     23013  TIP3      OH2           -17.6470166405      -29.5528322861       24.3188703535  W2        23380           0.0000000000
     69038     23013  TIP3      H1            -18.2013866405      -29.9490322861       23.6466203535  W2        23380           0.0000000000
     69039     23013  TIP3      H2            -17.5466566405      -28.6423122861       24.0412003535  W2        23380           0.0000000000
     69040     23014  TIP3      OH2           -19.3518466405      -20.7667922861       24.7840803535  W2        23382           0.0000000000
     69041     23014  TIP3      H1            -19.7247366405      -21.5924122861       25.0931403535  W2        23382           0.0000000000
     69042     23014  TIP3      H2            -19.0744966405      -20.9498522861       23.8864203535  W2        23382           0.0000000000
     69043     23015  TIP3      OH2           -22.1914566405      -25.9588422861       31.8052703535  W2        23383           0.0000000000
     69044     23015  TIP3      H1            -23.1197666405      -26.1906522861       31.7782003535  W2        23383           0.0000000000
     69045     23015  TIP3      H2            -21.7403466405      -26.7358622861       31.4751503535  W2        23383           0.0000000000
     69046     23016  TIP3      OH2           -29.6481466405      -21.6306822861       27.9381403535  W2        23384           0.0000000000
     69047     23016  TIP3      H1            -29.1209266405      -20.8572422861       27.7380203535  W2        23384           0.0000000000
     69048     23016  TIP3      H2            -30.5282966405      -21.4057622861       27.6365403535  W2        23384           0.0000000000
     69049     23017  TIP3      OH2           -33.8933766405      -26.7682722861       22.5253803535  W2        23385           0.0000000000
     69050     23017  TIP3      H1            -33.2773866405      -26.1415522861       22.9048603535  W2        23385           0.0000000000
     69051     23017  TIP3      H2            -34.7551166405      -26.4522922861       22.7970303535  W2        23385           0.0000000000
     69052     23018  TIP3      OH2           -28.2209166405      -23.9676922861       27.5145703535  W2        23386           0.0000000000
     69053     23018  TIP3      H1            -28.4619166405      -23.0422522861       27.5561003535  W2        23386           0.0000000000
     69054     23018  TIP3      H2            -28.9615566405      -24.4265622861       27.9109603535  W2        23386           0.0000000000
     69055     23019  TIP3      OH2           -27.7062566405      -19.8183322861       33.8296803535  W2        23387           0.0000000000
     69056     23019  TIP3      H1            -27.3437866405      -18.9637722861       33.5961203535  W2        23387           0.0000000000
     69057     23019  TIP3      H2            -27.1747366405      -20.1101722861       34.5703103535  W2        23387           0.0000000000
     69058     23020  TIP3      OH2           -29.5378366405      -18.9459322861       27.0597903535  W2        23388           0.0000000000
     69059     23020  TIP3      H1            -30.4877866405      -18.8401922861       27.1111203535  W2        23388           0.0000000000
     69060     23020  TIP3      H2            -29.1860266405      -18.1251922861       27.4045403535  W2        23388           0.0000000000
     69061     23021  TIP3      OH2           -24.1621766405      -23.7192622861       33.5302403535  W2        23389           0.0000000000
     69062     23021  TIP3      H1            -24.5880466405      -23.9470922861       34.3566403535  W2        23389           0.0000000000
     69063     23021  TIP3      H2            -23.5815966405      -24.4580822861       33.3477703535  W2        23389           0.0000000000
     69064     23022  TIP3      OH2           -21.9592866405      -22.7902122861       22.6041403535  W2        23390           0.0000000000
     69065     23022  TIP3      H1            -21.6059766405      -23.1702322861       23.4084903535  W2        23390           0.0000000000
     69066     23022  TIP3      H2            -22.9079366405      -22.8837322861       22.6910703535  W2        23390           0.0000000000
     69067     23023  TIP3      OH2           -17.4558466405      -18.3109622861       22.8051603535  W2        23392           0.0000000000
     69068     23023  TIP3      H1            -16.7120566405      -17.7249122861       22.6653203535  W2        23392           0.0000000000
     69069     23023  TIP3      H2            -18.1500366405      -17.7423822861       23.1384003535  W2        23392           0.0000000000
     69070     23024  TIP3      OH2           -33.3811666405      -31.9345422861       35.4069803535  W2        23393           0.0000000000
     69071     23024  TIP3      H1            -34.2739366405      -31.5960022861       35.3393803535  W2        23393           0.0000000000
     69072     23024  TIP3      H2            -33.4798866405      -32.7899322861       35.8250603535  W2        23393           0.0000000000
     69073     23025  TIP3      OH2           -21.0933566405      -24.1180122861       24.8309303535  W2        23394           0.0000000000
     69074     23025  TIP3      H1            -21.3705966405      -24.8460822861       25.3870403535  W2        23394           0.0000000000
     69075     23025  TIP3      H2            -20.1660566405      -23.9988122861       25.0361903535  W2        23394           0.0000000000
     69076     23026  TIP3      OH2           -33.7299666405      -20.1301022861       33.8419203535  W2        23395           0.0000000000
     69077     23026  TIP3      H1            -33.5129366405      -21.0618622861       33.8108903535  W2        23395           0.0000000000
     69078     23026  TIP3      H2            -33.4836166405      -19.8556022861       34.7252003535  W2        23395           0.0000000000
     69079     23027  TIP3      OH2           -27.8685066405      -21.6786022861       21.0511403535  W2        23396           0.0000000000
     69080     23027  TIP3      H1            -27.6295266405      -22.4267922861       20.5040303535  W2        23396           0.0000000000
     69081     23027  TIP3      H2            -28.1373766405      -22.0664322861       21.8839203535  W2        23396           0.0000000000
     69082     23028  TIP3      OH2           -28.9314466405      -22.1082222861       23.5074003535  W2        23397           0.0000000000
     69083     23028  TIP3      H1            -28.7846466405      -22.6282422861       24.2974903535  W2        23397           0.0000000000
     69084     23028  TIP3      H2            -28.9342766405      -21.2014622861       23.8139903535  W2        23397           0.0000000000
     69085     23029  TIP3      OH2           -32.4783366405      -24.8558922861       24.0179403535  W2        23398           0.0000000000
     69086     23029  TIP3      H1            -33.1644066405      -24.5036422861       24.5849103535  W2        23398           0.0000000000
     69087     23029  TIP3      H2            -31.9555466405      -24.0929322861       23.7713703535  W2        23398           0.0000000000
     69088     23030  TIP3      OH2           -24.6468266405      -32.1935122861       34.2968403535  W2        23399           0.0000000000
     69089     23030  TIP3      H1            -23.9480366405      -32.1196422861       34.9468103535  W2        23399           0.0000000000
     69090     23030  TIP3      H2            -25.0276866405      -33.0580122861       34.4511303535  W2        23399           0.0000000000
     69091     23031  TIP3      OH2           -23.8623366405      -32.5413422861       25.3940703535  W2        23400           0.0000000000
     69092     23031  TIP3      H1            -23.6425066405      -32.0698022861       24.5906103535  W2        23400           0.0000000000
     69093     23031  TIP3      H2            -23.3039366405      -32.1470822861       26.0641303535  W2        23400           0.0000000000
     69094     23032  TIP3      OH2           -26.1937266405      -20.4108622861       24.2568203535  W2        23401           0.0000000000
     69095     23032  TIP3      H1            -27.0101166405      -19.9138922861       24.3092503535  W2        23401           0.0000000000
     69096     23032  TIP3      H2            -25.6640966405      -19.9355122861       23.6167003535  W2        23401           0.0000000000
     69097     23033  TIP3      OH2           -26.6623466405      -30.8134622861       26.2289103535  W2        23402           0.0000000000
     69098     23033  TIP3      H1            -25.8500866405      -30.3091422861       26.2750803535  W2        23402           0.0000000000
     69099     23033  TIP3      H2            -26.9070466405      -30.9584922861       27.1428703535  W2        23402           0.0000000000
     69100     23034  TIP3      OH2           -26.1267066405      -29.8271922861       35.4135703535  W2        23403           0.0000000000
     69101     23034  TIP3      H1            -26.0076766405      -29.2536522861       36.1706103535  W2        23403           0.0000000000
     69102     23034  TIP3      H2            -25.4712466405      -30.5152522861       35.5283503535  W2        23403           0.0000000000
     69103     23035  TIP3      OH2           -25.7786766405      -33.7321622861       27.1670203535  W2        23404           0.0000000000
     69104     23035  TIP3      H1            -26.1253266405      -33.1151022861       27.8114503535  W2        23404           0.0000000000
     69105     23035  TIP3      H2            -25.1199866405      -33.2315922861       26.6855703535  W2        23404           0.0000000000
     69106     23036  TIP3      OH2           -28.8554166405      -19.3671422861       24.2385103535  W2        23405           0.0000000000
     69107     23036  TIP3      H1            -28.6945466405      -18.5673922861       23.7377703535  W2        23405           0.0000000000
     69108     23036  TIP3      H2            -29.0526366405      -19.0605422861       25.1235703535  W2        23405           0.0000000000
     69109     23037  TIP3      OH2           -30.1209766405      -32.6692222861       23.8542703535  W2        23406           0.0000000000
     69110     23037  TIP3      H1            -30.2044966405      -31.7809122861       24.2009103535  W2        23406           0.0000000000
     69111     23037  TIP3      H2            -29.2309466405      -32.9345522861       24.0859503535  W2        23406           0.0000000000
     69112     23038  TIP3      OH2           -21.3200266405      -28.1700622861       30.3442703535  W2        23408           0.0000000000
     69113     23038  TIP3      H1            -22.1175866405      -28.5850422861       30.0157703535  W2        23408           0.0000000000
     69114     23038  TIP3      H2            -20.8749166405      -28.8606922861       30.8353203535  W2        23408           0.0000000000
     69115     23039  TIP3      OH2           -31.8624466405      -22.2420022861       22.9147203535  W2        23409           0.0000000000
     69116     23039  TIP3      H1            -31.2702966405      -21.5425222861       23.1909603535  W2        23409           0.0000000000
     69117     23039  TIP3      H2            -31.4031466405      -22.6750522861       22.1951803535  W2        23409           0.0000000000
     69118     23040  TIP3      OH2           -33.5465266405      -29.5777022861       22.0306603535  W2        23410           0.0000000000
     69119     23040  TIP3      H1            -33.5912666405      -28.6383922861       22.2093603535  W2        23410           0.0000000000
     69120     23040  TIP3      H2            -34.4342066405      -29.8132122861       21.7608703535  W2        23410           0.0000000000
     69121     23041  TIP3      OH2           -20.2335666405      -18.9138122861       31.9666203535  W2        23411           0.0000000000
     69122     23041  TIP3      H1            -20.3891366405      -18.2353722861       31.3095503535  W2        23411           0.0000000000
     69123     23041  TIP3      H2            -19.3009266405      -18.8418822861       32.1696803535  W2        23411           0.0000000000
     69124     23042  TIP3      OH2           -32.7383266405      -34.7960422861       30.7037603535  W2        23412           0.0000000000
     69125     23042  TIP3      H1            -32.9673466405      -34.7367922861       29.7762603535  W2        23412           0.0000000000
     69126     23042  TIP3      H2            -33.1809866405      -35.5874922861       31.0101703535  W2        23412           0.0000000000
     69127     23043  TIP3      OH2           -33.8079966405      -20.8553322861       26.8643403535  W2        23413           0.0000000000
     69128     23043  TIP3      H1            -34.6401366405      -20.3830622861       26.8914803535  W2        23413           0.0000000000
     69129     23043  TIP3      H2            -33.2621666405      -20.3455722861       26.2656503535  W2        23413           0.0000000000
     69130     23044  TIP3      OH2           -25.8303266405      -19.8154622861       21.1897403535  W2        23416           0.0000000000
     69131     23044  TIP3      H1            -26.4742266405      -20.4466022861       21.5111103535  W2        23416           0.0000000000
     69132     23044  TIP3      H2            -25.0684966405      -20.3466622861       20.9580903535  W2        23416           0.0000000000
     69133     23045  TIP3      OH2           -21.2260366405      -19.9984722861       21.4235403535  W2        23418           0.0000000000
     69134     23045  TIP3      H1            -20.9429966405      -20.7929522861       21.8762303535  W2        23418           0.0000000000
     69135     23045  TIP3      H2            -20.4862466405      -19.7653722861       20.8626503535  W2        23418           0.0000000000
     69136     23046  TIP3      OH2           -30.2713066405      -24.0889822861       21.2810303535  W2        23420           0.0000000000
     69137     23046  TIP3      H1            -30.2068966405      -24.8830222861       21.8116703535  W2        23420           0.0000000000
     69138     23046  TIP3      H2            -29.6183866405      -24.2077022861       20.5912303535  W2        23420           0.0000000000
     69139     23047  TIP3      OH2           -24.9189666405      -23.0418122861       21.0168303535  W2        23422           0.0000000000
     69140     23047  TIP3      H1            -25.1875566405      -22.8616022861       21.9177203535  W2        23422           0.0000000000
     69141     23047  TIP3      H2            -25.1254066405      -23.9671922861       20.8854103535  W2        23422           0.0000000000
     69142     23048  TIP3      OH2           -29.1219266405      -26.1163622861       23.5868303535  W2        23425           0.0000000000
     69143     23048  TIP3      H1            -29.5817266405      -26.6005322861       24.2726803535  W2        23425           0.0000000000
     69144     23048  TIP3      H2            -28.8670566405      -26.7848222861       22.9508803535  W2        23425           0.0000000000
     69145     23049  TIP3      OH2           -28.0508866405      -27.8731822861       21.8491503535  W2        23427           0.0000000000
     69146     23049  TIP3      H1            -28.2313866405      -28.0280622861       20.9219803535  W2        23427           0.0000000000
     69147     23049  TIP3      H2            -27.1008366405      -27.7653122861       21.8939403535  W2        23427           0.0000000000
     69148     23050  TIP3      OH2           -18.6610566405      -25.5187622861       21.2949603535  W2        23429           0.0000000000
     69149     23050  TIP3      H1            -18.9345766405      -25.9432122861       20.4817903535  W2        23429           0.0000000000
     69150     23050  TIP3      H2            -18.6216466405      -24.5873122861       21.0780003535  W2        23429           0.0000000000
     69151     23051  TIP3      OH2           -29.0810566405      -32.4989922861       34.5178403535  W2        23431           0.0000000000
     69152     23051  TIP3      H1            -28.5453066405      -32.0473222861       33.8657703535  W2        23431           0.0000000000
     69153     23051  TIP3      H2            -29.9330966405      -32.6070122861       34.0952503535  W2        23431           0.0000000000
     69154     23052  TIP3      OH2           -27.4992166405      -27.0593722861       34.7573603535  W2        23432           0.0000000000
     69155     23052  TIP3      H1            -26.7487366405      -27.2156222861       34.1841403535  W2        23432           0.0000000000
     69156     23052  TIP3      H2            -27.8383866405      -26.2077122861       34.4819103535  W2        23432           0.0000000000
     69157     23053  TIP3      OH2           -28.2755066405      -35.0424222861       34.9492003535  W2        23436           0.0000000000
     69158     23053  TIP3      H1            -28.3735466405      -34.0961022861       34.8438203535  W2        23436           0.0000000000
     69159     23053  TIP3      H2            -29.0178866405      -35.4150422861       34.4735503535  W2        23436           0.0000000000
     69160     23054  TIP3      OH2           -28.1537166405      -17.1828122861       22.8505103535  W2        23443           0.0000000000
     69161     23054  TIP3      H1            -27.2206466405      -17.0249422861       22.9943503535  W2        23443           0.0000000000
     69162     23054  TIP3      H2            -28.4178366405      -16.5075122861       22.2256603535  W2        23443           0.0000000000
     69163     23055  TIP3      OH2           -34.5852266405      -22.5464322861       22.3333203535  W2        23444           0.0000000000
     69164     23055  TIP3      H1            -33.6713066405      -22.4675422861       22.6067103535  W2        23444           0.0000000000
     69165     23055  TIP3      H2            -34.5779166405      -23.2334722861       21.6668803535  W2        23444           0.0000000000
     69166     23056  TIP3      OH2           -35.9361666405      -17.1535822861       27.4107103535  W2        23445           0.0000000000
     69167     23056  TIP3      H1            -36.5834566405      -17.6154122861       26.8778303535  W2        23445           0.0000000000
     69168     23056  TIP3      H2            -35.5817066405      -17.8252522861       27.9933303535  W2        23445           0.0000000000
     69169     23057  TIP3      OH2           -35.0662466405      -19.0728822861       29.2153303535  W2        23446           0.0000000000
     69170     23057  TIP3      H1            -35.4005666405      -19.9531522861       29.3873503535  W2        23446           0.0000000000
     69171     23057  TIP3      H2            -34.8440066405      -18.7273822861       30.0798903535  W2        23446           0.0000000000
     69172     23058  TIP3      OH2           -17.5177666405      -18.2632422861       32.1958103535  W2        23447           0.0000000000
     69173     23058  TIP3      H1            -17.5390966405      -18.0784022861       33.1347503535  W2        23447           0.0000000000
     69174     23058  TIP3      H2            -16.8271466405      -17.6948422861       31.8549503535  W2        23447           0.0000000000
     69175     23059  TIP3      OH2           -17.9544766405      -18.6961322861       35.1177203535  W2        23448           0.0000000000
     69176     23059  TIP3      H1            -18.4416066405      -19.4317222861       34.7464603535  W2        23448           0.0000000000
     69177     23059  TIP3      H2            -17.4052066405      -19.0897422861       35.7956603535  W2        23448           0.0000000000
     69178     23060  TIP3      OH2           -18.2027766405      -24.6499522861       25.2700003535  W2        23450           0.0000000000
     69179     23060  TIP3      H1            -17.3526366405      -24.2288622861       25.3971603535  W2        23450           0.0000000000
     69180     23060  TIP3      H2            -18.1972666405      -25.3899422861       25.8771403535  W2        23450           0.0000000000
     69181     23061  TIP3      OH2           -17.8082166405      -26.5962122861       27.0935703535  W2        23451           0.0000000000
     69182     23061  TIP3      H1            -18.5347566405      -27.0759522861       27.4913303535  W2        23451           0.0000000000
     69183     23061  TIP3      H2            -17.2268866405      -26.3907422861       27.8257303535  W2        23451           0.0000000000
     69184     23062  TIP3      OH2           -18.0490966405      -23.8114622861       32.0413303535  W2        23452           0.0000000000
     69185     23062  TIP3      H1            -17.2156766405      -24.1894622861       31.7606903535  W2        23452           0.0000000000
     69186     23062  TIP3      H2            -17.9370666405      -22.8683422861       31.9222403535  W2        23452           0.0000000000
     69187     23063  TIP3      OH2           -19.5628666405      -20.9337122861       34.3481703535  W2        23453           0.0000000000
     69188     23063  TIP3      H1            -20.2103366405      -20.6085622861       34.9736903535  W2        23453           0.0000000000
     69189     23063  TIP3      H2            -20.0804666405      -21.3739422861       33.6740003535  W2        23453           0.0000000000
     69190     23064  TIP3      OH2           -17.5399066405      -26.6953622861       23.4847003535  W2        23454           0.0000000000
     69191     23064  TIP3      H1            -18.0617966405      -26.3389522861       22.7657903535  W2        23454           0.0000000000
     69192     23064  TIP3      H2            -17.5729866405      -26.0205822861       24.1627903535  W2        23454           0.0000000000
     69193     23065  TIP3      OH2           -19.1910066405      -29.4558022861       22.0354103535  W2        23455           0.0000000000
     69194     23065  TIP3      H1            -19.0945666405      -28.7891022861       21.3553803535  W2        23455           0.0000000000
     69195     23065  TIP3      H2            -19.3310466405      -30.2711722861       21.5539603535  W2        23455           0.0000000000
     69196     23066  TIP3      OH2           -20.0215366405      -28.0755622861       27.6564403535  W2        23456           0.0000000000
     69197     23066  TIP3      H1            -20.1716566405      -29.0207022861       27.6362203535  W2        23456           0.0000000000
     69198     23066  TIP3      H2            -20.3750866405      -27.7944222861       28.5003503535  W2        23456           0.0000000000
     69199     23067  TIP3      OH2           -34.9862966405      -25.9973422861       31.6668203535  W2        23457           0.0000000000
     69200     23067  TIP3      H1            -34.8020066405      -26.0791722861       30.7311103535  W2        23457           0.0000000000
     69201     23067  TIP3      H2            -34.1370066405      -26.1216422861       32.0904603535  W2        23457           0.0000000000
     69202     23068  TIP3      OH2           -19.9436266405      -32.0478222861       21.1529603535  W2        23460           0.0000000000
     69203     23068  TIP3      H1            -19.3330466405      -32.4191422861       21.7897803535  W2        23460           0.0000000000
     69204     23068  TIP3      H2            -20.7804766405      -32.4691322861       21.3489603535  W2        23460           0.0000000000
     69205     23069  TIP3      OH2           -20.3110566405      -30.4929822861       26.1189503535  W2        23461           0.0000000000
     69206     23069  TIP3      H1            -20.0313466405      -31.3999422861       26.2431203535  W2        23461           0.0000000000
     69207     23069  TIP3      H2            -19.5518866405      -30.0588322861       25.7298703535  W2        23461           0.0000000000
     69208     23070  TIP3      OH2           -19.6992266405      -29.9112422861       31.5548403535  W2        23462           0.0000000000
     69209     23070  TIP3      H1            -18.7664266405      -29.6992522861       31.5204403535  W2        23462           0.0000000000
     69210     23070  TIP3      H2            -19.9344766405      -29.8100322861       32.4771403535  W2        23462           0.0000000000
     69211     23071  TIP3      OH2           -19.6700366405      -29.1747122861       34.3307803535  W2        23463           0.0000000000
     69212     23071  TIP3      H1            -20.5129066405      -28.9066722861       34.6967603535  W2        23463           0.0000000000
     69213     23071  TIP3      H2            -19.2276066405      -28.3525222861       34.1198903535  W2        23463           0.0000000000
     69214     23072  TIP3      OH2           -19.6975766405      -33.2300522861       26.1671503535  W2        23466           0.0000000000
     69215     23072  TIP3      H1            -19.5150766405      -33.6789022861       26.9926503535  W2        23466           0.0000000000
     69216     23072  TIP3      H2            -20.2972866405      -33.8146122861       25.7036103535  W2        23466           0.0000000000
     69217     23073  TIP3      OH2           -34.1675666405      -32.4146822861       30.6989903535  W2        23467           0.0000000000
     69218     23073  TIP3      H1            -33.7224066405      -33.2064322861       31.0009603535  W2        23467           0.0000000000
     69219     23073  TIP3      H2            -33.7012666405      -31.6981622861       31.1295503535  W2        23467           0.0000000000
     69220     23074  TIP3      OH2           -35.8635366405      -29.4153822861       31.7680103535  W2        23468           0.0000000000
     69221     23074  TIP3      H1            -35.3715566405      -29.6363322861       30.9772103535  W2        23468           0.0000000000
     69222     23074  TIP3      H2            -35.5014466405      -28.5750422861       32.0489603535  W2        23468           0.0000000000
     69223     23075  TIP3      OH2           -17.8309566405      -33.1622422861       22.6951803535  W2        23470           0.0000000000
     69224     23075  TIP3      H1            -17.4186966405      -33.8836722861       22.2199803535  W2        23470           0.0000000000
     69225     23075  TIP3      H2            -17.1493066405      -32.4927822861       22.7536103535  W2        23470           0.0000000000
     69226     23076  TIP3      OH2           -35.5498866405      -33.1574722861       25.8222503535  W2        23471           0.0000000000
     69227     23076  TIP3      H1            -36.4750466405      -32.9488122861       25.6928003535  W2        23471           0.0000000000
     69228     23076  TIP3      H2            -35.0958966405      -32.6733922861       25.1324803535  W2        23471           0.0000000000
     69229     23077  TIP3      OH2           -20.7791666405      -18.1733022861       27.7679903535  W2        23472           0.0000000000
     69230     23077  TIP3      H1            -20.1268766405      -18.5210922861       27.1599003535  W2        23472           0.0000000000
     69231     23077  TIP3      H2            -20.2687866405      -17.6849822861       28.4139603535  W2        23472           0.0000000000
     69232     23078  TIP3      OH2           -35.5863466405      -34.4195722861       34.1665003535  W2        23473           0.0000000000
     69233     23078  TIP3      H1            -36.2512966405      -34.6655422861       34.8095903535  W2        23473           0.0000000000
     69234     23078  TIP3      H2            -36.0292166405      -33.7975322861       33.5893003535  W2        23473           0.0000000000
     69235     23079  TIP3      OH2           -30.4401266405      -20.2700422861       34.5694803535  W2        23475           0.0000000000
     69236     23079  TIP3      H1            -30.8650166405      -19.4601922861       34.2869403535  W2        23475           0.0000000000
     69237     23079  TIP3      H2            -29.5358466405      -20.1846322861       34.2674603535  W2        23475           0.0000000000
     69238     23080  TIP3      OH2           -33.0384566405      -17.0136522861       34.6170103535  W2        23479           0.0000000000
     69239     23080  TIP3      H1            -33.7588166405      -16.5735522861       34.1657803535  W2        23479           0.0000000000
     69240     23080  TIP3      H2            -33.4040566405      -17.2641822861       35.4654103535  W2        23479           0.0000000000
     69241     23081  TIP3      OH2           -30.5711966405      -17.4132622861       33.6467303535  W2        23480           0.0000000000
     69242     23081  TIP3      H1            -31.4359766405      -17.3414122861       34.0507403535  W2        23480           0.0000000000
     69243     23081  TIP3      H2            -30.6262966405      -16.8665322861       32.8629803535  W2        23480           0.0000000000
     69244     23082  TIP3      OH2           -25.8606366405      -17.5253722861       32.8223303535  W2        23481           0.0000000000
     69245     23082  TIP3      H1            -26.3172366405      -16.9964022861       32.1681703535  W2        23481           0.0000000000
     69246     23082  TIP3      H2            -25.6978366405      -16.9222322861       33.5475603535  W2        23481           0.0000000000
     69247     23083  TIP3      OH2           -23.5330066405      -18.6474122861       33.7673603535  W2        23482           0.0000000000
     69248     23083  TIP3      H1            -24.4376366405      -18.4823922861       33.5015703535  W2        23482           0.0000000000
     69249     23083  TIP3      H2            -23.1041466405      -17.7941922861       33.7017003535  W2        23482           0.0000000000
     69250     23084  TIP3      OH2           -20.9288166405      -17.0775022861       34.0621403535  W2        23483           0.0000000000
     69251     23084  TIP3      H1            -21.1106166405      -16.1616122861       33.8516303535  W2        23483           0.0000000000
     69252     23084  TIP3      H2            -20.7520366405      -17.4877922861       33.2156003535  W2        23483           0.0000000000
     69253     23085  TIP3      OH2           -33.6236466405      -18.3904022861       31.5271903535  W2        23484           0.0000000000
     69254     23085  TIP3      H1            -33.6420466405      -18.8158922861       32.3844203535  W2        23484           0.0000000000
     69255     23085  TIP3      H2            -32.8188566405      -18.7089022861       31.1184103535  W2        23484           0.0000000000
     69256     23086  TIP3      OH2           -31.4823366405      -19.6805322861       30.1821803535  W2        23485           0.0000000000
     69257     23086  TIP3      H1            -31.7012666405      -20.5967922861       30.3517803535  W2        23485           0.0000000000
     69258     23086  TIP3      H2            -30.6581166405      -19.5404922861       30.6483203535  W2        23485           0.0000000000
     69259     23087  TIP3      OH2           -28.9450866405      -19.2106022861       31.0309803535  W2        23486           0.0000000000
     69260     23087  TIP3      H1            -28.7325166405      -20.0987022861       30.7440703535  W2        23486           0.0000000000
     69261     23087  TIP3      H2            -28.8805766405      -19.2448322861       31.9853803535  W2        23486           0.0000000000
     69262     23088  TIP3      OH2           -25.4367166405      -33.5465422861       30.1753103535  W2        23487           0.0000000000
     69263     23088  TIP3      H1            -26.1110366405      -34.1759822861       30.4308903535  W2        23487           0.0000000000
     69264     23088  TIP3      H2            -24.8727966405      -34.0306522861       29.5721003535  W2        23487           0.0000000000
     69265     23089  TIP3      OH2           -20.2939966405      -35.4391422861       30.2880203535  W2        23488           0.0000000000
     69266     23089  TIP3      H1            -19.6902366405      -34.8916022861       29.7861203535  W2        23488           0.0000000000
     69267     23089  TIP3      H2            -21.1637966405      -35.1201022861       30.0474303535  W2        23488           0.0000000000
     69268     23090  TIP3      OH2           -18.5669566405      -34.3002722861       28.6211103535  W2        23489           0.0000000000
     69269     23090  TIP3      H1            -17.9552066405      -34.8147022861       28.0944703535  W2        23489           0.0000000000
     69270     23090  TIP3      H2            -18.1846166405      -33.4230622861       28.6445503535  W2        23489           0.0000000000
     69271     23091  TIP3      OH2           -33.1099666405      -34.9125122861       27.9973003535  W2        23490           0.0000000000
     69272     23091  TIP3      H1            -33.8869866405      -35.1470222861       27.4898903535  W2        23490           0.0000000000
     69273     23091  TIP3      H2            -32.5796066405      -35.7093022861       28.0061003535  W2        23490           0.0000000000
     69274     23092  TIP3      OH2           -34.2736266405      -35.1147022861       23.8009103535  W2        23491           0.0000000000
     69275     23092  TIP3      H1            -33.8345566405      -34.5036522861       23.2092603535  W2        23491           0.0000000000
     69276     23092  TIP3      H2            -34.9073866405      -34.5762922861       24.2749103535  W2        23491           0.0000000000
     69277     23093  TIP3      OH2           -28.5307066405      -34.9858022861       27.8106103535  W2        23492           0.0000000000
     69278     23093  TIP3      H1            -27.6563666405      -34.5973722861       27.7810403535  W2        23492           0.0000000000
     69279     23093  TIP3      H2            -28.6666266405      -35.2010222861       28.7333303535  W2        23492           0.0000000000
     69280     23094  TIP3      OH2           -22.9738666405      -34.9558222861       29.4597803535  W2        23493           0.0000000000
     69281     23094  TIP3      H1            -22.8977066405      -34.8606622861       28.5103803535  W2        23493           0.0000000000
     69282     23094  TIP3      H2            -23.2489466405      -35.8635322861       29.5886903535  W2        23493           0.0000000000
     69283     23095  TIP3      OH2           -21.6206066405      -34.9300422861       25.1522803535  W2        23494           0.0000000000
     69284     23095  TIP3      H1            -22.3234966405      -34.3151222861       24.9424203535  W2        23494           0.0000000000
     69285     23095  TIP3      H2            -22.0654666405      -35.7673722861       25.2833703535  W2        23494           0.0000000000
     69286     23096  TIP3      OH2           -34.3726766405      -19.1664822861       24.6984203535  W2        23495           0.0000000000
     69287     23096  TIP3      H1            -35.0576866405      -19.2045922861       24.0309303535  W2        23495           0.0000000000
     69288     23096  TIP3      H2            -34.3689566405      -18.2537222861       24.9866303535  W2        23495           0.0000000000
     69289     23097  TIP3      OH2           -32.4127166405      -33.1985522861       22.2433203535  W2        23496           0.0000000000
     69290     23097  TIP3      H1            -31.9213766405      -33.8283122861       21.7158703535  W2        23496           0.0000000000
     69291     23097  TIP3      H2            -31.7890866405      -32.9026122861       22.9064403535  W2        23496           0.0000000000
     69292     23098  TIP3      OH2           -27.3867066405      -32.9054022861       24.7003703535  W2        23497           0.0000000000
     69293     23098  TIP3      H1            -27.2085766405      -33.5520822861       25.3832303535  W2        23497           0.0000000000
     69294     23098  TIP3      H2            -27.4400866405      -32.0716322861       25.1674803535  W2        23497           0.0000000000
     69295     23099  TIP3      OH2           -25.5083266405      -17.9569922861       23.0960403535  W2        23498           0.0000000000
     69296     23099  TIP3      H1            -24.6423066405      -17.5902522861       22.9178603535  W2        23498           0.0000000000
     69297     23099  TIP3      H2            -25.7550466405      -18.3961922861       22.2821203535  W2        23498           0.0000000000
     69298     23100  TIP3      OH2           -18.7993666405      -18.3939622861       25.7751503535  W2        23499           0.0000000000
     69299     23100  TIP3      H1            -18.9936566405      -19.1417522861       25.2101103535  W2        23499           0.0000000000
     69300     23100  TIP3      H2            -18.8383566405      -17.6359522861       25.1919403535  W2        23499           0.0000000000
     69301     23101  TIP3      OH2           -32.5545566405      -18.2464022861       21.7236303535  W2        23502           0.0000000000
     69302     23101  TIP3      H1            -32.8220966405      -17.9601122861       22.5969403535  W2        23502           0.0000000000
     69303     23101  TIP3      H2            -31.7832966405      -18.7924822861       21.8758803535  W2        23502           0.0000000000
     69304     23102  TIP3      OH2            -5.1757066405      -25.7562822861       27.9560503535  W2        23505           0.0000000000
     69305     23102  TIP3      H1             -5.0865966405      -24.8124622861       27.8237603535  W2        23505           0.0000000000
     69306     23102  TIP3      H2             -5.8139466405      -26.0316422861       27.2979903535  W2        23505           0.0000000000
     69307     23103  TIP3      OH2            -6.2425766405      -26.5012122861       31.3748703535  W2        23506           0.0000000000
     69308     23103  TIP3      H1             -6.2808266405      -27.1475822861       32.0798303535  W2        23506           0.0000000000
     69309     23103  TIP3      H2             -6.5649266405      -26.9677722861       30.6037403535  W2        23506           0.0000000000
     69310     23104  TIP3      OH2           -13.8740766405      -26.8870022861       32.9678603535  W2        23507           0.0000000000
     69311     23104  TIP3      H1            -13.8328666405      -27.5126722861       33.6911003535  W2        23507           0.0000000000
     69312     23104  TIP3      H2            -13.1713066405      -26.2631422861       33.1499003535  W2        23507           0.0000000000
     69313     23105  TIP3      OH2            -2.5365566405      -23.5621722861       29.6763803535  W2        23508           0.0000000000
     69314     23105  TIP3      H1             -2.9772866405      -24.2825722861       30.1269403535  W2        23508           0.0000000000
     69315     23105  TIP3      H2             -2.5495866405      -22.8414522861       30.3061503535  W2        23508           0.0000000000
     69316     23106  TIP3      OH2           -12.9507666405      -22.4371122861       31.5027703535  W2        23509           0.0000000000
     69317     23106  TIP3      H1            -13.3202466405      -23.2390622861       31.1332003535  W2        23509           0.0000000000
     69318     23106  TIP3      H2            -12.0096566405      -22.6056222861       31.5491103535  W2        23509           0.0000000000
     69319     23107  TIP3      OH2           -16.3407166405      -28.7768522861       26.8956503535  W2        23510           0.0000000000
     69320     23107  TIP3      H1            -16.7883766405      -27.9309822861       26.8773003535  W2        23510           0.0000000000
     69321     23107  TIP3      H2            -16.9015966405      -29.3564322861       26.3801603535  W2        23510           0.0000000000
     69322     23108  TIP3      OH2           -15.6301066405      -26.6148922861       29.0214503535  W2        23511           0.0000000000
     69323     23108  TIP3      H1            -15.4167566405      -27.3847322861       29.5487503535  W2        23511           0.0000000000
     69324     23108  TIP3      H2            -14.8923466405      -26.5252222861       28.4182103535  W2        23511           0.0000000000
     69325     23109  TIP3      OH2            -5.4250066405      -18.4580022861       29.8884203535  W2        23512           0.0000000000
     69326     23109  TIP3      H1             -4.8053666405      -19.1345322861       29.6153403535  W2        23512           0.0000000000
     69327     23109  TIP3      H2             -5.6332666405      -18.6759222861       30.7969103535  W2        23512           0.0000000000
     69328     23110  TIP3      OH2            -7.8531366405      -24.0690722861       31.7809703535  W2        23513           0.0000000000
     69329     23110  TIP3      H1             -7.5493466405      -24.7549322861       31.1863803535  W2        23513           0.0000000000
     69330     23110  TIP3      H2             -7.1317366405      -23.9502022861       32.3987703535  W2        23513           0.0000000000
     69331     23111  TIP3      OH2             0.8098433595      -32.4675422861       32.6415903535  W2        23514           0.0000000000
     69332     23111  TIP3      H1              0.8590633595      -31.8574222861       33.3775003535  W2        23514           0.0000000000
     69333     23111  TIP3      H2              1.2353533595      -32.0064522861       31.9187003535  W2        23514           0.0000000000
     69334     23112  TIP3      OH2            -4.7124366405      -29.6748322861       32.1084503535  W2        23515           0.0000000000
     69335     23112  TIP3      H1             -4.5698466405      -30.6211322861       32.1286103535  W2        23515           0.0000000000
     69336     23112  TIP3      H2             -4.8185366405      -29.4678522861       31.1799403535  W2        23515           0.0000000000
     69337     23113  TIP3      OH2           -11.5576066405      -31.5731922861       29.3809303535  W2        23516           0.0000000000
     69338     23113  TIP3      H1            -11.5144966405      -30.7133422861       28.9625603535  W2        23516           0.0000000000
     69339     23113  TIP3      H2            -12.0151966405      -32.1257222861       28.7472503535  W2        23516           0.0000000000
     69340     23114  TIP3      OH2            -3.8353366405      -31.4426322861       27.7817603535  W2        23517           0.0000000000
     69341     23114  TIP3      H1             -3.1889066405      -31.7713122861       28.4065203535  W2        23517           0.0000000000
     69342     23114  TIP3      H2             -3.3253966405      -30.9247322861       27.1589003535  W2        23517           0.0000000000
     69343     23115  TIP3      OH2           -14.9374566405      -29.1766122861       30.1430703535  W2        23518           0.0000000000
     69344     23115  TIP3      H1            -14.2837966405      -29.7264422861       30.5750803535  W2        23518           0.0000000000
     69345     23115  TIP3      H2            -14.9135266405      -29.4507122861       29.2262703535  W2        23518           0.0000000000
     69346     23116  TIP3      OH2            -9.7810066405      -27.6264822861       29.3582203535  W2        23519           0.0000000000
     69347     23116  TIP3      H1             -9.1649066405      -28.1529422861       29.8676203535  W2        23519           0.0000000000
     69348     23116  TIP3      H2            -10.3671266405      -28.2666122861       28.9545803535  W2        23519           0.0000000000
     69349     23117  TIP3      OH2             1.2013033595      -30.9896222861       34.8775703535  W2        23520           0.0000000000
     69350     23117  TIP3      H1              0.5127633595      -30.3315522861       34.7822303535  W2        23520           0.0000000000
     69351     23117  TIP3      H2              1.2167633595      -31.1868322861       35.8141103535  W2        23520           0.0000000000
     69352     23118  TIP3      OH2           -12.7474166405      -32.6553522861       33.4550103535  W2        23521           0.0000000000
     69353     23118  TIP3      H1            -12.9662466405      -32.1252922861       32.6886103535  W2        23521           0.0000000000
     69354     23118  TIP3      H2            -13.4153266405      -32.4288022861       34.1021503535  W2        23521           0.0000000000
     69355     23119  TIP3      OH2            -5.3784366405      -23.1552422861       26.9989203535  W2        23522           0.0000000000
     69356     23119  TIP3      H1             -5.6739266405      -23.4780122861       26.1476103535  W2        23522           0.0000000000
     69357     23119  TIP3      H2             -5.7026566405      -22.2555722861       27.0401803535  W2        23522           0.0000000000
     69358     23120  TIP3      OH2           -10.1782766405      -24.9797822861       33.7423803535  W2        23523           0.0000000000
     69359     23120  TIP3      H1            -10.9183666405      -24.3816322861       33.8459003535  W2        23523           0.0000000000
     69360     23120  TIP3      H2             -9.4643266405      -24.4258222861       33.4267403535  W2        23523           0.0000000000
     69361     23121  TIP3      OH2            -2.0714966405      -32.1517022861       29.7623503535  W2        23524           0.0000000000
     69362     23121  TIP3      H1             -2.2866966405      -32.9173622861       30.2949503535  W2        23524           0.0000000000
     69363     23121  TIP3      H2             -1.4157566405      -31.6792422861       30.2752003535  W2        23524           0.0000000000
     69364     23122  TIP3      OH2           -13.1536866405      -30.7631722861       31.4072303535  W2        23525           0.0000000000
     69365     23122  TIP3      H1            -12.5400566405      -30.1304122861       31.7804703535  W2        23525           0.0000000000
     69366     23122  TIP3      H2            -12.6416166405      -31.2356722861       30.7509203535  W2        23525           0.0000000000
     69367     23123  TIP3      OH2           -11.7708466405      -23.0154822861       34.5295303535  W2        23526           0.0000000000
     69368     23123  TIP3      H1            -11.7760866405      -22.1361322861       34.1514603535  W2        23526           0.0000000000
     69369     23123  TIP3      H2            -12.6244366405      -23.0990722861       34.9545203535  W2        23526           0.0000000000
     69370     23124  TIP3      OH2           -15.6497566405      -23.3446922861       25.3114603535  W2        23527           0.0000000000
     69371     23124  TIP3      H1            -15.9216666405      -23.1155922861       24.4227503535  W2        23527           0.0000000000
     69372     23124  TIP3      H2            -15.6041866405      -22.5068122861       25.7719903535  W2        23527           0.0000000000
     69373     23125  TIP3      OH2            -2.0247866405      -21.7231022861       32.0243103535  W2        23528           0.0000000000
     69374     23125  TIP3      H1             -2.9664166405      -21.6647122861       32.1860003535  W2        23528           0.0000000000
     69375     23125  TIP3      H2             -1.7481766405      -20.8170522861       31.8872803535  W2        23528           0.0000000000
     69376     23126  TIP3      OH2            -1.7240866405      -33.4365722861       33.4417003535  W2        23529           0.0000000000
     69377     23126  TIP3      H1             -2.4601666405      -32.8258622861       33.4038303535  W2        23529           0.0000000000
     69378     23126  TIP3      H2             -1.0406866405      -33.0216722861       32.9153403535  W2        23529           0.0000000000
     69379     23127  TIP3      OH2            -8.7209466405      -35.3498422861       30.9075003535  W2        23530           0.0000000000
     69380     23127  TIP3      H1             -8.8385266405      -36.2982422861       30.8533303535  W2        23530           0.0000000000
     69381     23127  TIP3      H2             -9.5759366405      -35.0172322861       31.1806103535  W2        23530           0.0000000000
     69382     23128  TIP3      OH2            -3.7726666405      -19.9417522861       28.6494703535  W2        23531           0.0000000000
     69383     23128  TIP3      H1             -3.3474366405      -20.6489622861       28.1644303535  W2        23531           0.0000000000
     69384     23128  TIP3      H2             -3.4556666405      -19.1404822861       28.2326903535  W2        23531           0.0000000000
     69385     23129  TIP3      OH2            -2.6130166405      -22.0409022861       27.1581303535  W2        23532           0.0000000000
     69386     23129  TIP3      H1             -2.8705366405      -22.7308922861       26.5467203535  W2        23532           0.0000000000
     69387     23129  TIP3      H2             -2.5419366405      -22.4837822861       28.0037203535  W2        23532           0.0000000000
     69388     23130  TIP3      OH2            -6.4544566405      -26.5122822861       25.4080803535  W2        23534           0.0000000000
     69389     23130  TIP3      H1             -7.1659066405      -25.9773122861       25.0561303535  W2        23534           0.0000000000
     69390     23130  TIP3      H2             -5.7634966405      -26.4570722861       24.7479703535  W2        23534           0.0000000000
     69391     23131  TIP3      OH2            -6.4005366405      -28.0548522861       22.4465803535  W2        23535           0.0000000000
     69392     23131  TIP3      H1             -5.6995466405      -28.0321622861       23.0979803535  W2        23535           0.0000000000
     69393     23131  TIP3      H2             -6.0982466405      -28.6828822861       21.7905103535  W2        23535           0.0000000000
     69394     23132  TIP3      OH2             0.9149333595      -27.1344322861       33.7015203535  W2        23536           0.0000000000
     69395     23132  TIP3      H1              0.2623433595      -26.4398722861       33.7906103535  W2        23536           0.0000000000
     69396     23132  TIP3      H2              1.3799633595      -26.9243422861       32.8916803535  W2        23536           0.0000000000
     69397     23133  TIP3      OH2            -3.0486866405      -26.3029522861       26.3596703535  W2        23537           0.0000000000
     69398     23133  TIP3      H1             -3.7805866405      -26.0745822861       26.9327303535  W2        23537           0.0000000000
     69399     23133  TIP3      H2             -2.6014666405      -27.0166822861       26.8144203535  W2        23537           0.0000000000
     69400     23134  TIP3      OH2            -3.1513366405      -28.1286922861       35.4273703535  W2        23538           0.0000000000
     69401     23134  TIP3      H1             -3.0714266405      -27.3652522861       35.9992203535  W2        23538           0.0000000000
     69402     23134  TIP3      H2             -3.7525666405      -27.8494522861       34.7368803535  W2        23538           0.0000000000
     69403     23135  TIP3      OH2           -11.4033166405      -25.6723322861       28.2421703535  W2        23539           0.0000000000
     69404     23135  TIP3      H1            -11.7337966405      -26.0429922861       27.4238703535  W2        23539           0.0000000000
     69405     23135  TIP3      H2            -10.8149066405      -26.3429322861       28.5890003535  W2        23539           0.0000000000
     69406     23136  TIP3      OH2           -10.0365666405      -22.2442722861       30.9233903535  W2        23540           0.0000000000
     69407     23136  TIP3      H1            -10.1314366405      -22.8229622861       30.1668503535  W2        23540           0.0000000000
     69408     23136  TIP3      H2             -9.3072066405      -22.6157022861       31.4196703535  W2        23540           0.0000000000
     69409     23137  TIP3      OH2           -11.0367666405      -26.9037722861       31.8756703535  W2        23541           0.0000000000
     69410     23137  TIP3      H1            -10.4715166405      -26.7823522861       31.1127903535  W2        23541           0.0000000000
     69411     23137  TIP3      H2            -10.7178766405      -26.2662722861       32.5145203535  W2        23541           0.0000000000
     69412     23138  TIP3      OH2            -4.7275466405      -21.4005822861       32.6097203535  W2        23542           0.0000000000
     69413     23138  TIP3      H1             -4.9678866405      -20.7382722861       33.2576403535  W2        23542           0.0000000000
     69414     23138  TIP3      H2             -4.9257266405      -22.2350622861       33.0346803535  W2        23542           0.0000000000
     69415     23139  TIP3      OH2            -4.1777366405      -27.1406622861       24.0447903535  W2        23544           0.0000000000
     69416     23139  TIP3      H1             -3.5981866405      -26.9906322861       24.7916803535  W2        23544           0.0000000000
     69417     23139  TIP3      H2             -3.7637366405      -26.6699222861       23.3214303535  W2        23544           0.0000000000
     69418     23140  TIP3      OH2            -6.4512466405      -20.4038122861       27.4801003535  W2        23546           0.0000000000
     69419     23140  TIP3      H1             -5.9774866405      -20.1081822861       28.2575203535  W2        23546           0.0000000000
     69420     23140  TIP3      H2             -7.0143166405      -19.6656522861       27.2470603535  W2        23546           0.0000000000
     69421     23141  TIP3      OH2            -0.4788966405      -35.3906222861       23.8577603535  W2        23548           0.0000000000
     69422     23141  TIP3      H1             -1.3788266405      -35.2517222861       24.1528203535  W2        23548           0.0000000000
     69423     23141  TIP3      H2             -0.2270566405      -34.5591622861       23.4559303535  W2        23548           0.0000000000
     69424     23142  TIP3      OH2           -12.4130466405      -26.6029022861       25.8314503535  W2        23549           0.0000000000
     69425     23142  TIP3      H1            -12.7049166405      -25.8347322861       25.3405803535  W2        23549           0.0000000000
     69426     23142  TIP3      H2            -13.0875266405      -27.2622822861       25.6685903535  W2        23549           0.0000000000
     69427     23143  TIP3      OH2             0.7102433595      -21.0243822861       22.2341503535  W2        23550           0.0000000000
     69428     23143  TIP3      H1              0.7835933595      -20.0853622861       22.4046803535  W2        23550           0.0000000000
     69429     23143  TIP3      H2              1.6157533595      -21.3295222861       22.1778803535  W2        23550           0.0000000000
     69430     23144  TIP3      OH2           -16.3200366405      -24.2399822861       34.6464303535  W2        23551           0.0000000000
     69431     23144  TIP3      H1            -16.8211966405      -24.2680422861       33.8314003535  W2        23551           0.0000000000
     69432     23144  TIP3      H2            -16.3146666405      -25.1456622861       34.9561603535  W2        23551           0.0000000000
     69433     23145  TIP3      OH2           -16.5697666405      -21.4596022861       31.5304503535  W2        23552           0.0000000000
     69434     23145  TIP3      H1            -15.6237066405      -21.6039022861       31.5114003535  W2        23552           0.0000000000
     69435     23145  TIP3      H2            -16.6821366405      -20.6753222861       32.0675703535  W2        23552           0.0000000000
     69436     23146  TIP3      OH2            -6.9789366405      -17.4473422861       25.8950203535  W2        23555           0.0000000000
     69437     23146  TIP3      H1             -7.0543366405      -17.5686222861       24.9485403535  W2        23555           0.0000000000
     69438     23146  TIP3      H2             -6.9460666405      -16.4980722861       26.0134803535  W2        23555           0.0000000000
     69439     23147  TIP3      OH2           -13.3255566405      -18.6586422861       27.6759203535  W2        23556           0.0000000000
     69440     23147  TIP3      H1            -13.1735166405      -19.0066022861       28.5545703535  W2        23556           0.0000000000
     69441     23147  TIP3      H2            -14.1765166405      -19.0149122861       27.4206403535  W2        23556           0.0000000000
     69442     23148  TIP3      OH2            -3.8773366405      -18.2933222861       22.8972603535  W2        23557           0.0000000000
     69443     23148  TIP3      H1             -3.5024966405      -19.0377122861       22.4265203535  W2        23557           0.0000000000
     69444     23148  TIP3      H2             -3.8729666405      -18.5632622861       23.8155903535  W2        23557           0.0000000000
     69445     23149  TIP3      OH2            -4.2085266405      -18.3676122861       25.6464803535  W2        23558           0.0000000000
     69446     23149  TIP3      H1             -5.1435466405      -18.2674222861       25.8251803535  W2        23558           0.0000000000
     69447     23149  TIP3      H2             -3.9283366405      -19.0770122861       26.2248003535  W2        23558           0.0000000000
     69448     23150  TIP3      OH2           -11.4521866405      -34.4463922861       31.6851303535  W2        23561           0.0000000000
     69449     23150  TIP3      H1            -12.3138166405      -34.5335722861       31.2774203535  W2        23561           0.0000000000
     69450     23150  TIP3      H2            -11.4746166405      -33.5903822861       32.1128903535  W2        23561           0.0000000000
     69451     23151  TIP3      OH2            -6.7894066405      -34.7243522861       35.0598303535  W2        23562           0.0000000000
     69452     23151  TIP3      H1             -6.3690966405      -35.1396422861       35.8128903535  W2        23562           0.0000000000
     69453     23151  TIP3      H2             -7.7224466405      -34.9030222861       35.1770303535  W2        23562           0.0000000000
     69454     23152  TIP3      OH2            -2.7004266405      -26.1078322861       21.6745803535  W2        23564           0.0000000000
     69455     23152  TIP3      H1             -2.6583466405      -26.3304422861       20.7445803535  W2        23564           0.0000000000
     69456     23152  TIP3      H2             -1.8512166405      -25.7091222861       21.8645703535  W2        23564           0.0000000000
     69457     23153  TIP3      OH2            -7.1276766405      -32.2320122861       22.3449103535  W2        23565           0.0000000000
     69458     23153  TIP3      H1             -7.3811966405      -32.2128522861       23.2677203535  W2        23565           0.0000000000
     69459     23153  TIP3      H2             -7.3844666405      -33.1034722861       22.0435303535  W2        23565           0.0000000000
     69460     23154  TIP3      OH2           -11.3611766405      -29.4809422861       32.7801503535  W2        23566           0.0000000000
     69461     23154  TIP3      H1            -12.0029666405      -29.5212122861       33.4891603535  W2        23566           0.0000000000
     69462     23154  TIP3      H2            -11.3239766405      -28.5544722861       32.5424503535  W2        23566           0.0000000000
     69463     23155  TIP3      OH2           -11.3642666405      -29.2599322861       27.6921503535  W2        23567           0.0000000000
     69464     23155  TIP3      H1            -12.2569766405      -29.6003222861       27.6335303535  W2        23567           0.0000000000
     69465     23155  TIP3      H2            -10.9136066405      -29.6368422861       26.9364703535  W2        23567           0.0000000000
     69466     23156  TIP3      OH2            -5.8287166405      -28.8439022861       26.5092303535  W2        23568           0.0000000000
     69467     23156  TIP3      H1             -6.2376866405      -28.0290422861       26.2177103535  W2        23568           0.0000000000
     69468     23156  TIP3      H2             -5.1080966405      -28.9838922861       25.8949403535  W2        23568           0.0000000000
     69469     23157  TIP3      OH2            -4.8239466405      -29.3978622861       29.3232003535  W2        23570           0.0000000000
     69470     23157  TIP3      H1             -5.0194966405      -28.7921822861       28.6082603535  W2        23570           0.0000000000
     69471     23157  TIP3      H2             -4.6426866405      -30.2313422861       28.8888303535  W2        23570           0.0000000000
     69472     23158  TIP3      OH2           -13.6111266405      -29.1605922861       34.6473503535  W2        23571           0.0000000000
     69473     23158  TIP3      H1            -13.6491866405      -28.7604322861       35.5160603535  W2        23571           0.0000000000
     69474     23158  TIP3      H2            -14.1020166405      -29.9773522861       34.7376403535  W2        23571           0.0000000000
     69475     23159  TIP3      OH2           -10.2453866405      -31.7863622861       21.4459503535  W2        23572           0.0000000000
     69476     23159  TIP3      H1            -10.6763166405      -32.2313522861       22.1756903535  W2        23572           0.0000000000
     69477     23159  TIP3      H2            -10.9635166405      -31.4147322861       20.9337003535  W2        23572           0.0000000000
     69478     23160  TIP3      OH2           -17.0030466405      -32.0444122861       28.4978203535  W2        23573           0.0000000000
     69479     23160  TIP3      H1            -16.3722766405      -32.0732022861       29.2172103535  W2        23573           0.0000000000
     69480     23160  TIP3      H2            -16.5536166405      -32.4695422861       27.7674103535  W2        23573           0.0000000000
     69481     23161  TIP3      OH2           -15.7288366405      -31.2982122861       23.9218603535  W2        23574           0.0000000000
     69482     23161  TIP3      H1            -15.2546666405      -30.7072222861       23.3369503535  W2        23574           0.0000000000
     69483     23161  TIP3      H2            -16.4461966405      -30.7679222861       24.2688703535  W2        23574           0.0000000000
     69484     23162  TIP3      OH2            -5.5600266405      -27.7597322861       33.9944403535  W2        23575           0.0000000000
     69485     23162  TIP3      H1             -5.2365466405      -28.3907622861       33.3514903535  W2        23575           0.0000000000
     69486     23162  TIP3      H2             -6.0000966405      -28.2945122861       34.6551803535  W2        23575           0.0000000000
     69487     23163  TIP3      OH2            -8.7827366405      -31.8321822861       28.7785603535  W2        23576           0.0000000000
     69488     23163  TIP3      H1             -9.6936266405      -31.7755022861       29.0671603535  W2        23576           0.0000000000
     69489     23163  TIP3      H2             -8.2774466405      -31.8926322861       29.5892803535  W2        23576           0.0000000000
     69490     23164  TIP3      OH2           -13.9543966405      -30.2035522861       27.6053203535  W2        23577           0.0000000000
     69491     23164  TIP3      H1            -14.8435966405      -30.1040022861       27.2652803535  W2        23577           0.0000000000
     69492     23164  TIP3      H2            -13.6579066405      -31.0452522861       27.2591103535  W2        23577           0.0000000000
     69493     23165  TIP3      OH2           -10.3012166405      -30.2032922861       25.2617803535  W2        23578           0.0000000000
     69494     23165  TIP3      H1             -9.3696666405      -30.0742922861       25.4400903535  W2        23578           0.0000000000
     69495     23165  TIP3      H2            -10.5161866405      -29.5338622861       24.6122503535  W2        23578           0.0000000000
     69496     23166  TIP3      OH2            -4.3775466405      -32.5975522861       32.0427403535  W2        23579           0.0000000000
     69497     23166  TIP3      H1             -5.0543866405      -32.4662422861       32.7067103535  W2        23579           0.0000000000
     69498     23166  TIP3      H2             -4.8630566405      -32.7526022861       31.2325103535  W2        23579           0.0000000000
     69499     23167  TIP3      OH2           -11.6271966405      -29.0090722861       22.8283903535  W2        23580           0.0000000000
     69500     23167  TIP3      H1            -12.1696866405      -29.3886922861       22.1371503535  W2        23580           0.0000000000
     69501     23167  TIP3      H2            -10.7937066405      -28.8146022861       22.3998003535  W2        23580           0.0000000000
     69502     23168  TIP3      OH2            -7.4627666405      -29.0448822861       30.6655203535  W2        23583           0.0000000000
     69503     23168  TIP3      H1             -6.8984266405      -29.5912222861       30.1184803535  W2        23583           0.0000000000
     69504     23168  TIP3      H2             -7.6104266405      -29.5666922861       31.4542803535  W2        23583           0.0000000000
     69505     23169  TIP3      OH2           -12.4607966405      -32.9082722861       27.0840003535  W2        23584           0.0000000000
     69506     23169  TIP3      H1            -12.7778466405      -33.8107422861       27.0485403535  W2        23584           0.0000000000
     69507     23169  TIP3      H2            -11.6793866405      -32.9065322861       26.5311603535  W2        23584           0.0000000000
     69508     23170  TIP3      OH2            -8.8361766405      -30.6562722861       33.0795603535  W2        23585           0.0000000000
     69509     23170  TIP3      H1             -9.6716466405      -30.2023222861       33.1898003535  W2        23585           0.0000000000
     69510     23170  TIP3      H2             -8.3121166405      -30.3804222861       33.8315503535  W2        23585           0.0000000000
     69511     23171  TIP3      OH2            -8.2919166405      -24.4435022861       24.7642003535  W2        23586           0.0000000000
     69512     23171  TIP3      H1             -9.0368166405      -24.9509722861       24.4419903535  W2        23586           0.0000000000
     69513     23171  TIP3      H2             -8.4261966405      -24.3947022861       25.7106803535  W2        23586           0.0000000000
     69514     23172  TIP3      OH2            -1.1420266405      -25.3106822861       33.5509603535  W2        23587           0.0000000000
     69515     23172  TIP3      H1             -0.5001466405      -24.8540522861       33.0071803535  W2        23587           0.0000000000
     69516     23172  TIP3      H2             -1.9723366405      -25.1974422861       33.0883703535  W2        23587           0.0000000000
     69517     23173  TIP3      OH2            -4.3942366405      -31.6295122861       22.9634603535  W2        23588           0.0000000000
     69518     23173  TIP3      H1             -5.3328166405      -31.5179522861       22.8123403535  W2        23588           0.0000000000
     69519     23173  TIP3      H2             -4.0970266405      -30.7728222861       23.2700303535  W2        23588           0.0000000000
     69520     23174  TIP3      OH2            -3.6758866405      -29.7622422861       24.6242003535  W2        23590           0.0000000000
     69521     23174  TIP3      H1             -2.7839866405      -29.8997422861       24.9433203535  W2        23590           0.0000000000
     69522     23174  TIP3      H2             -3.6195266405      -28.9716322861       24.0875503535  W2        23590           0.0000000000
     69523     23175  TIP3      OH2           -13.1670866405      -25.1485022861       30.5339903535  W2        23591           0.0000000000
     69524     23175  TIP3      H1            -12.4223666405      -25.1509322861       29.9326403535  W2        23591           0.0000000000
     69525     23175  TIP3      H2            -13.0894266405      -25.9721222861       31.0155003535  W2        23591           0.0000000000
     69526     23176  TIP3      OH2            -6.1665066405      -22.9850722861       23.7896603535  W2        23592           0.0000000000
     69527     23176  TIP3      H1             -6.4616666405      -22.1582822861       24.1711403535  W2        23592           0.0000000000
     69528     23176  TIP3      H2             -6.8695066405      -23.6043822861       23.9858003535  W2        23592           0.0000000000
     69529     23177  TIP3      OH2             1.2089833595      -29.5528322861       24.3188703535  W2        23596           0.0000000000
     69530     23177  TIP3      H1              0.6546133595      -29.9490322861       23.6466203535  W2        23596           0.0000000000
     69531     23177  TIP3      H2              1.3093433595      -28.6423122861       24.0412003535  W2        23596           0.0000000000
     69532     23178  TIP3      OH2            -0.4958466405      -20.7667922861       24.7840803535  W2        23598           0.0000000000
     69533     23178  TIP3      H1             -0.8687366405      -21.5924122861       25.0931403535  W2        23598           0.0000000000
     69534     23178  TIP3      H2             -0.2184966405      -20.9498522861       23.8864203535  W2        23598           0.0000000000
     69535     23179  TIP3      OH2            -3.3354566405      -25.9588422861       31.8052703535  W2        23599           0.0000000000
     69536     23179  TIP3      H1             -4.2637666405      -26.1906522861       31.7782003535  W2        23599           0.0000000000
     69537     23179  TIP3      H2             -2.8843466405      -26.7358622861       31.4751503535  W2        23599           0.0000000000
     69538     23180  TIP3      OH2           -10.7921466405      -21.6306822861       27.9381403535  W2        23600           0.0000000000
     69539     23180  TIP3      H1            -10.2649266405      -20.8572422861       27.7380203535  W2        23600           0.0000000000
     69540     23180  TIP3      H2            -11.6722966405      -21.4057622861       27.6365403535  W2        23600           0.0000000000
     69541     23181  TIP3      OH2           -15.0373766405      -26.7682722861       22.5253803535  W2        23601           0.0000000000
     69542     23181  TIP3      H1            -14.4213866405      -26.1415522861       22.9048603535  W2        23601           0.0000000000
     69543     23181  TIP3      H2            -15.8991166405      -26.4522922861       22.7970303535  W2        23601           0.0000000000
     69544     23182  TIP3      OH2            -9.3649166405      -23.9676922861       27.5145703535  W2        23602           0.0000000000
     69545     23182  TIP3      H1             -9.6059166405      -23.0422522861       27.5561003535  W2        23602           0.0000000000
     69546     23182  TIP3      H2            -10.1055566405      -24.4265622861       27.9109603535  W2        23602           0.0000000000
     69547     23183  TIP3      OH2            -8.8502566405      -19.8183322861       33.8296803535  W2        23603           0.0000000000
     69548     23183  TIP3      H1             -8.4877866405      -18.9637722861       33.5961203535  W2        23603           0.0000000000
     69549     23183  TIP3      H2             -8.3187366405      -20.1101722861       34.5703103535  W2        23603           0.0000000000
     69550     23184  TIP3      OH2           -10.6818366405      -18.9459322861       27.0597903535  W2        23604           0.0000000000
     69551     23184  TIP3      H1            -11.6317866405      -18.8401922861       27.1111203535  W2        23604           0.0000000000
     69552     23184  TIP3      H2            -10.3300266405      -18.1251922861       27.4045403535  W2        23604           0.0000000000
     69553     23185  TIP3      OH2            -5.3061766405      -23.7192622861       33.5302403535  W2        23605           0.0000000000
     69554     23185  TIP3      H1             -5.7320466405      -23.9470922861       34.3566403535  W2        23605           0.0000000000
     69555     23185  TIP3      H2             -4.7255966405      -24.4580822861       33.3477703535  W2        23605           0.0000000000
     69556     23186  TIP3      OH2            -3.1032866405      -22.7902122861       22.6041403535  W2        23606           0.0000000000
     69557     23186  TIP3      H1             -2.7499766405      -23.1702322861       23.4084903535  W2        23606           0.0000000000
     69558     23186  TIP3      H2             -4.0519366405      -22.8837322861       22.6910703535  W2        23606           0.0000000000
     69559     23187  TIP3      OH2             1.4001533595      -18.3109622861       22.8051603535  W2        23608           0.0000000000
     69560     23187  TIP3      H1              2.1439433595      -17.7249122861       22.6653203535  W2        23608           0.0000000000
     69561     23187  TIP3      H2              0.7059633595      -17.7423822861       23.1384003535  W2        23608           0.0000000000
     69562     23188  TIP3      OH2           -14.5251666405      -31.9345422861       35.4069803535  W2        23609           0.0000000000
     69563     23188  TIP3      H1            -15.4179366405      -31.5960022861       35.3393803535  W2        23609           0.0000000000
     69564     23188  TIP3      H2            -14.6238866405      -32.7899322861       35.8250603535  W2        23609           0.0000000000
     69565     23189  TIP3      OH2            -2.2373566405      -24.1180122861       24.8309303535  W2        23610           0.0000000000
     69566     23189  TIP3      H1             -2.5145966405      -24.8460822861       25.3870403535  W2        23610           0.0000000000
     69567     23189  TIP3      H2             -1.3100566405      -23.9988122861       25.0361903535  W2        23610           0.0000000000
     69568     23190  TIP3      OH2           -14.8739666405      -20.1301022861       33.8419203535  W2        23611           0.0000000000
     69569     23190  TIP3      H1            -14.6569366405      -21.0618622861       33.8108903535  W2        23611           0.0000000000
     69570     23190  TIP3      H2            -14.6276166405      -19.8556022861       34.7252003535  W2        23611           0.0000000000
     69571     23191  TIP3      OH2            -9.0125066405      -21.6786022861       21.0511403535  W2        23612           0.0000000000
     69572     23191  TIP3      H1             -8.7735266405      -22.4267922861       20.5040303535  W2        23612           0.0000000000
     69573     23191  TIP3      H2             -9.2813766405      -22.0664322861       21.8839203535  W2        23612           0.0000000000
     69574     23192  TIP3      OH2           -10.0754466405      -22.1082222861       23.5074003535  W2        23613           0.0000000000
     69575     23192  TIP3      H1             -9.9286466405      -22.6282422861       24.2974903535  W2        23613           0.0000000000
     69576     23192  TIP3      H2            -10.0782766405      -21.2014622861       23.8139903535  W2        23613           0.0000000000
     69577     23193  TIP3      OH2           -13.6223366405      -24.8558922861       24.0179403535  W2        23614           0.0000000000
     69578     23193  TIP3      H1            -14.3084066405      -24.5036422861       24.5849103535  W2        23614           0.0000000000
     69579     23193  TIP3      H2            -13.0995466405      -24.0929322861       23.7713703535  W2        23614           0.0000000000
     69580     23194  TIP3      OH2            -5.7908266405      -32.1935122861       34.2968403535  W2        23615           0.0000000000
     69581     23194  TIP3      H1             -5.0920366405      -32.1196422861       34.9468103535  W2        23615           0.0000000000
     69582     23194  TIP3      H2             -6.1716866405      -33.0580122861       34.4511303535  W2        23615           0.0000000000
     69583     23195  TIP3      OH2            -5.0063366405      -32.5413422861       25.3940703535  W2        23616           0.0000000000
     69584     23195  TIP3      H1             -4.7865066405      -32.0698022861       24.5906103535  W2        23616           0.0000000000
     69585     23195  TIP3      H2             -4.4479366405      -32.1470822861       26.0641303535  W2        23616           0.0000000000
     69586     23196  TIP3      OH2            -7.3377266405      -20.4108622861       24.2568203535  W2        23617           0.0000000000
     69587     23196  TIP3      H1             -8.1541166405      -19.9138922861       24.3092503535  W2        23617           0.0000000000
     69588     23196  TIP3      H2             -6.8080966405      -19.9355122861       23.6167003535  W2        23617           0.0000000000
     69589     23197  TIP3      OH2            -7.8063466405      -30.8134622861       26.2289103535  W2        23618           0.0000000000
     69590     23197  TIP3      H1             -6.9940866405      -30.3091422861       26.2750803535  W2        23618           0.0000000000
     69591     23197  TIP3      H2             -8.0510466405      -30.9584922861       27.1428703535  W2        23618           0.0000000000
     69592     23198  TIP3      OH2            -7.2707066405      -29.8271922861       35.4135703535  W2        23619           0.0000000000
     69593     23198  TIP3      H1             -7.1516766405      -29.2536522861       36.1706103535  W2        23619           0.0000000000
     69594     23198  TIP3      H2             -6.6152466405      -30.5152522861       35.5283503535  W2        23619           0.0000000000
     69595     23199  TIP3      OH2            -6.9226766405      -33.7321622861       27.1670203535  W2        23620           0.0000000000
     69596     23199  TIP3      H1             -7.2693266405      -33.1151022861       27.8114503535  W2        23620           0.0000000000
     69597     23199  TIP3      H2             -6.2639866405      -33.2315922861       26.6855703535  W2        23620           0.0000000000
     69598     23200  TIP3      OH2            -9.9994166405      -19.3671422861       24.2385103535  W2        23621           0.0000000000
     69599     23200  TIP3      H1             -9.8385466405      -18.5673922861       23.7377703535  W2        23621           0.0000000000
     69600     23200  TIP3      H2            -10.1966366405      -19.0605422861       25.1235703535  W2        23621           0.0000000000
     69601     23201  TIP3      OH2           -11.2649766405      -32.6692222861       23.8542703535  W2        23622           0.0000000000
     69602     23201  TIP3      H1            -11.3484966405      -31.7809122861       24.2009103535  W2        23622           0.0000000000
     69603     23201  TIP3      H2            -10.3749466405      -32.9345522861       24.0859503535  W2        23622           0.0000000000
     69604     23202  TIP3      OH2            -2.4640266405      -28.1700622861       30.3442703535  W2        23624           0.0000000000
     69605     23202  TIP3      H1             -3.2615866405      -28.5850422861       30.0157703535  W2        23624           0.0000000000
     69606     23202  TIP3      H2             -2.0189166405      -28.8606922861       30.8353203535  W2        23624           0.0000000000
     69607     23203  TIP3      OH2           -13.0064466405      -22.2420022861       22.9147203535  W2        23625           0.0000000000
     69608     23203  TIP3      H1            -12.4142966405      -21.5425222861       23.1909603535  W2        23625           0.0000000000
     69609     23203  TIP3      H2            -12.5471466405      -22.6750522861       22.1951803535  W2        23625           0.0000000000
     69610     23204  TIP3      OH2           -14.6905266405      -29.5777022861       22.0306603535  W2        23626           0.0000000000
     69611     23204  TIP3      H1            -14.7352666405      -28.6383922861       22.2093603535  W2        23626           0.0000000000
     69612     23204  TIP3      H2            -15.5782066405      -29.8132122861       21.7608703535  W2        23626           0.0000000000
     69613     23205  TIP3      OH2            -1.3775666405      -18.9138122861       31.9666203535  W2        23627           0.0000000000
     69614     23205  TIP3      H1             -1.5331366405      -18.2353722861       31.3095503535  W2        23627           0.0000000000
     69615     23205  TIP3      H2             -0.4449266405      -18.8418822861       32.1696803535  W2        23627           0.0000000000
     69616     23206  TIP3      OH2           -13.8823266405      -34.7960422861       30.7037603535  W2        23628           0.0000000000
     69617     23206  TIP3      H1            -14.1113466405      -34.7367922861       29.7762603535  W2        23628           0.0000000000
     69618     23206  TIP3      H2            -14.3249866405      -35.5874922861       31.0101703535  W2        23628           0.0000000000
     69619     23207  TIP3      OH2           -14.9519966405      -20.8553322861       26.8643403535  W2        23629           0.0000000000
     69620     23207  TIP3      H1            -15.7841366405      -20.3830622861       26.8914803535  W2        23629           0.0000000000
     69621     23207  TIP3      H2            -14.4061666405      -20.3455722861       26.2656503535  W2        23629           0.0000000000
     69622     23208  TIP3      OH2            -6.9743266405      -19.8154622861       21.1897403535  W2        23632           0.0000000000
     69623     23208  TIP3      H1             -7.6182266405      -20.4466022861       21.5111103535  W2        23632           0.0000000000
     69624     23208  TIP3      H2             -6.2124966405      -20.3466622861       20.9580903535  W2        23632           0.0000000000
     69625     23209  TIP3      OH2            -2.3700366405      -19.9984722861       21.4235403535  W2        23634           0.0000000000
     69626     23209  TIP3      H1             -2.0869966405      -20.7929522861       21.8762303535  W2        23634           0.0000000000
     69627     23209  TIP3      H2             -1.6302466405      -19.7653722861       20.8626503535  W2        23634           0.0000000000
     69628     23210  TIP3      OH2           -11.4153066405      -24.0889822861       21.2810303535  W2        23636           0.0000000000
     69629     23210  TIP3      H1            -11.3508966405      -24.8830222861       21.8116703535  W2        23636           0.0000000000
     69630     23210  TIP3      H2            -10.7623866405      -24.2077022861       20.5912303535  W2        23636           0.0000000000
     69631     23211  TIP3      OH2            -6.0629666405      -23.0418122861       21.0168303535  W2        23638           0.0000000000
     69632     23211  TIP3      H1             -6.3315566405      -22.8616022861       21.9177203535  W2        23638           0.0000000000
     69633     23211  TIP3      H2             -6.2694066405      -23.9671922861       20.8854103535  W2        23638           0.0000000000
     69634     23212  TIP3      OH2           -10.2659266405      -26.1163622861       23.5868303535  W2        23641           0.0000000000
     69635     23212  TIP3      H1            -10.7257266405      -26.6005322861       24.2726803535  W2        23641           0.0000000000
     69636     23212  TIP3      H2            -10.0110566405      -26.7848222861       22.9508803535  W2        23641           0.0000000000
     69637     23213  TIP3      OH2            -9.1948866405      -27.8731822861       21.8491503535  W2        23643           0.0000000000
     69638     23213  TIP3      H1             -9.3753866405      -28.0280622861       20.9219803535  W2        23643           0.0000000000
     69639     23213  TIP3      H2             -8.2448366405      -27.7653122861       21.8939403535  W2        23643           0.0000000000
     69640     23214  TIP3      OH2             0.1949433595      -25.5187622861       21.2949603535  W2        23645           0.0000000000
     69641     23214  TIP3      H1             -0.0785766405      -25.9432122861       20.4817903535  W2        23645           0.0000000000
     69642     23214  TIP3      H2              0.2343533595      -24.5873122861       21.0780003535  W2        23645           0.0000000000
     69643     23215  TIP3      OH2           -10.2250566405      -32.4989922861       34.5178403535  W2        23647           0.0000000000
     69644     23215  TIP3      H1             -9.6893066405      -32.0473222861       33.8657703535  W2        23647           0.0000000000
     69645     23215  TIP3      H2            -11.0770966405      -32.6070122861       34.0952503535  W2        23647           0.0000000000
     69646     23216  TIP3      OH2            -8.6432166405      -27.0593722861       34.7573603535  W2        23648           0.0000000000
     69647     23216  TIP3      H1             -7.8927366405      -27.2156222861       34.1841403535  W2        23648           0.0000000000
     69648     23216  TIP3      H2             -8.9823866405      -26.2077122861       34.4819103535  W2        23648           0.0000000000
     69649     23217  TIP3      OH2            -9.4195066405      -35.0424222861       34.9492003535  W2        23652           0.0000000000
     69650     23217  TIP3      H1             -9.5175466405      -34.0961022861       34.8438203535  W2        23652           0.0000000000
     69651     23217  TIP3      H2            -10.1618866405      -35.4150422861       34.4735503535  W2        23652           0.0000000000
     69652     23218  TIP3      OH2            -9.2977166405      -17.1828122861       22.8505103535  W2        23659           0.0000000000
     69653     23218  TIP3      H1             -8.3646466405      -17.0249422861       22.9943503535  W2        23659           0.0000000000
     69654     23218  TIP3      H2             -9.5618366405      -16.5075122861       22.2256603535  W2        23659           0.0000000000
     69655     23219  TIP3      OH2           -15.7292266405      -22.5464322861       22.3333203535  W2        23660           0.0000000000
     69656     23219  TIP3      H1            -14.8153066405      -22.4675422861       22.6067103535  W2        23660           0.0000000000
     69657     23219  TIP3      H2            -15.7219166405      -23.2334722861       21.6668803535  W2        23660           0.0000000000
     69658     23220  TIP3      OH2           -17.0801666405      -17.1535822861       27.4107103535  W2        23661           0.0000000000
     69659     23220  TIP3      H1            -17.7274566405      -17.6154122861       26.8778303535  W2        23661           0.0000000000
     69660     23220  TIP3      H2            -16.7257066405      -17.8252522861       27.9933303535  W2        23661           0.0000000000
     69661     23221  TIP3      OH2           -16.2102466405      -19.0728822861       29.2153303535  W2        23662           0.0000000000
     69662     23221  TIP3      H1            -16.5445666405      -19.9531522861       29.3873503535  W2        23662           0.0000000000
     69663     23221  TIP3      H2            -15.9880066405      -18.7273822861       30.0798903535  W2        23662           0.0000000000
     69664     23222  TIP3      OH2             1.3382333595      -18.2632422861       32.1958103535  W2        23663           0.0000000000
     69665     23222  TIP3      H1              1.3169033595      -18.0784022861       33.1347503535  W2        23663           0.0000000000
     69666     23222  TIP3      H2              2.0288533595      -17.6948422861       31.8549503535  W2        23663           0.0000000000
     69667     23223  TIP3      OH2             0.9015233595      -18.6961322861       35.1177203535  W2        23664           0.0000000000
     69668     23223  TIP3      H1              0.4143933595      -19.4317222861       34.7464603535  W2        23664           0.0000000000
     69669     23223  TIP3      H2              1.4507933595      -19.0897422861       35.7956603535  W2        23664           0.0000000000
     69670     23224  TIP3      OH2             0.6532233595      -24.6499522861       25.2700003535  W2        23666           0.0000000000
     69671     23224  TIP3      H1              1.5033633595      -24.2288622861       25.3971603535  W2        23666           0.0000000000
     69672     23224  TIP3      H2              0.6587333595      -25.3899422861       25.8771403535  W2        23666           0.0000000000
     69673     23225  TIP3      OH2             1.0477833595      -26.5962122861       27.0935703535  W2        23667           0.0000000000
     69674     23225  TIP3      H1              0.3212433595      -27.0759522861       27.4913303535  W2        23667           0.0000000000
     69675     23225  TIP3      H2              1.6291133595      -26.3907422861       27.8257303535  W2        23667           0.0000000000
     69676     23226  TIP3      OH2             0.8069033595      -23.8114622861       32.0413303535  W2        23668           0.0000000000
     69677     23226  TIP3      H1              1.6403233595      -24.1894622861       31.7606903535  W2        23668           0.0000000000
     69678     23226  TIP3      H2              0.9189333595      -22.8683422861       31.9222403535  W2        23668           0.0000000000
     69679     23227  TIP3      OH2            -0.7068666405      -20.9337122861       34.3481703535  W2        23669           0.0000000000
     69680     23227  TIP3      H1             -1.3543366405      -20.6085622861       34.9736903535  W2        23669           0.0000000000
     69681     23227  TIP3      H2             -1.2244666405      -21.3739422861       33.6740003535  W2        23669           0.0000000000
     69682     23228  TIP3      OH2             1.3160933595      -26.6953622861       23.4847003535  W2        23670           0.0000000000
     69683     23228  TIP3      H1              0.7942033595      -26.3389522861       22.7657903535  W2        23670           0.0000000000
     69684     23228  TIP3      H2              1.2830133595      -26.0205822861       24.1627903535  W2        23670           0.0000000000
     69685     23229  TIP3      OH2            -0.3350066405      -29.4558022861       22.0354103535  W2        23671           0.0000000000
     69686     23229  TIP3      H1             -0.2385666405      -28.7891022861       21.3553803535  W2        23671           0.0000000000
     69687     23229  TIP3      H2             -0.4750466405      -30.2711722861       21.5539603535  W2        23671           0.0000000000
     69688     23230  TIP3      OH2            -1.1655366405      -28.0755622861       27.6564403535  W2        23672           0.0000000000
     69689     23230  TIP3      H1             -1.3156566405      -29.0207022861       27.6362203535  W2        23672           0.0000000000
     69690     23230  TIP3      H2             -1.5190866405      -27.7944222861       28.5003503535  W2        23672           0.0000000000
     69691     23231  TIP3      OH2           -16.1302966405      -25.9973422861       31.6668203535  W2        23673           0.0000000000
     69692     23231  TIP3      H1            -15.9460066405      -26.0791722861       30.7311103535  W2        23673           0.0000000000
     69693     23231  TIP3      H2            -15.2810066405      -26.1216422861       32.0904603535  W2        23673           0.0000000000
     69694     23232  TIP3      OH2            -1.0876266405      -32.0478222861       21.1529603535  W2        23676           0.0000000000
     69695     23232  TIP3      H1             -0.4770466405      -32.4191422861       21.7897803535  W2        23676           0.0000000000
     69696     23232  TIP3      H2             -1.9244766405      -32.4691322861       21.3489603535  W2        23676           0.0000000000
     69697     23233  TIP3      OH2            -1.4550566405      -30.4929822861       26.1189503535  W2        23677           0.0000000000
     69698     23233  TIP3      H1             -1.1753466405      -31.3999422861       26.2431203535  W2        23677           0.0000000000
     69699     23233  TIP3      H2             -0.6958866405      -30.0588322861       25.7298703535  W2        23677           0.0000000000
     69700     23234  TIP3      OH2            -0.8432266405      -29.9112422861       31.5548403535  W2        23678           0.0000000000
     69701     23234  TIP3      H1              0.0895733595      -29.6992522861       31.5204403535  W2        23678           0.0000000000
     69702     23234  TIP3      H2             -1.0784766405      -29.8100322861       32.4771403535  W2        23678           0.0000000000
     69703     23235  TIP3      OH2            -0.8140366405      -29.1747122861       34.3307803535  W2        23679           0.0000000000
     69704     23235  TIP3      H1             -1.6569066405      -28.9066722861       34.6967603535  W2        23679           0.0000000000
     69705     23235  TIP3      H2             -0.3716066405      -28.3525222861       34.1198903535  W2        23679           0.0000000000
     69706     23236  TIP3      OH2            -0.8415766405      -33.2300522861       26.1671503535  W2        23682           0.0000000000
     69707     23236  TIP3      H1             -0.6590766405      -33.6789022861       26.9926503535  W2        23682           0.0000000000
     69708     23236  TIP3      H2             -1.4412866405      -33.8146122861       25.7036103535  W2        23682           0.0000000000
     69709     23237  TIP3      OH2           -15.3115666405      -32.4146822861       30.6989903535  W2        23683           0.0000000000
     69710     23237  TIP3      H1            -14.8664066405      -33.2064322861       31.0009603535  W2        23683           0.0000000000
     69711     23237  TIP3      H2            -14.8452666405      -31.6981622861       31.1295503535  W2        23683           0.0000000000
     69712     23238  TIP3      OH2           -17.0075366405      -29.4153822861       31.7680103535  W2        23684           0.0000000000
     69713     23238  TIP3      H1            -16.5155566405      -29.6363322861       30.9772103535  W2        23684           0.0000000000
     69714     23238  TIP3      H2            -16.6454466405      -28.5750422861       32.0489603535  W2        23684           0.0000000000
     69715     23239  TIP3      OH2             1.0250433595      -33.1622422861       22.6951803535  W2        23686           0.0000000000
     69716     23239  TIP3      H1              1.4373033595      -33.8836722861       22.2199803535  W2        23686           0.0000000000
     69717     23239  TIP3      H2              1.7066933595      -32.4927822861       22.7536103535  W2        23686           0.0000000000
     69718     23240  TIP3      OH2           -16.6938866405      -33.1574722861       25.8222503535  W2        23687           0.0000000000
     69719     23240  TIP3      H1            -17.6190466405      -32.9488122861       25.6928003535  W2        23687           0.0000000000
     69720     23240  TIP3      H2            -16.2398966405      -32.6733922861       25.1324803535  W2        23687           0.0000000000
     69721     23241  TIP3      OH2            -1.9231666405      -18.1733022861       27.7679903535  W2        23688           0.0000000000
     69722     23241  TIP3      H1             -1.2708766405      -18.5210922861       27.1599003535  W2        23688           0.0000000000
     69723     23241  TIP3      H2             -1.4127866405      -17.6849822861       28.4139603535  W2        23688           0.0000000000
     69724     23242  TIP3      OH2           -16.7303466405      -34.4195722861       34.1665003535  W2        23689           0.0000000000
     69725     23242  TIP3      H1            -17.3952966405      -34.6655422861       34.8095903535  W2        23689           0.0000000000
     69726     23242  TIP3      H2            -17.1732166405      -33.7975322861       33.5893003535  W2        23689           0.0000000000
     69727     23243  TIP3      OH2           -11.5841266405      -20.2700422861       34.5694803535  W2        23691           0.0000000000
     69728     23243  TIP3      H1            -12.0090166405      -19.4601922861       34.2869403535  W2        23691           0.0000000000
     69729     23243  TIP3      H2            -10.6798466405      -20.1846322861       34.2674603535  W2        23691           0.0000000000
     69730     23244  TIP3      OH2           -14.1824566405      -17.0136522861       34.6170103535  W2        23695           0.0000000000
     69731     23244  TIP3      H1            -14.9028166405      -16.5735522861       34.1657803535  W2        23695           0.0000000000
     69732     23244  TIP3      H2            -14.5480566405      -17.2641822861       35.4654103535  W2        23695           0.0000000000
     69733     23245  TIP3      OH2           -11.7151966405      -17.4132622861       33.6467303535  W2        23696           0.0000000000
     69734     23245  TIP3      H1            -12.5799766405      -17.3414122861       34.0507403535  W2        23696           0.0000000000
     69735     23245  TIP3      H2            -11.7702966405      -16.8665322861       32.8629803535  W2        23696           0.0000000000
     69736     23246  TIP3      OH2            -7.0046366405      -17.5253722861       32.8223303535  W2        23697           0.0000000000
     69737     23246  TIP3      H1             -7.4612366405      -16.9964022861       32.1681703535  W2        23697           0.0000000000
     69738     23246  TIP3      H2             -6.8418366405      -16.9222322861       33.5475603535  W2        23697           0.0000000000
     69739     23247  TIP3      OH2            -4.6770066405      -18.6474122861       33.7673603535  W2        23698           0.0000000000
     69740     23247  TIP3      H1             -5.5816366405      -18.4823922861       33.5015703535  W2        23698           0.0000000000
     69741     23247  TIP3      H2             -4.2481466405      -17.7941922861       33.7017003535  W2        23698           0.0000000000
     69742     23248  TIP3      OH2            -2.0728166405      -17.0775022861       34.0621403535  W2        23699           0.0000000000
     69743     23248  TIP3      H1             -2.2546166405      -16.1616122861       33.8516303535  W2        23699           0.0000000000
     69744     23248  TIP3      H2             -1.8960366405      -17.4877922861       33.2156003535  W2        23699           0.0000000000
     69745     23249  TIP3      OH2           -14.7676466405      -18.3904022861       31.5271903535  W2        23700           0.0000000000
     69746     23249  TIP3      H1            -14.7860466405      -18.8158922861       32.3844203535  W2        23700           0.0000000000
     69747     23249  TIP3      H2            -13.9628566405      -18.7089022861       31.1184103535  W2        23700           0.0000000000
     69748     23250  TIP3      OH2           -12.6263366405      -19.6805322861       30.1821803535  W2        23701           0.0000000000
     69749     23250  TIP3      H1            -12.8452666405      -20.5967922861       30.3517803535  W2        23701           0.0000000000
     69750     23250  TIP3      H2            -11.8021166405      -19.5404922861       30.6483203535  W2        23701           0.0000000000
     69751     23251  TIP3      OH2           -10.0890866405      -19.2106022861       31.0309803535  W2        23702           0.0000000000
     69752     23251  TIP3      H1             -9.8765166405      -20.0987022861       30.7440703535  W2        23702           0.0000000000
     69753     23251  TIP3      H2            -10.0245766405      -19.2448322861       31.9853803535  W2        23702           0.0000000000
     69754     23252  TIP3      OH2            -6.5807166405      -33.5465422861       30.1753103535  W2        23703           0.0000000000
     69755     23252  TIP3      H1             -7.2550366405      -34.1759822861       30.4308903535  W2        23703           0.0000000000
     69756     23252  TIP3      H2             -6.0167966405      -34.0306522861       29.5721003535  W2        23703           0.0000000000
     69757     23253  TIP3      OH2            -1.4379966405      -35.4391422861       30.2880203535  W2        23704           0.0000000000
     69758     23253  TIP3      H1             -0.8342366405      -34.8916022861       29.7861203535  W2        23704           0.0000000000
     69759     23253  TIP3      H2             -2.3077966405      -35.1201022861       30.0474303535  W2        23704           0.0000000000
     69760     23254  TIP3      OH2             0.2890433595      -34.3002722861       28.6211103535  W2        23705           0.0000000000
     69761     23254  TIP3      H1              0.9007933595      -34.8147022861       28.0944703535  W2        23705           0.0000000000
     69762     23254  TIP3      H2              0.6713833595      -33.4230622861       28.6445503535  W2        23705           0.0000000000
     69763     23255  TIP3      OH2           -14.2539666405      -34.9125122861       27.9973003535  W2        23706           0.0000000000
     69764     23255  TIP3      H1            -15.0309866405      -35.1470222861       27.4898903535  W2        23706           0.0000000000
     69765     23255  TIP3      H2            -13.7236066405      -35.7093022861       28.0061003535  W2        23706           0.0000000000
     69766     23256  TIP3      OH2           -15.4176266405      -35.1147022861       23.8009103535  W2        23707           0.0000000000
     69767     23256  TIP3      H1            -14.9785566405      -34.5036522861       23.2092603535  W2        23707           0.0000000000
     69768     23256  TIP3      H2            -16.0513866405      -34.5762922861       24.2749103535  W2        23707           0.0000000000
     69769     23257  TIP3      OH2            -9.6747066405      -34.9858022861       27.8106103535  W2        23708           0.0000000000
     69770     23257  TIP3      H1             -8.8003666405      -34.5973722861       27.7810403535  W2        23708           0.0000000000
     69771     23257  TIP3      H2             -9.8106266405      -35.2010222861       28.7333303535  W2        23708           0.0000000000
     69772     23258  TIP3      OH2            -4.1178666405      -34.9558222861       29.4597803535  W2        23709           0.0000000000
     69773     23258  TIP3      H1             -4.0417066405      -34.8606622861       28.5103803535  W2        23709           0.0000000000
     69774     23258  TIP3      H2             -4.3929466405      -35.8635322861       29.5886903535  W2        23709           0.0000000000
     69775     23259  TIP3      OH2            -2.7646066405      -34.9300422861       25.1522803535  W2        23710           0.0000000000
     69776     23259  TIP3      H1             -3.4674966405      -34.3151222861       24.9424203535  W2        23710           0.0000000000
     69777     23259  TIP3      H2             -3.2094666405      -35.7673722861       25.2833703535  W2        23710           0.0000000000
     69778     23260  TIP3      OH2           -15.5166766405      -19.1664822861       24.6984203535  W2        23711           0.0000000000
     69779     23260  TIP3      H1            -16.2016866405      -19.2045922861       24.0309303535  W2        23711           0.0000000000
     69780     23260  TIP3      H2            -15.5129566405      -18.2537222861       24.9866303535  W2        23711           0.0000000000
     69781     23261  TIP3      OH2           -13.5567166405      -33.1985522861       22.2433203535  W2        23712           0.0000000000
     69782     23261  TIP3      H1            -13.0653766405      -33.8283122861       21.7158703535  W2        23712           0.0000000000
     69783     23261  TIP3      H2            -12.9330866405      -32.9026122861       22.9064403535  W2        23712           0.0000000000
     69784     23262  TIP3      OH2            -8.5307066405      -32.9054022861       24.7003703535  W2        23713           0.0000000000
     69785     23262  TIP3      H1             -8.3525766405      -33.5520822861       25.3832303535  W2        23713           0.0000000000
     69786     23262  TIP3      H2             -8.5840866405      -32.0716322861       25.1674803535  W2        23713           0.0000000000
     69787     23263  TIP3      OH2            -6.6523266405      -17.9569922861       23.0960403535  W2        23714           0.0000000000
     69788     23263  TIP3      H1             -5.7863066405      -17.5902522861       22.9178603535  W2        23714           0.0000000000
     69789     23263  TIP3      H2             -6.8990466405      -18.3961922861       22.2821203535  W2        23714           0.0000000000
     69790     23264  TIP3      OH2             0.0566333595      -18.3939622861       25.7751503535  W2        23715           0.0000000000
     69791     23264  TIP3      H1             -0.1376566405      -19.1417522861       25.2101103535  W2        23715           0.0000000000
     69792     23264  TIP3      H2              0.0176433595      -17.6359522861       25.1919403535  W2        23715           0.0000000000
     69793     23265  TIP3      OH2           -13.6985566405      -18.2464022861       21.7236303535  W2        23718           0.0000000000
     69794     23265  TIP3      H1            -13.9660966405      -17.9601122861       22.5969403535  W2        23718           0.0000000000
     69795     23265  TIP3      H2            -12.9272966405      -18.7924822861       21.8758803535  W2        23718           0.0000000000
     69796     23266  TIP3      OH2            13.6802933595      -25.7562822861       27.9560503535  W2        23721           0.0000000000
     69797     23266  TIP3      H1             13.7694033595      -24.8124622861       27.8237603535  W2        23721           0.0000000000
     69798     23266  TIP3      H2             13.0420533595      -26.0316422861       27.2979903535  W2        23721           0.0000000000
     69799     23267  TIP3      OH2            12.6134233595      -26.5012122861       31.3748703535  W2        23722           0.0000000000
     69800     23267  TIP3      H1             12.5751733595      -27.1475822861       32.0798303535  W2        23722           0.0000000000
     69801     23267  TIP3      H2             12.2910733595      -26.9677722861       30.6037403535  W2        23722           0.0000000000
     69802     23268  TIP3      OH2             4.9819233595      -26.8870022861       32.9678603535  W2        23723           0.0000000000
     69803     23268  TIP3      H1              5.0231333595      -27.5126722861       33.6911003535  W2        23723           0.0000000000
     69804     23268  TIP3      H2              5.6846933595      -26.2631422861       33.1499003535  W2        23723           0.0000000000
     69805     23269  TIP3      OH2            16.3194433595      -23.5621722861       29.6763803535  W2        23724           0.0000000000
     69806     23269  TIP3      H1             15.8787133595      -24.2825722861       30.1269403535  W2        23724           0.0000000000
     69807     23269  TIP3      H2             16.3064133595      -22.8414522861       30.3061503535  W2        23724           0.0000000000
     69808     23270  TIP3      OH2             5.9052333595      -22.4371122861       31.5027703535  W2        23725           0.0000000000
     69809     23270  TIP3      H1              5.5357533595      -23.2390622861       31.1332003535  W2        23725           0.0000000000
     69810     23270  TIP3      H2              6.8463433595      -22.6056222861       31.5491103535  W2        23725           0.0000000000
     69811     23271  TIP3      OH2             2.5152833595      -28.7768522861       26.8956503535  W2        23726           0.0000000000
     69812     23271  TIP3      H1              2.0676233595      -27.9309822861       26.8773003535  W2        23726           0.0000000000
     69813     23271  TIP3      H2              1.9544033595      -29.3564322861       26.3801603535  W2        23726           0.0000000000
     69814     23272  TIP3      OH2             3.2258933595      -26.6148922861       29.0214503535  W2        23727           0.0000000000
     69815     23272  TIP3      H1              3.4392433595      -27.3847322861       29.5487503535  W2        23727           0.0000000000
     69816     23272  TIP3      H2              3.9636533595      -26.5252222861       28.4182103535  W2        23727           0.0000000000
     69817     23273  TIP3      OH2            13.4309933595      -18.4580022861       29.8884203535  W2        23728           0.0000000000
     69818     23273  TIP3      H1             14.0506333595      -19.1345322861       29.6153403535  W2        23728           0.0000000000
     69819     23273  TIP3      H2             13.2227333595      -18.6759222861       30.7969103535  W2        23728           0.0000000000
     69820     23274  TIP3      OH2            11.0028633595      -24.0690722861       31.7809703535  W2        23729           0.0000000000
     69821     23274  TIP3      H1             11.3066533595      -24.7549322861       31.1863803535  W2        23729           0.0000000000
     69822     23274  TIP3      H2             11.7242633595      -23.9502022861       32.3987703535  W2        23729           0.0000000000
     69823     23275  TIP3      OH2            19.6658433595      -32.4675422861       32.6415903535  W2        23730           0.0000000000
     69824     23275  TIP3      H1             19.7150633595      -31.8574222861       33.3775003535  W2        23730           0.0000000000
     69825     23275  TIP3      H2             20.0913533595      -32.0064522861       31.9187003535  W2        23730           0.0000000000
     69826     23276  TIP3      OH2            14.1435633595      -29.6748322861       32.1084503535  W2        23731           0.0000000000
     69827     23276  TIP3      H1             14.2861533595      -30.6211322861       32.1286103535  W2        23731           0.0000000000
     69828     23276  TIP3      H2             14.0374633595      -29.4678522861       31.1799403535  W2        23731           0.0000000000
     69829     23277  TIP3      OH2             7.2983933595      -31.5731922861       29.3809303535  W2        23732           0.0000000000
     69830     23277  TIP3      H1              7.3415033595      -30.7133422861       28.9625603535  W2        23732           0.0000000000
     69831     23277  TIP3      H2              6.8408033595      -32.1257222861       28.7472503535  W2        23732           0.0000000000
     69832     23278  TIP3      OH2            15.0206633595      -31.4426322861       27.7817603535  W2        23733           0.0000000000
     69833     23278  TIP3      H1             15.6670933595      -31.7713122861       28.4065203535  W2        23733           0.0000000000
     69834     23278  TIP3      H2             15.5306033595      -30.9247322861       27.1589003535  W2        23733           0.0000000000
     69835     23279  TIP3      OH2             3.9185433595      -29.1766122861       30.1430703535  W2        23734           0.0000000000
     69836     23279  TIP3      H1              4.5722033595      -29.7264422861       30.5750803535  W2        23734           0.0000000000
     69837     23279  TIP3      H2              3.9424733595      -29.4507122861       29.2262703535  W2        23734           0.0000000000
     69838     23280  TIP3      OH2             9.0749933595      -27.6264822861       29.3582203535  W2        23735           0.0000000000
     69839     23280  TIP3      H1              9.6910933595      -28.1529422861       29.8676203535  W2        23735           0.0000000000
     69840     23280  TIP3      H2              8.4888733595      -28.2666122861       28.9545803535  W2        23735           0.0000000000
     69841     23281  TIP3      OH2            20.0573033595      -30.9896222861       34.8775703535  W2        23736           0.0000000000
     69842     23281  TIP3      H1             19.3687633595      -30.3315522861       34.7822303535  W2        23736           0.0000000000
     69843     23281  TIP3      H2             20.0727633595      -31.1868322861       35.8141103535  W2        23736           0.0000000000
     69844     23282  TIP3      OH2             6.1085833595      -32.6553522861       33.4550103535  W2        23737           0.0000000000
     69845     23282  TIP3      H1              5.8897533595      -32.1252922861       32.6886103535  W2        23737           0.0000000000
     69846     23282  TIP3      H2              5.4406733595      -32.4288022861       34.1021503535  W2        23737           0.0000000000
     69847     23283  TIP3      OH2            13.4775633595      -23.1552422861       26.9989203535  W2        23738           0.0000000000
     69848     23283  TIP3      H1             13.1820733595      -23.4780122861       26.1476103535  W2        23738           0.0000000000
     69849     23283  TIP3      H2             13.1533433595      -22.2555722861       27.0401803535  W2        23738           0.0000000000
     69850     23284  TIP3      OH2             8.6777233595      -24.9797822861       33.7423803535  W2        23739           0.0000000000
     69851     23284  TIP3      H1              7.9376333595      -24.3816322861       33.8459003535  W2        23739           0.0000000000
     69852     23284  TIP3      H2              9.3916733595      -24.4258222861       33.4267403535  W2        23739           0.0000000000
     69853     23285  TIP3      OH2            16.7845033595      -32.1517022861       29.7623503535  W2        23740           0.0000000000
     69854     23285  TIP3      H1             16.5693033595      -32.9173622861       30.2949503535  W2        23740           0.0000000000
     69855     23285  TIP3      H2             17.4402433595      -31.6792422861       30.2752003535  W2        23740           0.0000000000
     69856     23286  TIP3      OH2             5.7023133595      -30.7631722861       31.4072303535  W2        23741           0.0000000000
     69857     23286  TIP3      H1              6.3159433595      -30.1304122861       31.7804703535  W2        23741           0.0000000000
     69858     23286  TIP3      H2              6.2143833595      -31.2356722861       30.7509203535  W2        23741           0.0000000000
     69859     23287  TIP3      OH2             7.0851533595      -23.0154822861       34.5295303535  W2        23742           0.0000000000
     69860     23287  TIP3      H1              7.0799133595      -22.1361322861       34.1514603535  W2        23742           0.0000000000
     69861     23287  TIP3      H2              6.2315633595      -23.0990722861       34.9545203535  W2        23742           0.0000000000
     69862     23288  TIP3      OH2             3.2062433595      -23.3446922861       25.3114603535  W2        23743           0.0000000000
     69863     23288  TIP3      H1              2.9343333595      -23.1155922861       24.4227503535  W2        23743           0.0000000000
     69864     23288  TIP3      H2              3.2518133595      -22.5068122861       25.7719903535  W2        23743           0.0000000000
     69865     23289  TIP3      OH2            16.8312133595      -21.7231022861       32.0243103535  W2        23744           0.0000000000
     69866     23289  TIP3      H1             15.8895833595      -21.6647122861       32.1860003535  W2        23744           0.0000000000
     69867     23289  TIP3      H2             17.1078233595      -20.8170522861       31.8872803535  W2        23744           0.0000000000
     69868     23290  TIP3      OH2            17.1319133595      -33.4365722861       33.4417003535  W2        23745           0.0000000000
     69869     23290  TIP3      H1             16.3958333595      -32.8258622861       33.4038303535  W2        23745           0.0000000000
     69870     23290  TIP3      H2             17.8153133595      -33.0216722861       32.9153403535  W2        23745           0.0000000000
     69871     23291  TIP3      OH2            10.1350533595      -35.3498422861       30.9075003535  W2        23746           0.0000000000
     69872     23291  TIP3      H1             10.0174733595      -36.2982422861       30.8533303535  W2        23746           0.0000000000
     69873     23291  TIP3      H2              9.2800633595      -35.0172322861       31.1806103535  W2        23746           0.0000000000
     69874     23292  TIP3      OH2            15.0833333595      -19.9417522861       28.6494703535  W2        23747           0.0000000000
     69875     23292  TIP3      H1             15.5085633595      -20.6489622861       28.1644303535  W2        23747           0.0000000000
     69876     23292  TIP3      H2             15.4003333595      -19.1404822861       28.2326903535  W2        23747           0.0000000000
     69877     23293  TIP3      OH2            16.2429833595      -22.0409022861       27.1581303535  W2        23748           0.0000000000
     69878     23293  TIP3      H1             15.9854633595      -22.7308922861       26.5467203535  W2        23748           0.0000000000
     69879     23293  TIP3      H2             16.3140633595      -22.4837822861       28.0037203535  W2        23748           0.0000000000
     69880     23294  TIP3      OH2            12.4015433595      -26.5122822861       25.4080803535  W2        23750           0.0000000000
     69881     23294  TIP3      H1             11.6900933595      -25.9773122861       25.0561303535  W2        23750           0.0000000000
     69882     23294  TIP3      H2             13.0925033595      -26.4570722861       24.7479703535  W2        23750           0.0000000000
     69883     23295  TIP3      OH2            12.4554633595      -28.0548522861       22.4465803535  W2        23751           0.0000000000
     69884     23295  TIP3      H1             13.1564533595      -28.0321622861       23.0979803535  W2        23751           0.0000000000
     69885     23295  TIP3      H2             12.7577533595      -28.6828822861       21.7905103535  W2        23751           0.0000000000
     69886     23296  TIP3      OH2            19.7709333595      -27.1344322861       33.7015203535  W2        23752           0.0000000000
     69887     23296  TIP3      H1             19.1183433595      -26.4398722861       33.7906103535  W2        23752           0.0000000000
     69888     23296  TIP3      H2             20.2359633595      -26.9243422861       32.8916803535  W2        23752           0.0000000000
     69889     23297  TIP3      OH2            15.8073133595      -26.3029522861       26.3596703535  W2        23753           0.0000000000
     69890     23297  TIP3      H1             15.0754133595      -26.0745822861       26.9327303535  W2        23753           0.0000000000
     69891     23297  TIP3      H2             16.2545333595      -27.0166822861       26.8144203535  W2        23753           0.0000000000
     69892     23298  TIP3      OH2            15.7046633595      -28.1286922861       35.4273703535  W2        23754           0.0000000000
     69893     23298  TIP3      H1             15.7845733595      -27.3652522861       35.9992203535  W2        23754           0.0000000000
     69894     23298  TIP3      H2             15.1034333595      -27.8494522861       34.7368803535  W2        23754           0.0000000000
     69895     23299  TIP3      OH2             7.4526833595      -25.6723322861       28.2421703535  W2        23755           0.0000000000
     69896     23299  TIP3      H1              7.1222033595      -26.0429922861       27.4238703535  W2        23755           0.0000000000
     69897     23299  TIP3      H2              8.0410933595      -26.3429322861       28.5890003535  W2        23755           0.0000000000
     69898     23300  TIP3      OH2             8.8194333595      -22.2442722861       30.9233903535  W2        23756           0.0000000000
     69899     23300  TIP3      H1              8.7245633595      -22.8229622861       30.1668503535  W2        23756           0.0000000000
     69900     23300  TIP3      H2              9.5487933595      -22.6157022861       31.4196703535  W2        23756           0.0000000000
     69901     23301  TIP3      OH2             7.8192333595      -26.9037722861       31.8756703535  W2        23757           0.0000000000
     69902     23301  TIP3      H1              8.3844833595      -26.7823522861       31.1127903535  W2        23757           0.0000000000
     69903     23301  TIP3      H2              8.1381233595      -26.2662722861       32.5145203535  W2        23757           0.0000000000
     69904     23302  TIP3      OH2            14.1284533595      -21.4005822861       32.6097203535  W2        23758           0.0000000000
     69905     23302  TIP3      H1             13.8881133595      -20.7382722861       33.2576403535  W2        23758           0.0000000000
     69906     23302  TIP3      H2             13.9302733595      -22.2350622861       33.0346803535  W2        23758           0.0000000000
     69907     23303  TIP3      OH2            14.6782633595      -27.1406622861       24.0447903535  W2        23760           0.0000000000
     69908     23303  TIP3      H1             15.2578133595      -26.9906322861       24.7916803535  W2        23760           0.0000000000
     69909     23303  TIP3      H2             15.0922633595      -26.6699222861       23.3214303535  W2        23760           0.0000000000
     69910     23304  TIP3      OH2            12.4047533595      -20.4038122861       27.4801003535  W2        23762           0.0000000000
     69911     23304  TIP3      H1             12.8785133595      -20.1081822861       28.2575203535  W2        23762           0.0000000000
     69912     23304  TIP3      H2             11.8416833595      -19.6656522861       27.2470603535  W2        23762           0.0000000000
     69913     23305  TIP3      OH2            18.3771033595      -35.3906222861       23.8577603535  W2        23764           0.0000000000
     69914     23305  TIP3      H1             17.4771733595      -35.2517222861       24.1528203535  W2        23764           0.0000000000
     69915     23305  TIP3      H2             18.6289433595      -34.5591622861       23.4559303535  W2        23764           0.0000000000
     69916     23306  TIP3      OH2             6.4429533595      -26.6029022861       25.8314503535  W2        23765           0.0000000000
     69917     23306  TIP3      H1              6.1510833595      -25.8347322861       25.3405803535  W2        23765           0.0000000000
     69918     23306  TIP3      H2              5.7684733595      -27.2622822861       25.6685903535  W2        23765           0.0000000000
     69919     23307  TIP3      OH2            19.5662433595      -21.0243822861       22.2341503535  W2        23766           0.0000000000
     69920     23307  TIP3      H1             19.6395933595      -20.0853622861       22.4046803535  W2        23766           0.0000000000
     69921     23307  TIP3      H2             20.4717533595      -21.3295222861       22.1778803535  W2        23766           0.0000000000
     69922     23308  TIP3      OH2             2.5359633595      -24.2399822861       34.6464303535  W2        23767           0.0000000000
     69923     23308  TIP3      H1              2.0348033595      -24.2680422861       33.8314003535  W2        23767           0.0000000000
     69924     23308  TIP3      H2              2.5413333595      -25.1456622861       34.9561603535  W2        23767           0.0000000000
     69925     23309  TIP3      OH2             2.2862333595      -21.4596022861       31.5304503535  W2        23768           0.0000000000
     69926     23309  TIP3      H1              3.2322933595      -21.6039022861       31.5114003535  W2        23768           0.0000000000
     69927     23309  TIP3      H2              2.1738633595      -20.6753222861       32.0675703535  W2        23768           0.0000000000
     69928     23310  TIP3      OH2            11.8770633595      -17.4473422861       25.8950203535  W2        23771           0.0000000000
     69929     23310  TIP3      H1             11.8016633595      -17.5686222861       24.9485403535  W2        23771           0.0000000000
     69930     23310  TIP3      H2             11.9099333595      -16.4980722861       26.0134803535  W2        23771           0.0000000000
     69931     23311  TIP3      OH2             5.5304433595      -18.6586422861       27.6759203535  W2        23772           0.0000000000
     69932     23311  TIP3      H1              5.6824833595      -19.0066022861       28.5545703535  W2        23772           0.0000000000
     69933     23311  TIP3      H2              4.6794833595      -19.0149122861       27.4206403535  W2        23772           0.0000000000
     69934     23312  TIP3      OH2            14.9786633595      -18.2933222861       22.8972603535  W2        23773           0.0000000000
     69935     23312  TIP3      H1             15.3535033595      -19.0377122861       22.4265203535  W2        23773           0.0000000000
     69936     23312  TIP3      H2             14.9830333595      -18.5632622861       23.8155903535  W2        23773           0.0000000000
     69937     23313  TIP3      OH2            14.6474733595      -18.3676122861       25.6464803535  W2        23774           0.0000000000
     69938     23313  TIP3      H1             13.7124533595      -18.2674222861       25.8251803535  W2        23774           0.0000000000
     69939     23313  TIP3      H2             14.9276633595      -19.0770122861       26.2248003535  W2        23774           0.0000000000
     69940     23314  TIP3      OH2             7.4038133595      -34.4463922861       31.6851303535  W2        23777           0.0000000000
     69941     23314  TIP3      H1              6.5421833595      -34.5335722861       31.2774203535  W2        23777           0.0000000000
     69942     23314  TIP3      H2              7.3813833595      -33.5903822861       32.1128903535  W2        23777           0.0000000000
     69943     23315  TIP3      OH2            12.0665933595      -34.7243522861       35.0598303535  W2        23778           0.0000000000
     69944     23315  TIP3      H1             12.4869033595      -35.1396422861       35.8128903535  W2        23778           0.0000000000
     69945     23315  TIP3      H2             11.1335533595      -34.9030222861       35.1770303535  W2        23778           0.0000000000
     69946     23316  TIP3      OH2            16.1555733595      -26.1078322861       21.6745803535  W2        23780           0.0000000000
     69947     23316  TIP3      H1             16.1976533595      -26.3304422861       20.7445803535  W2        23780           0.0000000000
     69948     23316  TIP3      H2             17.0047833595      -25.7091222861       21.8645703535  W2        23780           0.0000000000
     69949     23317  TIP3      OH2            11.7283233595      -32.2320122861       22.3449103535  W2        23781           0.0000000000
     69950     23317  TIP3      H1             11.4748033595      -32.2128522861       23.2677203535  W2        23781           0.0000000000
     69951     23317  TIP3      H2             11.4715333595      -33.1034722861       22.0435303535  W2        23781           0.0000000000
     69952     23318  TIP3      OH2             7.4948233595      -29.4809422861       32.7801503535  W2        23782           0.0000000000
     69953     23318  TIP3      H1              6.8530333595      -29.5212122861       33.4891603535  W2        23782           0.0000000000
     69954     23318  TIP3      H2              7.5320233595      -28.5544722861       32.5424503535  W2        23782           0.0000000000
     69955     23319  TIP3      OH2             7.4917333595      -29.2599322861       27.6921503535  W2        23783           0.0000000000
     69956     23319  TIP3      H1              6.5990233595      -29.6003222861       27.6335303535  W2        23783           0.0000000000
     69957     23319  TIP3      H2              7.9423933595      -29.6368422861       26.9364703535  W2        23783           0.0000000000
     69958     23320  TIP3      OH2            13.0272833595      -28.8439022861       26.5092303535  W2        23784           0.0000000000
     69959     23320  TIP3      H1             12.6183133595      -28.0290422861       26.2177103535  W2        23784           0.0000000000
     69960     23320  TIP3      H2             13.7479033595      -28.9838922861       25.8949403535  W2        23784           0.0000000000
     69961     23321  TIP3      OH2            14.0320533595      -29.3978622861       29.3232003535  W2        23786           0.0000000000
     69962     23321  TIP3      H1             13.8365033595      -28.7921822861       28.6082603535  W2        23786           0.0000000000
     69963     23321  TIP3      H2             14.2133133595      -30.2313422861       28.8888303535  W2        23786           0.0000000000
     69964     23322  TIP3      OH2             5.2448733595      -29.1605922861       34.6473503535  W2        23787           0.0000000000
     69965     23322  TIP3      H1              5.2068133595      -28.7604322861       35.5160603535  W2        23787           0.0000000000
     69966     23322  TIP3      H2              4.7539833595      -29.9773522861       34.7376403535  W2        23787           0.0000000000
     69967     23323  TIP3      OH2             8.6106133595      -31.7863622861       21.4459503535  W2        23788           0.0000000000
     69968     23323  TIP3      H1              8.1796833595      -32.2313522861       22.1756903535  W2        23788           0.0000000000
     69969     23323  TIP3      H2              7.8924833595      -31.4147322861       20.9337003535  W2        23788           0.0000000000
     69970     23324  TIP3      OH2             1.8529533595      -32.0444122861       28.4978203535  W2        23789           0.0000000000
     69971     23324  TIP3      H1              2.4837233595      -32.0732022861       29.2172103535  W2        23789           0.0000000000
     69972     23324  TIP3      H2              2.3023833595      -32.4695422861       27.7674103535  W2        23789           0.0000000000
     69973     23325  TIP3      OH2             3.1271633595      -31.2982122861       23.9218603535  W2        23790           0.0000000000
     69974     23325  TIP3      H1              3.6013333595      -30.7072222861       23.3369503535  W2        23790           0.0000000000
     69975     23325  TIP3      H2              2.4098033595      -30.7679222861       24.2688703535  W2        23790           0.0000000000
     69976     23326  TIP3      OH2            13.2959733595      -27.7597322861       33.9944403535  W2        23791           0.0000000000
     69977     23326  TIP3      H1             13.6194533595      -28.3907622861       33.3514903535  W2        23791           0.0000000000
     69978     23326  TIP3      H2             12.8559033595      -28.2945122861       34.6551803535  W2        23791           0.0000000000
     69979     23327  TIP3      OH2            10.0732633595      -31.8321822861       28.7785603535  W2        23792           0.0000000000
     69980     23327  TIP3      H1              9.1623733595      -31.7755022861       29.0671603535  W2        23792           0.0000000000
     69981     23327  TIP3      H2             10.5785533595      -31.8926322861       29.5892803535  W2        23792           0.0000000000
     69982     23328  TIP3      OH2             4.9016033595      -30.2035522861       27.6053203535  W2        23793           0.0000000000
     69983     23328  TIP3      H1              4.0124033595      -30.1040022861       27.2652803535  W2        23793           0.0000000000
     69984     23328  TIP3      H2              5.1980933595      -31.0452522861       27.2591103535  W2        23793           0.0000000000
     69985     23329  TIP3      OH2             8.5547833595      -30.2032922861       25.2617803535  W2        23794           0.0000000000
     69986     23329  TIP3      H1              9.4863333595      -30.0742922861       25.4400903535  W2        23794           0.0000000000
     69987     23329  TIP3      H2              8.3398133595      -29.5338622861       24.6122503535  W2        23794           0.0000000000
     69988     23330  TIP3      OH2            14.4784533595      -32.5975522861       32.0427403535  W2        23795           0.0000000000
     69989     23330  TIP3      H1             13.8016133595      -32.4662422861       32.7067103535  W2        23795           0.0000000000
     69990     23330  TIP3      H2             13.9929433595      -32.7526022861       31.2325103535  W2        23795           0.0000000000
     69991     23331  TIP3      OH2             7.2288033595      -29.0090722861       22.8283903535  W2        23796           0.0000000000
     69992     23331  TIP3      H1              6.6863133595      -29.3886922861       22.1371503535  W2        23796           0.0000000000
     69993     23331  TIP3      H2              8.0622933595      -28.8146022861       22.3998003535  W2        23796           0.0000000000
     69994     23332  TIP3      OH2            11.3932333595      -29.0448822861       30.6655203535  W2        23799           0.0000000000
     69995     23332  TIP3      H1             11.9575733595      -29.5912222861       30.1184803535  W2        23799           0.0000000000
     69996     23332  TIP3      H2             11.2455733595      -29.5666922861       31.4542803535  W2        23799           0.0000000000
     69997     23333  TIP3      OH2             6.3952033595      -32.9082722861       27.0840003535  W2        23800           0.0000000000
     69998     23333  TIP3      H1              6.0781533595      -33.8107422861       27.0485403535  W2        23800           0.0000000000
     69999     23333  TIP3      H2              7.1766133595      -32.9065322861       26.5311603535  W2        23800           0.0000000000
     70000     23334  TIP3      OH2            10.0198233595      -30.6562722861       33.0795603535  W2        23801           0.0000000000
     70001     23334  TIP3      H1              9.1843533595      -30.2023222861       33.1898003535  W2        23801           0.0000000000
     70002     23334  TIP3      H2             10.5438833595      -30.3804222861       33.8315503535  W2        23801           0.0000000000
     70003     23335  TIP3      OH2            10.5640833595      -24.4435022861       24.7642003535  W2        23802           0.0000000000
     70004     23335  TIP3      H1              9.8191833595      -24.9509722861       24.4419903535  W2        23802           0.0000000000
     70005     23335  TIP3      H2             10.4298033595      -24.3947022861       25.7106803535  W2        23802           0.0000000000
     70006     23336  TIP3      OH2            17.7139733595      -25.3106822861       33.5509603535  W2        23803           0.0000000000
     70007     23336  TIP3      H1             18.3558533595      -24.8540522861       33.0071803535  W2        23803           0.0000000000
     70008     23336  TIP3      H2             16.8836633595      -25.1974422861       33.0883703535  W2        23803           0.0000000000
     70009     23337  TIP3      OH2            14.4617633595      -31.6295122861       22.9634603535  W2        23804           0.0000000000
     70010     23337  TIP3      H1             13.5231833595      -31.5179522861       22.8123403535  W2        23804           0.0000000000
     70011     23337  TIP3      H2             14.7589733595      -30.7728222861       23.2700303535  W2        23804           0.0000000000
     70012     23338  TIP3      OH2            15.1801133595      -29.7622422861       24.6242003535  W2        23806           0.0000000000
     70013     23338  TIP3      H1             16.0720133595      -29.8997422861       24.9433203535  W2        23806           0.0000000000
     70014     23338  TIP3      H2             15.2364733595      -28.9716322861       24.0875503535  W2        23806           0.0000000000
     70015     23339  TIP3      OH2             5.6889133595      -25.1485022861       30.5339903535  W2        23807           0.0000000000
     70016     23339  TIP3      H1              6.4336333595      -25.1509322861       29.9326403535  W2        23807           0.0000000000
     70017     23339  TIP3      H2              5.7665733595      -25.9721222861       31.0155003535  W2        23807           0.0000000000
     70018     23340  TIP3      OH2            12.6894933595      -22.9850722861       23.7896603535  W2        23808           0.0000000000
     70019     23340  TIP3      H1             12.3943333595      -22.1582822861       24.1711403535  W2        23808           0.0000000000
     70020     23340  TIP3      H2             11.9864933595      -23.6043822861       23.9858003535  W2        23808           0.0000000000
     70021     23341  TIP3      OH2            20.0649833595      -29.5528322861       24.3188703535  W2        23812           0.0000000000
     70022     23341  TIP3      H1             19.5106133595      -29.9490322861       23.6466203535  W2        23812           0.0000000000
     70023     23341  TIP3      H2             20.1653433595      -28.6423122861       24.0412003535  W2        23812           0.0000000000
     70024     23342  TIP3      OH2            18.3601533595      -20.7667922861       24.7840803535  W2        23814           0.0000000000
     70025     23342  TIP3      H1             17.9872633595      -21.5924122861       25.0931403535  W2        23814           0.0000000000
     70026     23342  TIP3      H2             18.6375033595      -20.9498522861       23.8864203535  W2        23814           0.0000000000
     70027     23343  TIP3      OH2            15.5205433595      -25.9588422861       31.8052703535  W2        23815           0.0000000000
     70028     23343  TIP3      H1             14.5922333595      -26.1906522861       31.7782003535  W2        23815           0.0000000000
     70029     23343  TIP3      H2             15.9716533595      -26.7358622861       31.4751503535  W2        23815           0.0000000000
     70030     23344  TIP3      OH2             8.0638533595      -21.6306822861       27.9381403535  W2        23816           0.0000000000
     70031     23344  TIP3      H1              8.5910733595      -20.8572422861       27.7380203535  W2        23816           0.0000000000
     70032     23344  TIP3      H2              7.1837033595      -21.4057622861       27.6365403535  W2        23816           0.0000000000
     70033     23345  TIP3      OH2             3.8186233595      -26.7682722861       22.5253803535  W2        23817           0.0000000000
     70034     23345  TIP3      H1              4.4346133595      -26.1415522861       22.9048603535  W2        23817           0.0000000000
     70035     23345  TIP3      H2              2.9568833595      -26.4522922861       22.7970303535  W2        23817           0.0000000000
     70036     23346  TIP3      OH2             9.4910833595      -23.9676922861       27.5145703535  W2        23818           0.0000000000
     70037     23346  TIP3      H1              9.2500833595      -23.0422522861       27.5561003535  W2        23818           0.0000000000
     70038     23346  TIP3      H2              8.7504433595      -24.4265622861       27.9109603535  W2        23818           0.0000000000
     70039     23347  TIP3      OH2            10.0057433595      -19.8183322861       33.8296803535  W2        23819           0.0000000000
     70040     23347  TIP3      H1             10.3682133595      -18.9637722861       33.5961203535  W2        23819           0.0000000000
     70041     23347  TIP3      H2             10.5372633595      -20.1101722861       34.5703103535  W2        23819           0.0000000000
     70042     23348  TIP3      OH2             8.1741633595      -18.9459322861       27.0597903535  W2        23820           0.0000000000
     70043     23348  TIP3      H1              7.2242133595      -18.8401922861       27.1111203535  W2        23820           0.0000000000
     70044     23348  TIP3      H2              8.5259733595      -18.1251922861       27.4045403535  W2        23820           0.0000000000
     70045     23349  TIP3      OH2            13.5498233595      -23.7192622861       33.5302403535  W2        23821           0.0000000000
     70046     23349  TIP3      H1             13.1239533595      -23.9470922861       34.3566403535  W2        23821           0.0000000000
     70047     23349  TIP3      H2             14.1304033595      -24.4580822861       33.3477703535  W2        23821           0.0000000000
     70048     23350  TIP3      OH2            15.7527133595      -22.7902122861       22.6041403535  W2        23822           0.0000000000
     70049     23350  TIP3      H1             16.1060233595      -23.1702322861       23.4084903535  W2        23822           0.0000000000
     70050     23350  TIP3      H2             14.8040633595      -22.8837322861       22.6910703535  W2        23822           0.0000000000
     70051     23351  TIP3      OH2            20.2561533595      -18.3109622861       22.8051603535  W2        23824           0.0000000000
     70052     23351  TIP3      H1             20.9999433595      -17.7249122861       22.6653203535  W2        23824           0.0000000000
     70053     23351  TIP3      H2             19.5619633595      -17.7423822861       23.1384003535  W2        23824           0.0000000000
     70054     23352  TIP3      OH2             4.3308333595      -31.9345422861       35.4069803535  W2        23825           0.0000000000
     70055     23352  TIP3      H1              3.4380633595      -31.5960022861       35.3393803535  W2        23825           0.0000000000
     70056     23352  TIP3      H2              4.2321133595      -32.7899322861       35.8250603535  W2        23825           0.0000000000
     70057     23353  TIP3      OH2            16.6186433595      -24.1180122861       24.8309303535  W2        23826           0.0000000000
     70058     23353  TIP3      H1             16.3414033595      -24.8460822861       25.3870403535  W2        23826           0.0000000000
     70059     23353  TIP3      H2             17.5459433595      -23.9988122861       25.0361903535  W2        23826           0.0000000000
     70060     23354  TIP3      OH2             3.9820333595      -20.1301022861       33.8419203535  W2        23827           0.0000000000
     70061     23354  TIP3      H1              4.1990633595      -21.0618622861       33.8108903535  W2        23827           0.0000000000
     70062     23354  TIP3      H2              4.2283833595      -19.8556022861       34.7252003535  W2        23827           0.0000000000
     70063     23355  TIP3      OH2             9.8434933595      -21.6786022861       21.0511403535  W2        23828           0.0000000000
     70064     23355  TIP3      H1             10.0824733595      -22.4267922861       20.5040303535  W2        23828           0.0000000000
     70065     23355  TIP3      H2              9.5746233595      -22.0664322861       21.8839203535  W2        23828           0.0000000000
     70066     23356  TIP3      OH2             8.7805533595      -22.1082222861       23.5074003535  W2        23829           0.0000000000
     70067     23356  TIP3      H1              8.9273533595      -22.6282422861       24.2974903535  W2        23829           0.0000000000
     70068     23356  TIP3      H2              8.7777233595      -21.2014622861       23.8139903535  W2        23829           0.0000000000
     70069     23357  TIP3      OH2             5.2336633595      -24.8558922861       24.0179403535  W2        23830           0.0000000000
     70070     23357  TIP3      H1              4.5475933595      -24.5036422861       24.5849103535  W2        23830           0.0000000000
     70071     23357  TIP3      H2              5.7564533595      -24.0929322861       23.7713703535  W2        23830           0.0000000000
     70072     23358  TIP3      OH2            13.0651733595      -32.1935122861       34.2968403535  W2        23831           0.0000000000
     70073     23358  TIP3      H1             13.7639633595      -32.1196422861       34.9468103535  W2        23831           0.0000000000
     70074     23358  TIP3      H2             12.6843133595      -33.0580122861       34.4511303535  W2        23831           0.0000000000
     70075     23359  TIP3      OH2            13.8496633595      -32.5413422861       25.3940703535  W2        23832           0.0000000000
     70076     23359  TIP3      H1             14.0694933595      -32.0698022861       24.5906103535  W2        23832           0.0000000000
     70077     23359  TIP3      H2             14.4080633595      -32.1470822861       26.0641303535  W2        23832           0.0000000000
     70078     23360  TIP3      OH2            11.5182733595      -20.4108622861       24.2568203535  W2        23833           0.0000000000
     70079     23360  TIP3      H1             10.7018833595      -19.9138922861       24.3092503535  W2        23833           0.0000000000
     70080     23360  TIP3      H2             12.0479033595      -19.9355122861       23.6167003535  W2        23833           0.0000000000
     70081     23361  TIP3      OH2            11.0496533595      -30.8134622861       26.2289103535  W2        23834           0.0000000000
     70082     23361  TIP3      H1             11.8619133595      -30.3091422861       26.2750803535  W2        23834           0.0000000000
     70083     23361  TIP3      H2             10.8049533595      -30.9584922861       27.1428703535  W2        23834           0.0000000000
     70084     23362  TIP3      OH2            11.5852933595      -29.8271922861       35.4135703535  W2        23835           0.0000000000
     70085     23362  TIP3      H1             11.7043233595      -29.2536522861       36.1706103535  W2        23835           0.0000000000
     70086     23362  TIP3      H2             12.2407533595      -30.5152522861       35.5283503535  W2        23835           0.0000000000
     70087     23363  TIP3      OH2            11.9333233595      -33.7321622861       27.1670203535  W2        23836           0.0000000000
     70088     23363  TIP3      H1             11.5866733595      -33.1151022861       27.8114503535  W2        23836           0.0000000000
     70089     23363  TIP3      H2             12.5920133595      -33.2315922861       26.6855703535  W2        23836           0.0000000000
     70090     23364  TIP3      OH2             8.8565833595      -19.3671422861       24.2385103535  W2        23837           0.0000000000
     70091     23364  TIP3      H1              9.0174533595      -18.5673922861       23.7377703535  W2        23837           0.0000000000
     70092     23364  TIP3      H2              8.6593633595      -19.0605422861       25.1235703535  W2        23837           0.0000000000
     70093     23365  TIP3      OH2             7.5910233595      -32.6692222861       23.8542703535  W2        23838           0.0000000000
     70094     23365  TIP3      H1              7.5075033595      -31.7809122861       24.2009103535  W2        23838           0.0000000000
     70095     23365  TIP3      H2              8.4810533595      -32.9345522861       24.0859503535  W2        23838           0.0000000000
     70096     23366  TIP3      OH2            16.3919733595      -28.1700622861       30.3442703535  W2        23840           0.0000000000
     70097     23366  TIP3      H1             15.5944133595      -28.5850422861       30.0157703535  W2        23840           0.0000000000
     70098     23366  TIP3      H2             16.8370833595      -28.8606922861       30.8353203535  W2        23840           0.0000000000
     70099     23367  TIP3      OH2             5.8495533595      -22.2420022861       22.9147203535  W2        23841           0.0000000000
     70100     23367  TIP3      H1              6.4417033595      -21.5425222861       23.1909603535  W2        23841           0.0000000000
     70101     23367  TIP3      H2              6.3088533595      -22.6750522861       22.1951803535  W2        23841           0.0000000000
     70102     23368  TIP3      OH2             4.1654733595      -29.5777022861       22.0306603535  W2        23842           0.0000000000
     70103     23368  TIP3      H1              4.1207333595      -28.6383922861       22.2093603535  W2        23842           0.0000000000
     70104     23368  TIP3      H2              3.2777933595      -29.8132122861       21.7608703535  W2        23842           0.0000000000
     70105     23369  TIP3      OH2            17.4784333595      -18.9138122861       31.9666203535  W2        23843           0.0000000000
     70106     23369  TIP3      H1             17.3228633595      -18.2353722861       31.3095503535  W2        23843           0.0000000000
     70107     23369  TIP3      H2             18.4110733595      -18.8418822861       32.1696803535  W2        23843           0.0000000000
     70108     23370  TIP3      OH2             4.9736733595      -34.7960422861       30.7037603535  W2        23844           0.0000000000
     70109     23370  TIP3      H1              4.7446533595      -34.7367922861       29.7762603535  W2        23844           0.0000000000
     70110     23370  TIP3      H2              4.5310133595      -35.5874922861       31.0101703535  W2        23844           0.0000000000
     70111     23371  TIP3      OH2             3.9040033595      -20.8553322861       26.8643403535  W2        23845           0.0000000000
     70112     23371  TIP3      H1              3.0718633595      -20.3830622861       26.8914803535  W2        23845           0.0000000000
     70113     23371  TIP3      H2              4.4498333595      -20.3455722861       26.2656503535  W2        23845           0.0000000000
     70114     23372  TIP3      OH2            11.8816733595      -19.8154622861       21.1897403535  W2        23848           0.0000000000
     70115     23372  TIP3      H1             11.2377733595      -20.4466022861       21.5111103535  W2        23848           0.0000000000
     70116     23372  TIP3      H2             12.6435033595      -20.3466622861       20.9580903535  W2        23848           0.0000000000
     70117     23373  TIP3      OH2            16.4859633595      -19.9984722861       21.4235403535  W2        23850           0.0000000000
     70118     23373  TIP3      H1             16.7690033595      -20.7929522861       21.8762303535  W2        23850           0.0000000000
     70119     23373  TIP3      H2             17.2257533595      -19.7653722861       20.8626503535  W2        23850           0.0000000000
     70120     23374  TIP3      OH2             7.4406933595      -24.0889822861       21.2810303535  W2        23852           0.0000000000
     70121     23374  TIP3      H1              7.5051033595      -24.8830222861       21.8116703535  W2        23852           0.0000000000
     70122     23374  TIP3      H2              8.0936133595      -24.2077022861       20.5912303535  W2        23852           0.0000000000
     70123     23375  TIP3      OH2            12.7930333595      -23.0418122861       21.0168303535  W2        23854           0.0000000000
     70124     23375  TIP3      H1             12.5244433595      -22.8616022861       21.9177203535  W2        23854           0.0000000000
     70125     23375  TIP3      H2             12.5865933595      -23.9671922861       20.8854103535  W2        23854           0.0000000000
     70126     23376  TIP3      OH2             8.5900733595      -26.1163622861       23.5868303535  W2        23857           0.0000000000
     70127     23376  TIP3      H1              8.1302733595      -26.6005322861       24.2726803535  W2        23857           0.0000000000
     70128     23376  TIP3      H2              8.8449433595      -26.7848222861       22.9508803535  W2        23857           0.0000000000
     70129     23377  TIP3      OH2             9.6611133595      -27.8731822861       21.8491503535  W2        23859           0.0000000000
     70130     23377  TIP3      H1              9.4806133595      -28.0280622861       20.9219803535  W2        23859           0.0000000000
     70131     23377  TIP3      H2             10.6111633595      -27.7653122861       21.8939403535  W2        23859           0.0000000000
     70132     23378  TIP3      OH2            19.0509433595      -25.5187622861       21.2949603535  W2        23861           0.0000000000
     70133     23378  TIP3      H1             18.7774233595      -25.9432122861       20.4817903535  W2        23861           0.0000000000
     70134     23378  TIP3      H2             19.0903533595      -24.5873122861       21.0780003535  W2        23861           0.0000000000
     70135     23379  TIP3      OH2             8.6309433595      -32.4989922861       34.5178403535  W2        23863           0.0000000000
     70136     23379  TIP3      H1              9.1666933595      -32.0473222861       33.8657703535  W2        23863           0.0000000000
     70137     23379  TIP3      H2              7.7789033595      -32.6070122861       34.0952503535  W2        23863           0.0000000000
     70138     23380  TIP3      OH2            10.2127833595      -27.0593722861       34.7573603535  W2        23864           0.0000000000
     70139     23380  TIP3      H1             10.9632633595      -27.2156222861       34.1841403535  W2        23864           0.0000000000
     70140     23380  TIP3      H2              9.8736133595      -26.2077122861       34.4819103535  W2        23864           0.0000000000
     70141     23381  TIP3      OH2             9.4364933595      -35.0424222861       34.9492003535  W2        23868           0.0000000000
     70142     23381  TIP3      H1              9.3384533595      -34.0961022861       34.8438203535  W2        23868           0.0000000000
     70143     23381  TIP3      H2              8.6941133595      -35.4150422861       34.4735503535  W2        23868           0.0000000000
     70144     23382  TIP3      OH2             9.5582833595      -17.1828122861       22.8505103535  W2        23875           0.0000000000
     70145     23382  TIP3      H1             10.4913533595      -17.0249422861       22.9943503535  W2        23875           0.0000000000
     70146     23382  TIP3      H2              9.2941633595      -16.5075122861       22.2256603535  W2        23875           0.0000000000
     70147     23383  TIP3      OH2             3.1267733595      -22.5464322861       22.3333203535  W2        23876           0.0000000000
     70148     23383  TIP3      H1              4.0406933595      -22.4675422861       22.6067103535  W2        23876           0.0000000000
     70149     23383  TIP3      H2              3.1340833595      -23.2334722861       21.6668803535  W2        23876           0.0000000000
     70150     23384  TIP3      OH2             1.7758333595      -17.1535822861       27.4107103535  W2        23877           0.0000000000
     70151     23384  TIP3      H1              1.1285433595      -17.6154122861       26.8778303535  W2        23877           0.0000000000
     70152     23384  TIP3      H2              2.1302933595      -17.8252522861       27.9933303535  W2        23877           0.0000000000
     70153     23385  TIP3      OH2             2.6457533595      -19.0728822861       29.2153303535  W2        23878           0.0000000000
     70154     23385  TIP3      H1              2.3114333595      -19.9531522861       29.3873503535  W2        23878           0.0000000000
     70155     23385  TIP3      H2              2.8679933595      -18.7273822861       30.0798903535  W2        23878           0.0000000000
     70156     23386  TIP3      OH2            20.1942333595      -18.2632422861       32.1958103535  W2        23879           0.0000000000
     70157     23386  TIP3      H1             20.1729033595      -18.0784022861       33.1347503535  W2        23879           0.0000000000
     70158     23386  TIP3      H2             20.8848533595      -17.6948422861       31.8549503535  W2        23879           0.0000000000
     70159     23387  TIP3      OH2            19.7575233595      -18.6961322861       35.1177203535  W2        23880           0.0000000000
     70160     23387  TIP3      H1             19.2703933595      -19.4317222861       34.7464603535  W2        23880           0.0000000000
     70161     23387  TIP3      H2             20.3067933595      -19.0897422861       35.7956603535  W2        23880           0.0000000000
     70162     23388  TIP3      OH2            19.5092233595      -24.6499522861       25.2700003535  W2        23882           0.0000000000
     70163     23388  TIP3      H1             20.3593633595      -24.2288622861       25.3971603535  W2        23882           0.0000000000
     70164     23388  TIP3      H2             19.5147333595      -25.3899422861       25.8771403535  W2        23882           0.0000000000
     70165     23389  TIP3      OH2            19.9037833595      -26.5962122861       27.0935703535  W2        23883           0.0000000000
     70166     23389  TIP3      H1             19.1772433595      -27.0759522861       27.4913303535  W2        23883           0.0000000000
     70167     23389  TIP3      H2             20.4851133595      -26.3907422861       27.8257303535  W2        23883           0.0000000000
     70168     23390  TIP3      OH2            19.6629033595      -23.8114622861       32.0413303535  W2        23884           0.0000000000
     70169     23390  TIP3      H1             20.4963233595      -24.1894622861       31.7606903535  W2        23884           0.0000000000
     70170     23390  TIP3      H2             19.7749333595      -22.8683422861       31.9222403535  W2        23884           0.0000000000
     70171     23391  TIP3      OH2            18.1491333595      -20.9337122861       34.3481703535  W2        23885           0.0000000000
     70172     23391  TIP3      H1             17.5016633595      -20.6085622861       34.9736903535  W2        23885           0.0000000000
     70173     23391  TIP3      H2             17.6315333595      -21.3739422861       33.6740003535  W2        23885           0.0000000000
     70174     23392  TIP3      OH2            20.1720933595      -26.6953622861       23.4847003535  W2        23886           0.0000000000
     70175     23392  TIP3      H1             19.6502033595      -26.3389522861       22.7657903535  W2        23886           0.0000000000
     70176     23392  TIP3      H2             20.1390133595      -26.0205822861       24.1627903535  W2        23886           0.0000000000
     70177     23393  TIP3      OH2            18.5209933595      -29.4558022861       22.0354103535  W2        23887           0.0000000000
     70178     23393  TIP3      H1             18.6174333595      -28.7891022861       21.3553803535  W2        23887           0.0000000000
     70179     23393  TIP3      H2             18.3809533595      -30.2711722861       21.5539603535  W2        23887           0.0000000000
     70180     23394  TIP3      OH2            17.6904633595      -28.0755622861       27.6564403535  W2        23888           0.0000000000
     70181     23394  TIP3      H1             17.5403433595      -29.0207022861       27.6362203535  W2        23888           0.0000000000
     70182     23394  TIP3      H2             17.3369133595      -27.7944222861       28.5003503535  W2        23888           0.0000000000
     70183     23395  TIP3      OH2             2.7257033595      -25.9973422861       31.6668203535  W2        23889           0.0000000000
     70184     23395  TIP3      H1              2.9099933595      -26.0791722861       30.7311103535  W2        23889           0.0000000000
     70185     23395  TIP3      H2              3.5749933595      -26.1216422861       32.0904603535  W2        23889           0.0000000000
     70186     23396  TIP3      OH2            17.7683733595      -32.0478222861       21.1529603535  W2        23892           0.0000000000
     70187     23396  TIP3      H1             18.3789533595      -32.4191422861       21.7897803535  W2        23892           0.0000000000
     70188     23396  TIP3      H2             16.9315233595      -32.4691322861       21.3489603535  W2        23892           0.0000000000
     70189     23397  TIP3      OH2            17.4009433595      -30.4929822861       26.1189503535  W2        23893           0.0000000000
     70190     23397  TIP3      H1             17.6806533595      -31.3999422861       26.2431203535  W2        23893           0.0000000000
     70191     23397  TIP3      H2             18.1601133595      -30.0588322861       25.7298703535  W2        23893           0.0000000000
     70192     23398  TIP3      OH2            18.0127733595      -29.9112422861       31.5548403535  W2        23894           0.0000000000
     70193     23398  TIP3      H1             18.9455733595      -29.6992522861       31.5204403535  W2        23894           0.0000000000
     70194     23398  TIP3      H2             17.7775233595      -29.8100322861       32.4771403535  W2        23894           0.0000000000
     70195     23399  TIP3      OH2            18.0419633595      -29.1747122861       34.3307803535  W2        23895           0.0000000000
     70196     23399  TIP3      H1             17.1990933595      -28.9066722861       34.6967603535  W2        23895           0.0000000000
     70197     23399  TIP3      H2             18.4843933595      -28.3525222861       34.1198903535  W2        23895           0.0000000000
     70198     23400  TIP3      OH2            18.0144233595      -33.2300522861       26.1671503535  W2        23898           0.0000000000
     70199     23400  TIP3      H1             18.1969233595      -33.6789022861       26.9926503535  W2        23898           0.0000000000
     70200     23400  TIP3      H2             17.4147133595      -33.8146122861       25.7036103535  W2        23898           0.0000000000
     70201     23401  TIP3      OH2             3.5444333595      -32.4146822861       30.6989903535  W2        23899           0.0000000000
     70202     23401  TIP3      H1              3.9895933595      -33.2064322861       31.0009603535  W2        23899           0.0000000000
     70203     23401  TIP3      H2              4.0107333595      -31.6981622861       31.1295503535  W2        23899           0.0000000000
     70204     23402  TIP3      OH2             1.8484633595      -29.4153822861       31.7680103535  W2        23900           0.0000000000
     70205     23402  TIP3      H1              2.3404433595      -29.6363322861       30.9772103535  W2        23900           0.0000000000
     70206     23402  TIP3      H2              2.2105533595      -28.5750422861       32.0489603535  W2        23900           0.0000000000
     70207     23403  TIP3      OH2            19.8810433595      -33.1622422861       22.6951803535  W2        23902           0.0000000000
     70208     23403  TIP3      H1             20.2933033595      -33.8836722861       22.2199803535  W2        23902           0.0000000000
     70209     23403  TIP3      H2             20.5626933595      -32.4927822861       22.7536103535  W2        23902           0.0000000000
     70210     23404  TIP3      OH2             2.1621133595      -33.1574722861       25.8222503535  W2        23903           0.0000000000
     70211     23404  TIP3      H1              1.2369533595      -32.9488122861       25.6928003535  W2        23903           0.0000000000
     70212     23404  TIP3      H2              2.6161033595      -32.6733922861       25.1324803535  W2        23903           0.0000000000
     70213     23405  TIP3      OH2            16.9328333595      -18.1733022861       27.7679903535  W2        23904           0.0000000000
     70214     23405  TIP3      H1             17.5851233595      -18.5210922861       27.1599003535  W2        23904           0.0000000000
     70215     23405  TIP3      H2             17.4432133595      -17.6849822861       28.4139603535  W2        23904           0.0000000000
     70216     23406  TIP3      OH2             2.1256533595      -34.4195722861       34.1665003535  W2        23905           0.0000000000
     70217     23406  TIP3      H1              1.4607033595      -34.6655422861       34.8095903535  W2        23905           0.0000000000
     70218     23406  TIP3      H2              1.6827833595      -33.7975322861       33.5893003535  W2        23905           0.0000000000
     70219     23407  TIP3      OH2             7.2718733595      -20.2700422861       34.5694803535  W2        23907           0.0000000000
     70220     23407  TIP3      H1              6.8469833595      -19.4601922861       34.2869403535  W2        23907           0.0000000000
     70221     23407  TIP3      H2              8.1761533595      -20.1846322861       34.2674603535  W2        23907           0.0000000000
     70222     23408  TIP3      OH2             4.6735433595      -17.0136522861       34.6170103535  W2        23911           0.0000000000
     70223     23408  TIP3      H1              3.9531833595      -16.5735522861       34.1657803535  W2        23911           0.0000000000
     70224     23408  TIP3      H2              4.3079433595      -17.2641822861       35.4654103535  W2        23911           0.0000000000
     70225     23409  TIP3      OH2             7.1408033595      -17.4132622861       33.6467303535  W2        23912           0.0000000000
     70226     23409  TIP3      H1              6.2760233595      -17.3414122861       34.0507403535  W2        23912           0.0000000000
     70227     23409  TIP3      H2              7.0857033595      -16.8665322861       32.8629803535  W2        23912           0.0000000000
     70228     23410  TIP3      OH2            11.8513633595      -17.5253722861       32.8223303535  W2        23913           0.0000000000
     70229     23410  TIP3      H1             11.3947633595      -16.9964022861       32.1681703535  W2        23913           0.0000000000
     70230     23410  TIP3      H2             12.0141633595      -16.9222322861       33.5475603535  W2        23913           0.0000000000
     70231     23411  TIP3      OH2            14.1789933595      -18.6474122861       33.7673603535  W2        23914           0.0000000000
     70232     23411  TIP3      H1             13.2743633595      -18.4823922861       33.5015703535  W2        23914           0.0000000000
     70233     23411  TIP3      H2             14.6078533595      -17.7941922861       33.7017003535  W2        23914           0.0000000000
     70234     23412  TIP3      OH2            16.7831833595      -17.0775022861       34.0621403535  W2        23915           0.0000000000
     70235     23412  TIP3      H1             16.6013833595      -16.1616122861       33.8516303535  W2        23915           0.0000000000
     70236     23412  TIP3      H2             16.9599633595      -17.4877922861       33.2156003535  W2        23915           0.0000000000
     70237     23413  TIP3      OH2             4.0883533595      -18.3904022861       31.5271903535  W2        23916           0.0000000000
     70238     23413  TIP3      H1              4.0699533595      -18.8158922861       32.3844203535  W2        23916           0.0000000000
     70239     23413  TIP3      H2              4.8931433595      -18.7089022861       31.1184103535  W2        23916           0.0000000000
     70240     23414  TIP3      OH2             6.2296633595      -19.6805322861       30.1821803535  W2        23917           0.0000000000
     70241     23414  TIP3      H1              6.0107333595      -20.5967922861       30.3517803535  W2        23917           0.0000000000
     70242     23414  TIP3      H2              7.0538833595      -19.5404922861       30.6483203535  W2        23917           0.0000000000
     70243     23415  TIP3      OH2             8.7669133595      -19.2106022861       31.0309803535  W2        23918           0.0000000000
     70244     23415  TIP3      H1              8.9794833595      -20.0987022861       30.7440703535  W2        23918           0.0000000000
     70245     23415  TIP3      H2              8.8314233595      -19.2448322861       31.9853803535  W2        23918           0.0000000000
     70246     23416  TIP3      OH2            12.2752833595      -33.5465422861       30.1753103535  W2        23919           0.0000000000
     70247     23416  TIP3      H1             11.6009633595      -34.1759822861       30.4308903535  W2        23919           0.0000000000
     70248     23416  TIP3      H2             12.8392033595      -34.0306522861       29.5721003535  W2        23919           0.0000000000
     70249     23417  TIP3      OH2            17.4180033595      -35.4391422861       30.2880203535  W2        23920           0.0000000000
     70250     23417  TIP3      H1             18.0217633595      -34.8916022861       29.7861203535  W2        23920           0.0000000000
     70251     23417  TIP3      H2             16.5482033595      -35.1201022861       30.0474303535  W2        23920           0.0000000000
     70252     23418  TIP3      OH2            19.1450433595      -34.3002722861       28.6211103535  W2        23921           0.0000000000
     70253     23418  TIP3      H1             19.7567933595      -34.8147022861       28.0944703535  W2        23921           0.0000000000
     70254     23418  TIP3      H2             19.5273833595      -33.4230622861       28.6445503535  W2        23921           0.0000000000
     70255     23419  TIP3      OH2             4.6020333595      -34.9125122861       27.9973003535  W2        23922           0.0000000000
     70256     23419  TIP3      H1              3.8250133595      -35.1470222861       27.4898903535  W2        23922           0.0000000000
     70257     23419  TIP3      H2              5.1323933595      -35.7093022861       28.0061003535  W2        23922           0.0000000000
     70258     23420  TIP3      OH2             3.4383733595      -35.1147022861       23.8009103535  W2        23923           0.0000000000
     70259     23420  TIP3      H1              3.8774433595      -34.5036522861       23.2092603535  W2        23923           0.0000000000
     70260     23420  TIP3      H2              2.8046133595      -34.5762922861       24.2749103535  W2        23923           0.0000000000
     70261     23421  TIP3      OH2             9.1812933595      -34.9858022861       27.8106103535  W2        23924           0.0000000000
     70262     23421  TIP3      H1             10.0556333595      -34.5973722861       27.7810403535  W2        23924           0.0000000000
     70263     23421  TIP3      H2              9.0453733595      -35.2010222861       28.7333303535  W2        23924           0.0000000000
     70264     23422  TIP3      OH2            14.7381333595      -34.9558222861       29.4597803535  W2        23925           0.0000000000
     70265     23422  TIP3      H1             14.8142933595      -34.8606622861       28.5103803535  W2        23925           0.0000000000
     70266     23422  TIP3      H2             14.4630533595      -35.8635322861       29.5886903535  W2        23925           0.0000000000
     70267     23423  TIP3      OH2            16.0913933595      -34.9300422861       25.1522803535  W2        23926           0.0000000000
     70268     23423  TIP3      H1             15.3885033595      -34.3151222861       24.9424203535  W2        23926           0.0000000000
     70269     23423  TIP3      H2             15.6465333595      -35.7673722861       25.2833703535  W2        23926           0.0000000000
     70270     23424  TIP3      OH2             3.3393233595      -19.1664822861       24.6984203535  W2        23927           0.0000000000
     70271     23424  TIP3      H1              2.6543133595      -19.2045922861       24.0309303535  W2        23927           0.0000000000
     70272     23424  TIP3      H2              3.3430433595      -18.2537222861       24.9866303535  W2        23927           0.0000000000
     70273     23425  TIP3      OH2             5.2992833595      -33.1985522861       22.2433203535  W2        23928           0.0000000000
     70274     23425  TIP3      H1              5.7906233595      -33.8283122861       21.7158703535  W2        23928           0.0000000000
     70275     23425  TIP3      H2              5.9229133595      -32.9026122861       22.9064403535  W2        23928           0.0000000000
     70276     23426  TIP3      OH2            10.3252933595      -32.9054022861       24.7003703535  W2        23929           0.0000000000
     70277     23426  TIP3      H1             10.5034233595      -33.5520822861       25.3832303535  W2        23929           0.0000000000
     70278     23426  TIP3      H2             10.2719133595      -32.0716322861       25.1674803535  W2        23929           0.0000000000
     70279     23427  TIP3      OH2            12.2036733595      -17.9569922861       23.0960403535  W2        23930           0.0000000000
     70280     23427  TIP3      H1             13.0696933595      -17.5902522861       22.9178603535  W2        23930           0.0000000000
     70281     23427  TIP3      H2             11.9569533595      -18.3961922861       22.2821203535  W2        23930           0.0000000000
     70282     23428  TIP3      OH2            18.9126333595      -18.3939622861       25.7751503535  W2        23931           0.0000000000
     70283     23428  TIP3      H1             18.7183433595      -19.1417522861       25.2101103535  W2        23931           0.0000000000
     70284     23428  TIP3      H2             18.8736433595      -17.6359522861       25.1919403535  W2        23931           0.0000000000
     70285     23429  TIP3      OH2             5.1574433595      -18.2464022861       21.7236303535  W2        23934           0.0000000000
     70286     23429  TIP3      H1              4.8899033595      -17.9601122861       22.5969403535  W2        23934           0.0000000000
     70287     23429  TIP3      H2              5.9287033595      -18.7924822861       21.8758803535  W2        23934           0.0000000000
     70288     23430  TIP3      OH2            32.5362933595      -25.7562822861       27.9560503535  W2        23937           0.0000000000
     70289     23430  TIP3      H1             32.6254033595      -24.8124622861       27.8237603535  W2        23937           0.0000000000
     70290     23430  TIP3      H2             31.8980533595      -26.0316422861       27.2979903535  W2        23937           0.0000000000
     70291     23431  TIP3      OH2            31.4694233595      -26.5012122861       31.3748703535  W2        23938           0.0000000000
     70292     23431  TIP3      H1             31.4311733595      -27.1475822861       32.0798303535  W2        23938           0.0000000000
     70293     23431  TIP3      H2             31.1470733595      -26.9677722861       30.6037403535  W2        23938           0.0000000000
     70294     23432  TIP3      OH2            23.8379233595      -26.8870022861       32.9678603535  W2        23939           0.0000000000
     70295     23432  TIP3      H1             23.8791333595      -27.5126722861       33.6911003535  W2        23939           0.0000000000
     70296     23432  TIP3      H2             24.5406933595      -26.2631422861       33.1499003535  W2        23939           0.0000000000
     70297     23433  TIP3      OH2            35.1754433595      -23.5621722861       29.6763803535  W2        23940           0.0000000000
     70298     23433  TIP3      H1             34.7347133595      -24.2825722861       30.1269403535  W2        23940           0.0000000000
     70299     23433  TIP3      H2             35.1624133595      -22.8414522861       30.3061503535  W2        23940           0.0000000000
     70300     23434  TIP3      OH2            24.7612333595      -22.4371122861       31.5027703535  W2        23941           0.0000000000
     70301     23434  TIP3      H1             24.3917533595      -23.2390622861       31.1332003535  W2        23941           0.0000000000
     70302     23434  TIP3      H2             25.7023433595      -22.6056222861       31.5491103535  W2        23941           0.0000000000
     70303     23435  TIP3      OH2            21.3712833595      -28.7768522861       26.8956503535  W2        23942           0.0000000000
     70304     23435  TIP3      H1             20.9236233595      -27.9309822861       26.8773003535  W2        23942           0.0000000000
     70305     23435  TIP3      H2             20.8104033595      -29.3564322861       26.3801603535  W2        23942           0.0000000000
     70306     23436  TIP3      OH2            22.0818933595      -26.6148922861       29.0214503535  W2        23943           0.0000000000
     70307     23436  TIP3      H1             22.2952433595      -27.3847322861       29.5487503535  W2        23943           0.0000000000
     70308     23436  TIP3      H2             22.8196533595      -26.5252222861       28.4182103535  W2        23943           0.0000000000
     70309     23437  TIP3      OH2            32.2869933595      -18.4580022861       29.8884203535  W2        23944           0.0000000000
     70310     23437  TIP3      H1             32.9066333595      -19.1345322861       29.6153403535  W2        23944           0.0000000000
     70311     23437  TIP3      H2             32.0787333595      -18.6759222861       30.7969103535  W2        23944           0.0000000000
     70312     23438  TIP3      OH2            29.8588633595      -24.0690722861       31.7809703535  W2        23945           0.0000000000
     70313     23438  TIP3      H1             30.1626533595      -24.7549322861       31.1863803535  W2        23945           0.0000000000
     70314     23438  TIP3      H2             30.5802633595      -23.9502022861       32.3987703535  W2        23945           0.0000000000
     70315     23439  TIP3      OH2            38.5218433595      -32.4675422861       32.6415903535  W2        23946           0.0000000000
     70316     23439  TIP3      H1             38.5710633595      -31.8574222861       33.3775003535  W2        23946           0.0000000000
     70317     23439  TIP3      H2             38.9473533595      -32.0064522861       31.9187003535  W2        23946           0.0000000000
     70318     23440  TIP3      OH2            32.9995633595      -29.6748322861       32.1084503535  W2        23947           0.0000000000
     70319     23440  TIP3      H1             33.1421533595      -30.6211322861       32.1286103535  W2        23947           0.0000000000
     70320     23440  TIP3      H2             32.8934633595      -29.4678522861       31.1799403535  W2        23947           0.0000000000
     70321     23441  TIP3      OH2            26.1543933595      -31.5731922861       29.3809303535  W2        23948           0.0000000000
     70322     23441  TIP3      H1             26.1975033595      -30.7133422861       28.9625603535  W2        23948           0.0000000000
     70323     23441  TIP3      H2             25.6968033595      -32.1257222861       28.7472503535  W2        23948           0.0000000000
     70324     23442  TIP3      OH2            33.8766633595      -31.4426322861       27.7817603535  W2        23949           0.0000000000
     70325     23442  TIP3      H1             34.5230933595      -31.7713122861       28.4065203535  W2        23949           0.0000000000
     70326     23442  TIP3      H2             34.3866033595      -30.9247322861       27.1589003535  W2        23949           0.0000000000
     70327     23443  TIP3      OH2            22.7745433595      -29.1766122861       30.1430703535  W2        23950           0.0000000000
     70328     23443  TIP3      H1             23.4282033595      -29.7264422861       30.5750803535  W2        23950           0.0000000000
     70329     23443  TIP3      H2             22.7984733595      -29.4507122861       29.2262703535  W2        23950           0.0000000000
     70330     23444  TIP3      OH2            27.9309933595      -27.6264822861       29.3582203535  W2        23951           0.0000000000
     70331     23444  TIP3      H1             28.5470933595      -28.1529422861       29.8676203535  W2        23951           0.0000000000
     70332     23444  TIP3      H2             27.3448733595      -28.2666122861       28.9545803535  W2        23951           0.0000000000
     70333     23445  TIP3      OH2            38.9133033595      -30.9896222861       34.8775703535  W2        23952           0.0000000000
     70334     23445  TIP3      H1             38.2247633595      -30.3315522861       34.7822303535  W2        23952           0.0000000000
     70335     23445  TIP3      H2             38.9287633595      -31.1868322861       35.8141103535  W2        23952           0.0000000000
     70336     23446  TIP3      OH2            24.9645833595      -32.6553522861       33.4550103535  W2        23953           0.0000000000
     70337     23446  TIP3      H1             24.7457533595      -32.1252922861       32.6886103535  W2        23953           0.0000000000
     70338     23446  TIP3      H2             24.2966733595      -32.4288022861       34.1021503535  W2        23953           0.0000000000
     70339     23447  TIP3      OH2            32.3335633595      -23.1552422861       26.9989203535  W2        23954           0.0000000000
     70340     23447  TIP3      H1             32.0380733595      -23.4780122861       26.1476103535  W2        23954           0.0000000000
     70341     23447  TIP3      H2             32.0093433595      -22.2555722861       27.0401803535  W2        23954           0.0000000000
     70342     23448  TIP3      OH2            27.5337233595      -24.9797822861       33.7423803535  W2        23955           0.0000000000
     70343     23448  TIP3      H1             26.7936333595      -24.3816322861       33.8459003535  W2        23955           0.0000000000
     70344     23448  TIP3      H2             28.2476733595      -24.4258222861       33.4267403535  W2        23955           0.0000000000
     70345     23449  TIP3      OH2            35.6405033595      -32.1517022861       29.7623503535  W2        23956           0.0000000000
     70346     23449  TIP3      H1             35.4253033595      -32.9173622861       30.2949503535  W2        23956           0.0000000000
     70347     23449  TIP3      H2             36.2962433595      -31.6792422861       30.2752003535  W2        23956           0.0000000000
     70348     23450  TIP3      OH2            24.5583133595      -30.7631722861       31.4072303535  W2        23957           0.0000000000
     70349     23450  TIP3      H1             25.1719433595      -30.1304122861       31.7804703535  W2        23957           0.0000000000
     70350     23450  TIP3      H2             25.0703833595      -31.2356722861       30.7509203535  W2        23957           0.0000000000
     70351     23451  TIP3      OH2            25.9411533595      -23.0154822861       34.5295303535  W2        23958           0.0000000000
     70352     23451  TIP3      H1             25.9359133595      -22.1361322861       34.1514603535  W2        23958           0.0000000000
     70353     23451  TIP3      H2             25.0875633595      -23.0990722861       34.9545203535  W2        23958           0.0000000000
     70354     23452  TIP3      OH2            22.0622433595      -23.3446922861       25.3114603535  W2        23959           0.0000000000
     70355     23452  TIP3      H1             21.7903333595      -23.1155922861       24.4227503535  W2        23959           0.0000000000
     70356     23452  TIP3      H2             22.1078133595      -22.5068122861       25.7719903535  W2        23959           0.0000000000
     70357     23453  TIP3      OH2            35.6872133595      -21.7231022861       32.0243103535  W2        23960           0.0000000000
     70358     23453  TIP3      H1             34.7455833595      -21.6647122861       32.1860003535  W2        23960           0.0000000000
     70359     23453  TIP3      H2             35.9638233595      -20.8170522861       31.8872803535  W2        23960           0.0000000000
     70360     23454  TIP3      OH2            35.9879133595      -33.4365722861       33.4417003535  W2        23961           0.0000000000
     70361     23454  TIP3      H1             35.2518333595      -32.8258622861       33.4038303535  W2        23961           0.0000000000
     70362     23454  TIP3      H2             36.6713133595      -33.0216722861       32.9153403535  W2        23961           0.0000000000
     70363     23455  TIP3      OH2            28.9910533595      -35.3498422861       30.9075003535  W2        23962           0.0000000000
     70364     23455  TIP3      H1             28.8734733595      -36.2982422861       30.8533303535  W2        23962           0.0000000000
     70365     23455  TIP3      H2             28.1360633595      -35.0172322861       31.1806103535  W2        23962           0.0000000000
     70366     23456  TIP3      OH2            33.9393333595      -19.9417522861       28.6494703535  W2        23963           0.0000000000
     70367     23456  TIP3      H1             34.3645633595      -20.6489622861       28.1644303535  W2        23963           0.0000000000
     70368     23456  TIP3      H2             34.2563333595      -19.1404822861       28.2326903535  W2        23963           0.0000000000
     70369     23457  TIP3      OH2            35.0989833595      -22.0409022861       27.1581303535  W2        23964           0.0000000000
     70370     23457  TIP3      H1             34.8414633595      -22.7308922861       26.5467203535  W2        23964           0.0000000000
     70371     23457  TIP3      H2             35.1700633595      -22.4837822861       28.0037203535  W2        23964           0.0000000000
     70372     23458  TIP3      OH2            31.2575433595      -26.5122822861       25.4080803535  W2        23966           0.0000000000
     70373     23458  TIP3      H1             30.5460933595      -25.9773122861       25.0561303535  W2        23966           0.0000000000
     70374     23458  TIP3      H2             31.9485033595      -26.4570722861       24.7479703535  W2        23966           0.0000000000
     70375     23459  TIP3      OH2            31.3114633595      -28.0548522861       22.4465803535  W2        23967           0.0000000000
     70376     23459  TIP3      H1             32.0124533595      -28.0321622861       23.0979803535  W2        23967           0.0000000000
     70377     23459  TIP3      H2             31.6137533595      -28.6828822861       21.7905103535  W2        23967           0.0000000000
     70378     23460  TIP3      OH2            38.6269333595      -27.1344322861       33.7015203535  W2        23968           0.0000000000
     70379     23460  TIP3      H1             37.9743433595      -26.4398722861       33.7906103535  W2        23968           0.0000000000
     70380     23460  TIP3      H2             39.0919633595      -26.9243422861       32.8916803535  W2        23968           0.0000000000
     70381     23461  TIP3      OH2            34.6633133595      -26.3029522861       26.3596703535  W2        23969           0.0000000000
     70382     23461  TIP3      H1             33.9314133595      -26.0745822861       26.9327303535  W2        23969           0.0000000000
     70383     23461  TIP3      H2             35.1105333595      -27.0166822861       26.8144203535  W2        23969           0.0000000000
     70384     23462  TIP3      OH2            34.5606633595      -28.1286922861       35.4273703535  W2        23970           0.0000000000
     70385     23462  TIP3      H1             34.6405733595      -27.3652522861       35.9992203535  W2        23970           0.0000000000
     70386     23462  TIP3      H2             33.9594333595      -27.8494522861       34.7368803535  W2        23970           0.0000000000
     70387     23463  TIP3      OH2            26.3086833595      -25.6723322861       28.2421703535  W2        23971           0.0000000000
     70388     23463  TIP3      H1             25.9782033595      -26.0429922861       27.4238703535  W2        23971           0.0000000000
     70389     23463  TIP3      H2             26.8970933595      -26.3429322861       28.5890003535  W2        23971           0.0000000000
     70390     23464  TIP3      OH2            27.6754333595      -22.2442722861       30.9233903535  W2        23972           0.0000000000
     70391     23464  TIP3      H1             27.5805633595      -22.8229622861       30.1668503535  W2        23972           0.0000000000
     70392     23464  TIP3      H2             28.4047933595      -22.6157022861       31.4196703535  W2        23972           0.0000000000
     70393     23465  TIP3      OH2            26.6752333595      -26.9037722861       31.8756703535  W2        23973           0.0000000000
     70394     23465  TIP3      H1             27.2404833595      -26.7823522861       31.1127903535  W2        23973           0.0000000000
     70395     23465  TIP3      H2             26.9941233595      -26.2662722861       32.5145203535  W2        23973           0.0000000000
     70396     23466  TIP3      OH2            32.9844533595      -21.4005822861       32.6097203535  W2        23974           0.0000000000
     70397     23466  TIP3      H1             32.7441133595      -20.7382722861       33.2576403535  W2        23974           0.0000000000
     70398     23466  TIP3      H2             32.7862733595      -22.2350622861       33.0346803535  W2        23974           0.0000000000
     70399     23467  TIP3      OH2            33.5342633595      -27.1406622861       24.0447903535  W2        23976           0.0000000000
     70400     23467  TIP3      H1             34.1138133595      -26.9906322861       24.7916803535  W2        23976           0.0000000000
     70401     23467  TIP3      H2             33.9482633595      -26.6699222861       23.3214303535  W2        23976           0.0000000000
     70402     23468  TIP3      OH2            31.2607533595      -20.4038122861       27.4801003535  W2        23978           0.0000000000
     70403     23468  TIP3      H1             31.7345133595      -20.1081822861       28.2575203535  W2        23978           0.0000000000
     70404     23468  TIP3      H2             30.6976833595      -19.6656522861       27.2470603535  W2        23978           0.0000000000
     70405     23469  TIP3      OH2            37.2331033595      -35.3906222861       23.8577603535  W2        23980           0.0000000000
     70406     23469  TIP3      H1             36.3331733595      -35.2517222861       24.1528203535  W2        23980           0.0000000000
     70407     23469  TIP3      H2             37.4849433595      -34.5591622861       23.4559303535  W2        23980           0.0000000000
     70408     23470  TIP3      OH2            25.2989533595      -26.6029022861       25.8314503535  W2        23981           0.0000000000
     70409     23470  TIP3      H1             25.0070833595      -25.8347322861       25.3405803535  W2        23981           0.0000000000
     70410     23470  TIP3      H2             24.6244733595      -27.2622822861       25.6685903535  W2        23981           0.0000000000
     70411     23471  TIP3      OH2            38.4222433595      -21.0243822861       22.2341503535  W2        23982           0.0000000000
     70412     23471  TIP3      H1             38.4955933595      -20.0853622861       22.4046803535  W2        23982           0.0000000000
     70413     23471  TIP3      H2             39.3277533595      -21.3295222861       22.1778803535  W2        23982           0.0000000000
     70414     23472  TIP3      OH2            21.3919633595      -24.2399822861       34.6464303535  W2        23983           0.0000000000
     70415     23472  TIP3      H1             20.8908033595      -24.2680422861       33.8314003535  W2        23983           0.0000000000
     70416     23472  TIP3      H2             21.3973333595      -25.1456622861       34.9561603535  W2        23983           0.0000000000
     70417     23473  TIP3      OH2            21.1422333595      -21.4596022861       31.5304503535  W2        23984           0.0000000000
     70418     23473  TIP3      H1             22.0882933595      -21.6039022861       31.5114003535  W2        23984           0.0000000000
     70419     23473  TIP3      H2             21.0298633595      -20.6753222861       32.0675703535  W2        23984           0.0000000000
     70420     23474  TIP3      OH2            30.7330633595      -17.4473422861       25.8950203535  W2        23987           0.0000000000
     70421     23474  TIP3      H1             30.6576633595      -17.5686222861       24.9485403535  W2        23987           0.0000000000
     70422     23474  TIP3      H2             30.7659333595      -16.4980722861       26.0134803535  W2        23987           0.0000000000
     70423     23475  TIP3      OH2            24.3864433595      -18.6586422861       27.6759203535  W2        23988           0.0000000000
     70424     23475  TIP3      H1             24.5384833595      -19.0066022861       28.5545703535  W2        23988           0.0000000000
     70425     23475  TIP3      H2             23.5354833595      -19.0149122861       27.4206403535  W2        23988           0.0000000000
     70426     23476  TIP3      OH2            33.8346633595      -18.2933222861       22.8972603535  W2        23989           0.0000000000
     70427     23476  TIP3      H1             34.2095033595      -19.0377122861       22.4265203535  W2        23989           0.0000000000
     70428     23476  TIP3      H2             33.8390333595      -18.5632622861       23.8155903535  W2        23989           0.0000000000
     70429     23477  TIP3      OH2            33.5034733595      -18.3676122861       25.6464803535  W2        23990           0.0000000000
     70430     23477  TIP3      H1             32.5684533595      -18.2674222861       25.8251803535  W2        23990           0.0000000000
     70431     23477  TIP3      H2             33.7836633595      -19.0770122861       26.2248003535  W2        23990           0.0000000000
     70432     23478  TIP3      OH2            26.2598133595      -34.4463922861       31.6851303535  W2        23993           0.0000000000
     70433     23478  TIP3      H1             25.3981833595      -34.5335722861       31.2774203535  W2        23993           0.0000000000
     70434     23478  TIP3      H2             26.2373833595      -33.5903822861       32.1128903535  W2        23993           0.0000000000
     70435     23479  TIP3      OH2            30.9225933595      -34.7243522861       35.0598303535  W2        23994           0.0000000000
     70436     23479  TIP3      H1             31.3429033595      -35.1396422861       35.8128903535  W2        23994           0.0000000000
     70437     23479  TIP3      H2             29.9895533595      -34.9030222861       35.1770303535  W2        23994           0.0000000000
     70438     23480  TIP3      OH2            35.0115733595      -26.1078322861       21.6745803535  W2        23996           0.0000000000
     70439     23480  TIP3      H1             35.0536533595      -26.3304422861       20.7445803535  W2        23996           0.0000000000
     70440     23480  TIP3      H2             35.8607833595      -25.7091222861       21.8645703535  W2        23996           0.0000000000
     70441     23481  TIP3      OH2            30.5843233595      -32.2320122861       22.3449103535  W2        23997           0.0000000000
     70442     23481  TIP3      H1             30.3308033595      -32.2128522861       23.2677203535  W2        23997           0.0000000000
     70443     23481  TIP3      H2             30.3275333595      -33.1034722861       22.0435303535  W2        23997           0.0000000000
     70444     23482  TIP3      OH2            26.3508233595      -29.4809422861       32.7801503535  W2        23998           0.0000000000
     70445     23482  TIP3      H1             25.7090333595      -29.5212122861       33.4891603535  W2        23998           0.0000000000
     70446     23482  TIP3      H2             26.3880233595      -28.5544722861       32.5424503535  W2        23998           0.0000000000
     70447     23483  TIP3      OH2            26.3477333595      -29.2599322861       27.6921503535  W2        23999           0.0000000000
     70448     23483  TIP3      H1             25.4550233595      -29.6003222861       27.6335303535  W2        23999           0.0000000000
     70449     23483  TIP3      H2             26.7983933595      -29.6368422861       26.9364703535  W2        23999           0.0000000000
     70450     23484  TIP3      OH2            31.8832833595      -28.8439022861       26.5092303535  W2        24000           0.0000000000
     70451     23484  TIP3      H1             31.4743133595      -28.0290422861       26.2177103535  W2        24000           0.0000000000
     70452     23484  TIP3      H2             32.6039033595      -28.9838922861       25.8949403535  W2        24000           0.0000000000
     70453     23485  TIP3      OH2            32.8880533595      -29.3978622861       29.3232003535  W2        24002           0.0000000000
     70454     23485  TIP3      H1             32.6925033595      -28.7921822861       28.6082603535  W2        24002           0.0000000000
     70455     23485  TIP3      H2             33.0693133595      -30.2313422861       28.8888303535  W2        24002           0.0000000000
     70456     23486  TIP3      OH2            24.1008733595      -29.1605922861       34.6473503535  W2        24003           0.0000000000
     70457     23486  TIP3      H1             24.0628133595      -28.7604322861       35.5160603535  W2        24003           0.0000000000
     70458     23486  TIP3      H2             23.6099833595      -29.9773522861       34.7376403535  W2        24003           0.0000000000
     70459     23487  TIP3      OH2            27.4666133595      -31.7863622861       21.4459503535  W2        24004           0.0000000000
     70460     23487  TIP3      H1             27.0356833595      -32.2313522861       22.1756903535  W2        24004           0.0000000000
     70461     23487  TIP3      H2             26.7484833595      -31.4147322861       20.9337003535  W2        24004           0.0000000000
     70462     23488  TIP3      OH2            20.7089533595      -32.0444122861       28.4978203535  W2        24005           0.0000000000
     70463     23488  TIP3      H1             21.3397233595      -32.0732022861       29.2172103535  W2        24005           0.0000000000
     70464     23488  TIP3      H2             21.1583833595      -32.4695422861       27.7674103535  W2        24005           0.0000000000
     70465     23489  TIP3      OH2            21.9831633595      -31.2982122861       23.9218603535  W2        24006           0.0000000000
     70466     23489  TIP3      H1             22.4573333595      -30.7072222861       23.3369503535  W2        24006           0.0000000000
     70467     23489  TIP3      H2             21.2658033595      -30.7679222861       24.2688703535  W2        24006           0.0000000000
     70468     23490  TIP3      OH2            32.1519733595      -27.7597322861       33.9944403535  W2        24007           0.0000000000
     70469     23490  TIP3      H1             32.4754533595      -28.3907622861       33.3514903535  W2        24007           0.0000000000
     70470     23490  TIP3      H2             31.7119033595      -28.2945122861       34.6551803535  W2        24007           0.0000000000
     70471     23491  TIP3      OH2            28.9292633595      -31.8321822861       28.7785603535  W2        24008           0.0000000000
     70472     23491  TIP3      H1             28.0183733595      -31.7755022861       29.0671603535  W2        24008           0.0000000000
     70473     23491  TIP3      H2             29.4345533595      -31.8926322861       29.5892803535  W2        24008           0.0000000000
     70474     23492  TIP3      OH2            23.7576033595      -30.2035522861       27.6053203535  W2        24009           0.0000000000
     70475     23492  TIP3      H1             22.8684033595      -30.1040022861       27.2652803535  W2        24009           0.0000000000
     70476     23492  TIP3      H2             24.0540933595      -31.0452522861       27.2591103535  W2        24009           0.0000000000
     70477     23493  TIP3      OH2            27.4107833595      -30.2032922861       25.2617803535  W2        24010           0.0000000000
     70478     23493  TIP3      H1             28.3423333595      -30.0742922861       25.4400903535  W2        24010           0.0000000000
     70479     23493  TIP3      H2             27.1958133595      -29.5338622861       24.6122503535  W2        24010           0.0000000000
     70480     23494  TIP3      OH2            33.3344533595      -32.5975522861       32.0427403535  W2        24011           0.0000000000
     70481     23494  TIP3      H1             32.6576133595      -32.4662422861       32.7067103535  W2        24011           0.0000000000
     70482     23494  TIP3      H2             32.8489433595      -32.7526022861       31.2325103535  W2        24011           0.0000000000
     70483     23495  TIP3      OH2            26.0848033595      -29.0090722861       22.8283903535  W2        24012           0.0000000000
     70484     23495  TIP3      H1             25.5423133595      -29.3886922861       22.1371503535  W2        24012           0.0000000000
     70485     23495  TIP3      H2             26.9182933595      -28.8146022861       22.3998003535  W2        24012           0.0000000000
     70486     23496  TIP3      OH2            30.2492333595      -29.0448822861       30.6655203535  W2        24015           0.0000000000
     70487     23496  TIP3      H1             30.8135733595      -29.5912222861       30.1184803535  W2        24015           0.0000000000
     70488     23496  TIP3      H2             30.1015733595      -29.5666922861       31.4542803535  W2        24015           0.0000000000
     70489     23497  TIP3      OH2            25.2512033595      -32.9082722861       27.0840003535  W2        24016           0.0000000000
     70490     23497  TIP3      H1             24.9341533595      -33.8107422861       27.0485403535  W2        24016           0.0000000000
     70491     23497  TIP3      H2             26.0326133595      -32.9065322861       26.5311603535  W2        24016           0.0000000000
     70492     23498  TIP3      OH2            28.8758233595      -30.6562722861       33.0795603535  W2        24017           0.0000000000
     70493     23498  TIP3      H1             28.0403533595      -30.2023222861       33.1898003535  W2        24017           0.0000000000
     70494     23498  TIP3      H2             29.3998833595      -30.3804222861       33.8315503535  W2        24017           0.0000000000
     70495     23499  TIP3      OH2            29.4200833595      -24.4435022861       24.7642003535  W2        24018           0.0000000000
     70496     23499  TIP3      H1             28.6751833595      -24.9509722861       24.4419903535  W2        24018           0.0000000000
     70497     23499  TIP3      H2             29.2858033595      -24.3947022861       25.7106803535  W2        24018           0.0000000000
     70498     23500  TIP3      OH2            36.5699733595      -25.3106822861       33.5509603535  W2        24019           0.0000000000
     70499     23500  TIP3      H1             37.2118533595      -24.8540522861       33.0071803535  W2        24019           0.0000000000
     70500     23500  TIP3      H2             35.7396633595      -25.1974422861       33.0883703535  W2        24019           0.0000000000
     70501     23501  TIP3      OH2            33.3177633595      -31.6295122861       22.9634603535  W2        24020           0.0000000000
     70502     23501  TIP3      H1             32.3791833595      -31.5179522861       22.8123403535  W2        24020           0.0000000000
     70503     23501  TIP3      H2             33.6149733595      -30.7728222861       23.2700303535  W2        24020           0.0000000000
     70504     23502  TIP3      OH2            34.0361133595      -29.7622422861       24.6242003535  W2        24022           0.0000000000
     70505     23502  TIP3      H1             34.9280133595      -29.8997422861       24.9433203535  W2        24022           0.0000000000
     70506     23502  TIP3      H2             34.0924733595      -28.9716322861       24.0875503535  W2        24022           0.0000000000
     70507     23503  TIP3      OH2            24.5449133595      -25.1485022861       30.5339903535  W2        24023           0.0000000000
     70508     23503  TIP3      H1             25.2896333595      -25.1509322861       29.9326403535  W2        24023           0.0000000000
     70509     23503  TIP3      H2             24.6225733595      -25.9721222861       31.0155003535  W2        24023           0.0000000000
     70510     23504  TIP3      OH2            31.5454933595      -22.9850722861       23.7896603535  W2        24024           0.0000000000
     70511     23504  TIP3      H1             31.2503333595      -22.1582822861       24.1711403535  W2        24024           0.0000000000
     70512     23504  TIP3      H2             30.8424933595      -23.6043822861       23.9858003535  W2        24024           0.0000000000
     70513     23505  TIP3      OH2            38.9209833595      -29.5528322861       24.3188703535  W2        24028           0.0000000000
     70514     23505  TIP3      H1             38.3666133595      -29.9490322861       23.6466203535  W2        24028           0.0000000000
     70515     23505  TIP3      H2             39.0213433595      -28.6423122861       24.0412003535  W2        24028           0.0000000000
     70516     23506  TIP3      OH2            37.2161533595      -20.7667922861       24.7840803535  W2        24030           0.0000000000
     70517     23506  TIP3      H1             36.8432633595      -21.5924122861       25.0931403535  W2        24030           0.0000000000
     70518     23506  TIP3      H2             37.4935033595      -20.9498522861       23.8864203535  W2        24030           0.0000000000
     70519     23507  TIP3      OH2            34.3765433595      -25.9588422861       31.8052703535  W2        24031           0.0000000000
     70520     23507  TIP3      H1             33.4482333595      -26.1906522861       31.7782003535  W2        24031           0.0000000000
     70521     23507  TIP3      H2             34.8276533595      -26.7358622861       31.4751503535  W2        24031           0.0000000000
     70522     23508  TIP3      OH2            26.9198533595      -21.6306822861       27.9381403535  W2        24032           0.0000000000
     70523     23508  TIP3      H1             27.4470733595      -20.8572422861       27.7380203535  W2        24032           0.0000000000
     70524     23508  TIP3      H2             26.0397033595      -21.4057622861       27.6365403535  W2        24032           0.0000000000
     70525     23509  TIP3      OH2            22.6746233595      -26.7682722861       22.5253803535  W2        24033           0.0000000000
     70526     23509  TIP3      H1             23.2906133595      -26.1415522861       22.9048603535  W2        24033           0.0000000000
     70527     23509  TIP3      H2             21.8128833595      -26.4522922861       22.7970303535  W2        24033           0.0000000000
     70528     23510  TIP3      OH2            28.3470833595      -23.9676922861       27.5145703535  W2        24034           0.0000000000
     70529     23510  TIP3      H1             28.1060833595      -23.0422522861       27.5561003535  W2        24034           0.0000000000
     70530     23510  TIP3      H2             27.6064433595      -24.4265622861       27.9109603535  W2        24034           0.0000000000
     70531     23511  TIP3      OH2            28.8617433595      -19.8183322861       33.8296803535  W2        24035           0.0000000000
     70532     23511  TIP3      H1             29.2242133595      -18.9637722861       33.5961203535  W2        24035           0.0000000000
     70533     23511  TIP3      H2             29.3932633595      -20.1101722861       34.5703103535  W2        24035           0.0000000000
     70534     23512  TIP3      OH2            27.0301633595      -18.9459322861       27.0597903535  W2        24036           0.0000000000
     70535     23512  TIP3      H1             26.0802133595      -18.8401922861       27.1111203535  W2        24036           0.0000000000
     70536     23512  TIP3      H2             27.3819733595      -18.1251922861       27.4045403535  W2        24036           0.0000000000
     70537     23513  TIP3      OH2            32.4058233595      -23.7192622861       33.5302403535  W2        24037           0.0000000000
     70538     23513  TIP3      H1             31.9799533595      -23.9470922861       34.3566403535  W2        24037           0.0000000000
     70539     23513  TIP3      H2             32.9864033595      -24.4580822861       33.3477703535  W2        24037           0.0000000000
     70540     23514  TIP3      OH2            34.6087133595      -22.7902122861       22.6041403535  W2        24038           0.0000000000
     70541     23514  TIP3      H1             34.9620233595      -23.1702322861       23.4084903535  W2        24038           0.0000000000
     70542     23514  TIP3      H2             33.6600633595      -22.8837322861       22.6910703535  W2        24038           0.0000000000
     70543     23515  TIP3      OH2            39.1121533595      -18.3109622861       22.8051603535  W2        24040           0.0000000000
     70544     23515  TIP3      H1             39.8559433595      -17.7249122861       22.6653203535  W2        24040           0.0000000000
     70545     23515  TIP3      H2             38.4179633595      -17.7423822861       23.1384003535  W2        24040           0.0000000000
     70546     23516  TIP3      OH2            23.1868333595      -31.9345422861       35.4069803535  W2        24041           0.0000000000
     70547     23516  TIP3      H1             22.2940633595      -31.5960022861       35.3393803535  W2        24041           0.0000000000
     70548     23516  TIP3      H2             23.0881133595      -32.7899322861       35.8250603535  W2        24041           0.0000000000
     70549     23517  TIP3      OH2            35.4746433595      -24.1180122861       24.8309303535  W2        24042           0.0000000000
     70550     23517  TIP3      H1             35.1974033595      -24.8460822861       25.3870403535  W2        24042           0.0000000000
     70551     23517  TIP3      H2             36.4019433595      -23.9988122861       25.0361903535  W2        24042           0.0000000000
     70552     23518  TIP3      OH2            22.8380333595      -20.1301022861       33.8419203535  W2        24043           0.0000000000
     70553     23518  TIP3      H1             23.0550633595      -21.0618622861       33.8108903535  W2        24043           0.0000000000
     70554     23518  TIP3      H2             23.0843833595      -19.8556022861       34.7252003535  W2        24043           0.0000000000
     70555     23519  TIP3      OH2            28.6994933595      -21.6786022861       21.0511403535  W2        24044           0.0000000000
     70556     23519  TIP3      H1             28.9384733595      -22.4267922861       20.5040303535  W2        24044           0.0000000000
     70557     23519  TIP3      H2             28.4306233595      -22.0664322861       21.8839203535  W2        24044           0.0000000000
     70558     23520  TIP3      OH2            27.6365533595      -22.1082222861       23.5074003535  W2        24045           0.0000000000
     70559     23520  TIP3      H1             27.7833533595      -22.6282422861       24.2974903535  W2        24045           0.0000000000
     70560     23520  TIP3      H2             27.6337233595      -21.2014622861       23.8139903535  W2        24045           0.0000000000
     70561     23521  TIP3      OH2            24.0896633595      -24.8558922861       24.0179403535  W2        24046           0.0000000000
     70562     23521  TIP3      H1             23.4035933595      -24.5036422861       24.5849103535  W2        24046           0.0000000000
     70563     23521  TIP3      H2             24.6124533595      -24.0929322861       23.7713703535  W2        24046           0.0000000000
     70564     23522  TIP3      OH2            31.9211733595      -32.1935122861       34.2968403535  W2        24047           0.0000000000
     70565     23522  TIP3      H1             32.6199633595      -32.1196422861       34.9468103535  W2        24047           0.0000000000
     70566     23522  TIP3      H2             31.5403133595      -33.0580122861       34.4511303535  W2        24047           0.0000000000
     70567     23523  TIP3      OH2            32.7056633595      -32.5413422861       25.3940703535  W2        24048           0.0000000000
     70568     23523  TIP3      H1             32.9254933595      -32.0698022861       24.5906103535  W2        24048           0.0000000000
     70569     23523  TIP3      H2             33.2640633595      -32.1470822861       26.0641303535  W2        24048           0.0000000000
     70570     23524  TIP3      OH2            30.3742733595      -20.4108622861       24.2568203535  W2        24049           0.0000000000
     70571     23524  TIP3      H1             29.5578833595      -19.9138922861       24.3092503535  W2        24049           0.0000000000
     70572     23524  TIP3      H2             30.9039033595      -19.9355122861       23.6167003535  W2        24049           0.0000000000
     70573     23525  TIP3      OH2            29.9056533595      -30.8134622861       26.2289103535  W2        24050           0.0000000000
     70574     23525  TIP3      H1             30.7179133595      -30.3091422861       26.2750803535  W2        24050           0.0000000000
     70575     23525  TIP3      H2             29.6609533595      -30.9584922861       27.1428703535  W2        24050           0.0000000000
     70576     23526  TIP3      OH2            30.4412933595      -29.8271922861       35.4135703535  W2        24051           0.0000000000
     70577     23526  TIP3      H1             30.5603233595      -29.2536522861       36.1706103535  W2        24051           0.0000000000
     70578     23526  TIP3      H2             31.0967533595      -30.5152522861       35.5283503535  W2        24051           0.0000000000
     70579     23527  TIP3      OH2            30.7893233595      -33.7321622861       27.1670203535  W2        24052           0.0000000000
     70580     23527  TIP3      H1             30.4426733595      -33.1151022861       27.8114503535  W2        24052           0.0000000000
     70581     23527  TIP3      H2             31.4480133595      -33.2315922861       26.6855703535  W2        24052           0.0000000000
     70582     23528  TIP3      OH2            27.7125833595      -19.3671422861       24.2385103535  W2        24053           0.0000000000
     70583     23528  TIP3      H1             27.8734533595      -18.5673922861       23.7377703535  W2        24053           0.0000000000
     70584     23528  TIP3      H2             27.5153633595      -19.0605422861       25.1235703535  W2        24053           0.0000000000
     70585     23529  TIP3      OH2            26.4470233595      -32.6692222861       23.8542703535  W2        24054           0.0000000000
     70586     23529  TIP3      H1             26.3635033595      -31.7809122861       24.2009103535  W2        24054           0.0000000000
     70587     23529  TIP3      H2             27.3370533595      -32.9345522861       24.0859503535  W2        24054           0.0000000000
     70588     23530  TIP3      OH2            35.2479733595      -28.1700622861       30.3442703535  W2        24056           0.0000000000
     70589     23530  TIP3      H1             34.4504133595      -28.5850422861       30.0157703535  W2        24056           0.0000000000
     70590     23530  TIP3      H2             35.6930833595      -28.8606922861       30.8353203535  W2        24056           0.0000000000
     70591     23531  TIP3      OH2            24.7055533595      -22.2420022861       22.9147203535  W2        24057           0.0000000000
     70592     23531  TIP3      H1             25.2977033595      -21.5425222861       23.1909603535  W2        24057           0.0000000000
     70593     23531  TIP3      H2             25.1648533595      -22.6750522861       22.1951803535  W2        24057           0.0000000000
     70594     23532  TIP3      OH2            23.0214733595      -29.5777022861       22.0306603535  W2        24058           0.0000000000
     70595     23532  TIP3      H1             22.9767333595      -28.6383922861       22.2093603535  W2        24058           0.0000000000
     70596     23532  TIP3      H2             22.1337933595      -29.8132122861       21.7608703535  W2        24058           0.0000000000
     70597     23533  TIP3      OH2            36.3344333595      -18.9138122861       31.9666203535  W2        24059           0.0000000000
     70598     23533  TIP3      H1             36.1788633595      -18.2353722861       31.3095503535  W2        24059           0.0000000000
     70599     23533  TIP3      H2             37.2670733595      -18.8418822861       32.1696803535  W2        24059           0.0000000000
     70600     23534  TIP3      OH2            23.8296733595      -34.7960422861       30.7037603535  W2        24060           0.0000000000
     70601     23534  TIP3      H1             23.6006533595      -34.7367922861       29.7762603535  W2        24060           0.0000000000
     70602     23534  TIP3      H2             23.3870133595      -35.5874922861       31.0101703535  W2        24060           0.0000000000
     70603     23535  TIP3      OH2            22.7600033595      -20.8553322861       26.8643403535  W2        24061           0.0000000000
     70604     23535  TIP3      H1             21.9278633595      -20.3830622861       26.8914803535  W2        24061           0.0000000000
     70605     23535  TIP3      H2             23.3058333595      -20.3455722861       26.2656503535  W2        24061           0.0000000000
     70606     23536  TIP3      OH2            30.7376733595      -19.8154622861       21.1897403535  W2        24064           0.0000000000
     70607     23536  TIP3      H1             30.0937733595      -20.4466022861       21.5111103535  W2        24064           0.0000000000
     70608     23536  TIP3      H2             31.4995033595      -20.3466622861       20.9580903535  W2        24064           0.0000000000
     70609     23537  TIP3      OH2            35.3419633595      -19.9984722861       21.4235403535  W2        24066           0.0000000000
     70610     23537  TIP3      H1             35.6250033595      -20.7929522861       21.8762303535  W2        24066           0.0000000000
     70611     23537  TIP3      H2             36.0817533595      -19.7653722861       20.8626503535  W2        24066           0.0000000000
     70612     23538  TIP3      OH2            26.2966933595      -24.0889822861       21.2810303535  W2        24068           0.0000000000
     70613     23538  TIP3      H1             26.3611033595      -24.8830222861       21.8116703535  W2        24068           0.0000000000
     70614     23538  TIP3      H2             26.9496133595      -24.2077022861       20.5912303535  W2        24068           0.0000000000
     70615     23539  TIP3      OH2            31.6490333595      -23.0418122861       21.0168303535  W2        24070           0.0000000000
     70616     23539  TIP3      H1             31.3804433595      -22.8616022861       21.9177203535  W2        24070           0.0000000000
     70617     23539  TIP3      H2             31.4425933595      -23.9671922861       20.8854103535  W2        24070           0.0000000000
     70618     23540  TIP3      OH2            27.4460733595      -26.1163622861       23.5868303535  W2        24073           0.0000000000
     70619     23540  TIP3      H1             26.9862733595      -26.6005322861       24.2726803535  W2        24073           0.0000000000
     70620     23540  TIP3      H2             27.7009433595      -26.7848222861       22.9508803535  W2        24073           0.0000000000
     70621     23541  TIP3      OH2            28.5171133595      -27.8731822861       21.8491503535  W2        24075           0.0000000000
     70622     23541  TIP3      H1             28.3366133595      -28.0280622861       20.9219803535  W2        24075           0.0000000000
     70623     23541  TIP3      H2             29.4671633595      -27.7653122861       21.8939403535  W2        24075           0.0000000000
     70624     23542  TIP3      OH2            37.9069433595      -25.5187622861       21.2949603535  W2        24077           0.0000000000
     70625     23542  TIP3      H1             37.6334233595      -25.9432122861       20.4817903535  W2        24077           0.0000000000
     70626     23542  TIP3      H2             37.9463533595      -24.5873122861       21.0780003535  W2        24077           0.0000000000
     70627     23543  TIP3      OH2            27.4869433595      -32.4989922861       34.5178403535  W2        24079           0.0000000000
     70628     23543  TIP3      H1             28.0226933595      -32.0473222861       33.8657703535  W2        24079           0.0000000000
     70629     23543  TIP3      H2             26.6349033595      -32.6070122861       34.0952503535  W2        24079           0.0000000000
     70630     23544  TIP3      OH2            29.0687833595      -27.0593722861       34.7573603535  W2        24080           0.0000000000
     70631     23544  TIP3      H1             29.8192633595      -27.2156222861       34.1841403535  W2        24080           0.0000000000
     70632     23544  TIP3      H2             28.7296133595      -26.2077122861       34.4819103535  W2        24080           0.0000000000
     70633     23545  TIP3      OH2            28.2924933595      -35.0424222861       34.9492003535  W2        24084           0.0000000000
     70634     23545  TIP3      H1             28.1944533595      -34.0961022861       34.8438203535  W2        24084           0.0000000000
     70635     23545  TIP3      H2             27.5501133595      -35.4150422861       34.4735503535  W2        24084           0.0000000000
     70636     23546  TIP3      OH2            28.4142833595      -17.1828122861       22.8505103535  W2        24091           0.0000000000
     70637     23546  TIP3      H1             29.3473533595      -17.0249422861       22.9943503535  W2        24091           0.0000000000
     70638     23546  TIP3      H2             28.1501633595      -16.5075122861       22.2256603535  W2        24091           0.0000000000
     70639     23547  TIP3      OH2            21.9827733595      -22.5464322861       22.3333203535  W2        24092           0.0000000000
     70640     23547  TIP3      H1             22.8966933595      -22.4675422861       22.6067103535  W2        24092           0.0000000000
     70641     23547  TIP3      H2             21.9900833595      -23.2334722861       21.6668803535  W2        24092           0.0000000000
     70642     23548  TIP3      OH2            20.6318333595      -17.1535822861       27.4107103535  W2        24093           0.0000000000
     70643     23548  TIP3      H1             19.9845433595      -17.6154122861       26.8778303535  W2        24093           0.0000000000
     70644     23548  TIP3      H2             20.9862933595      -17.8252522861       27.9933303535  W2        24093           0.0000000000
     70645     23549  TIP3      OH2            21.5017533595      -19.0728822861       29.2153303535  W2        24094           0.0000000000
     70646     23549  TIP3      H1             21.1674333595      -19.9531522861       29.3873503535  W2        24094           0.0000000000
     70647     23549  TIP3      H2             21.7239933595      -18.7273822861       30.0798903535  W2        24094           0.0000000000
     70648     23550  TIP3      OH2            39.0502333595      -18.2632422861       32.1958103535  W2        24095           0.0000000000
     70649     23550  TIP3      H1             39.0289033595      -18.0784022861       33.1347503535  W2        24095           0.0000000000
     70650     23550  TIP3      H2             39.7408533595      -17.6948422861       31.8549503535  W2        24095           0.0000000000
     70651     23551  TIP3      OH2            38.6135233595      -18.6961322861       35.1177203535  W2        24096           0.0000000000
     70652     23551  TIP3      H1             38.1263933595      -19.4317222861       34.7464603535  W2        24096           0.0000000000
     70653     23551  TIP3      H2             39.1627933595      -19.0897422861       35.7956603535  W2        24096           0.0000000000
     70654     23552  TIP3      OH2            38.3652233595      -24.6499522861       25.2700003535  W2        24098           0.0000000000
     70655     23552  TIP3      H1             39.2153633595      -24.2288622861       25.3971603535  W2        24098           0.0000000000
     70656     23552  TIP3      H2             38.3707333595      -25.3899422861       25.8771403535  W2        24098           0.0000000000
     70657     23553  TIP3      OH2            38.7597833595      -26.5962122861       27.0935703535  W2        24099           0.0000000000
     70658     23553  TIP3      H1             38.0332433595      -27.0759522861       27.4913303535  W2        24099           0.0000000000
     70659     23553  TIP3      H2             39.3411133595      -26.3907422861       27.8257303535  W2        24099           0.0000000000
     70660     23554  TIP3      OH2            38.5189033595      -23.8114622861       32.0413303535  W2        24100           0.0000000000
     70661     23554  TIP3      H1             39.3523233595      -24.1894622861       31.7606903535  W2        24100           0.0000000000
     70662     23554  TIP3      H2             38.6309333595      -22.8683422861       31.9222403535  W2        24100           0.0000000000
     70663     23555  TIP3      OH2            37.0051333595      -20.9337122861       34.3481703535  W2        24101           0.0000000000
     70664     23555  TIP3      H1             36.3576633595      -20.6085622861       34.9736903535  W2        24101           0.0000000000
     70665     23555  TIP3      H2             36.4875333595      -21.3739422861       33.6740003535  W2        24101           0.0000000000
     70666     23556  TIP3      OH2            39.0280933595      -26.6953622861       23.4847003535  W2        24102           0.0000000000
     70667     23556  TIP3      H1             38.5062033595      -26.3389522861       22.7657903535  W2        24102           0.0000000000
     70668     23556  TIP3      H2             38.9950133595      -26.0205822861       24.1627903535  W2        24102           0.0000000000
     70669     23557  TIP3      OH2            37.3769933595      -29.4558022861       22.0354103535  W2        24103           0.0000000000
     70670     23557  TIP3      H1             37.4734333595      -28.7891022861       21.3553803535  W2        24103           0.0000000000
     70671     23557  TIP3      H2             37.2369533595      -30.2711722861       21.5539603535  W2        24103           0.0000000000
     70672     23558  TIP3      OH2            36.5464633595      -28.0755622861       27.6564403535  W2        24104           0.0000000000
     70673     23558  TIP3      H1             36.3963433595      -29.0207022861       27.6362203535  W2        24104           0.0000000000
     70674     23558  TIP3      H2             36.1929133595      -27.7944222861       28.5003503535  W2        24104           0.0000000000
     70675     23559  TIP3      OH2            21.5817033595      -25.9973422861       31.6668203535  W2        24105           0.0000000000
     70676     23559  TIP3      H1             21.7659933595      -26.0791722861       30.7311103535  W2        24105           0.0000000000
     70677     23559  TIP3      H2             22.4309933595      -26.1216422861       32.0904603535  W2        24105           0.0000000000
     70678     23560  TIP3      OH2            36.6243733595      -32.0478222861       21.1529603535  W2        24108           0.0000000000
     70679     23560  TIP3      H1             37.2349533595      -32.4191422861       21.7897803535  W2        24108           0.0000000000
     70680     23560  TIP3      H2             35.7875233595      -32.4691322861       21.3489603535  W2        24108           0.0000000000
     70681     23561  TIP3      OH2            36.2569433595      -30.4929822861       26.1189503535  W2        24109           0.0000000000
     70682     23561  TIP3      H1             36.5366533595      -31.3999422861       26.2431203535  W2        24109           0.0000000000
     70683     23561  TIP3      H2             37.0161133595      -30.0588322861       25.7298703535  W2        24109           0.0000000000
     70684     23562  TIP3      OH2            36.8687733595      -29.9112422861       31.5548403535  W2        24110           0.0000000000
     70685     23562  TIP3      H1             37.8015733595      -29.6992522861       31.5204403535  W2        24110           0.0000000000
     70686     23562  TIP3      H2             36.6335233595      -29.8100322861       32.4771403535  W2        24110           0.0000000000
     70687     23563  TIP3      OH2            36.8979633595      -29.1747122861       34.3307803535  W2        24111           0.0000000000
     70688     23563  TIP3      H1             36.0550933595      -28.9066722861       34.6967603535  W2        24111           0.0000000000
     70689     23563  TIP3      H2             37.3403933595      -28.3525222861       34.1198903535  W2        24111           0.0000000000
     70690     23564  TIP3      OH2            36.8704233595      -33.2300522861       26.1671503535  W2        24114           0.0000000000
     70691     23564  TIP3      H1             37.0529233595      -33.6789022861       26.9926503535  W2        24114           0.0000000000
     70692     23564  TIP3      H2             36.2707133595      -33.8146122861       25.7036103535  W2        24114           0.0000000000
     70693     23565  TIP3      OH2            22.4004333595      -32.4146822861       30.6989903535  W2        24115           0.0000000000
     70694     23565  TIP3      H1             22.8455933595      -33.2064322861       31.0009603535  W2        24115           0.0000000000
     70695     23565  TIP3      H2             22.8667333595      -31.6981622861       31.1295503535  W2        24115           0.0000000000
     70696     23566  TIP3      OH2            20.7044633595      -29.4153822861       31.7680103535  W2        24116           0.0000000000
     70697     23566  TIP3      H1             21.1964433595      -29.6363322861       30.9772103535  W2        24116           0.0000000000
     70698     23566  TIP3      H2             21.0665533595      -28.5750422861       32.0489603535  W2        24116           0.0000000000
     70699     23567  TIP3      OH2            38.7370433595      -33.1622422861       22.6951803535  W2        24118           0.0000000000
     70700     23567  TIP3      H1             39.1493033595      -33.8836722861       22.2199803535  W2        24118           0.0000000000
     70701     23567  TIP3      H2             39.4186933595      -32.4927822861       22.7536103535  W2        24118           0.0000000000
     70702     23568  TIP3      OH2            21.0181133595      -33.1574722861       25.8222503535  W2        24119           0.0000000000
     70703     23568  TIP3      H1             20.0929533595      -32.9488122861       25.6928003535  W2        24119           0.0000000000
     70704     23568  TIP3      H2             21.4721033595      -32.6733922861       25.1324803535  W2        24119           0.0000000000
     70705     23569  TIP3      OH2            35.7888333595      -18.1733022861       27.7679903535  W2        24120           0.0000000000
     70706     23569  TIP3      H1             36.4411233595      -18.5210922861       27.1599003535  W2        24120           0.0000000000
     70707     23569  TIP3      H2             36.2992133595      -17.6849822861       28.4139603535  W2        24120           0.0000000000
     70708     23570  TIP3      OH2            20.9816533595      -34.4195722861       34.1665003535  W2        24121           0.0000000000
     70709     23570  TIP3      H1             20.3167033595      -34.6655422861       34.8095903535  W2        24121           0.0000000000
     70710     23570  TIP3      H2             20.5387833595      -33.7975322861       33.5893003535  W2        24121           0.0000000000
     70711     23571  TIP3      OH2            26.1278733595      -20.2700422861       34.5694803535  W2        24123           0.0000000000
     70712     23571  TIP3      H1             25.7029833595      -19.4601922861       34.2869403535  W2        24123           0.0000000000
     70713     23571  TIP3      H2             27.0321533595      -20.1846322861       34.2674603535  W2        24123           0.0000000000
     70714     23572  TIP3      OH2            23.5295433595      -17.0136522861       34.6170103535  W2        24127           0.0000000000
     70715     23572  TIP3      H1             22.8091833595      -16.5735522861       34.1657803535  W2        24127           0.0000000000
     70716     23572  TIP3      H2             23.1639433595      -17.2641822861       35.4654103535  W2        24127           0.0000000000
     70717     23573  TIP3      OH2            25.9968033595      -17.4132622861       33.6467303535  W2        24128           0.0000000000
     70718     23573  TIP3      H1             25.1320233595      -17.3414122861       34.0507403535  W2        24128           0.0000000000
     70719     23573  TIP3      H2             25.9417033595      -16.8665322861       32.8629803535  W2        24128           0.0000000000
     70720     23574  TIP3      OH2            30.7073633595      -17.5253722861       32.8223303535  W2        24129           0.0000000000
     70721     23574  TIP3      H1             30.2507633595      -16.9964022861       32.1681703535  W2        24129           0.0000000000
     70722     23574  TIP3      H2             30.8701633595      -16.9222322861       33.5475603535  W2        24129           0.0000000000
     70723     23575  TIP3      OH2            33.0349933595      -18.6474122861       33.7673603535  W2        24130           0.0000000000
     70724     23575  TIP3      H1             32.1303633595      -18.4823922861       33.5015703535  W2        24130           0.0000000000
     70725     23575  TIP3      H2             33.4638533595      -17.7941922861       33.7017003535  W2        24130           0.0000000000
     70726     23576  TIP3      OH2            35.6391833595      -17.0775022861       34.0621403535  W2        24131           0.0000000000
     70727     23576  TIP3      H1             35.4573833595      -16.1616122861       33.8516303535  W2        24131           0.0000000000
     70728     23576  TIP3      H2             35.8159633595      -17.4877922861       33.2156003535  W2        24131           0.0000000000
     70729     23577  TIP3      OH2            22.9443533595      -18.3904022861       31.5271903535  W2        24132           0.0000000000
     70730     23577  TIP3      H1             22.9259533595      -18.8158922861       32.3844203535  W2        24132           0.0000000000
     70731     23577  TIP3      H2             23.7491433595      -18.7089022861       31.1184103535  W2        24132           0.0000000000
     70732     23578  TIP3      OH2            25.0856633595      -19.6805322861       30.1821803535  W2        24133           0.0000000000
     70733     23578  TIP3      H1             24.8667333595      -20.5967922861       30.3517803535  W2        24133           0.0000000000
     70734     23578  TIP3      H2             25.9098833595      -19.5404922861       30.6483203535  W2        24133           0.0000000000
     70735     23579  TIP3      OH2            27.6229133595      -19.2106022861       31.0309803535  W2        24134           0.0000000000
     70736     23579  TIP3      H1             27.8354833595      -20.0987022861       30.7440703535  W2        24134           0.0000000000
     70737     23579  TIP3      H2             27.6874233595      -19.2448322861       31.9853803535  W2        24134           0.0000000000
     70738     23580  TIP3      OH2            31.1312833595      -33.5465422861       30.1753103535  W2        24135           0.0000000000
     70739     23580  TIP3      H1             30.4569633595      -34.1759822861       30.4308903535  W2        24135           0.0000000000
     70740     23580  TIP3      H2             31.6952033595      -34.0306522861       29.5721003535  W2        24135           0.0000000000
     70741     23581  TIP3      OH2            36.2740033595      -35.4391422861       30.2880203535  W2        24136           0.0000000000
     70742     23581  TIP3      H1             36.8777633595      -34.8916022861       29.7861203535  W2        24136           0.0000000000
     70743     23581  TIP3      H2             35.4042033595      -35.1201022861       30.0474303535  W2        24136           0.0000000000
     70744     23582  TIP3      OH2            38.0010433595      -34.3002722861       28.6211103535  W2        24137           0.0000000000
     70745     23582  TIP3      H1             38.6127933595      -34.8147022861       28.0944703535  W2        24137           0.0000000000
     70746     23582  TIP3      H2             38.3833833595      -33.4230622861       28.6445503535  W2        24137           0.0000000000
     70747     23583  TIP3      OH2            23.4580333595      -34.9125122861       27.9973003535  W2        24138           0.0000000000
     70748     23583  TIP3      H1             22.6810133595      -35.1470222861       27.4898903535  W2        24138           0.0000000000
     70749     23583  TIP3      H2             23.9883933595      -35.7093022861       28.0061003535  W2        24138           0.0000000000
     70750     23584  TIP3      OH2            22.2943733595      -35.1147022861       23.8009103535  W2        24139           0.0000000000
     70751     23584  TIP3      H1             22.7334433595      -34.5036522861       23.2092603535  W2        24139           0.0000000000
     70752     23584  TIP3      H2             21.6606133595      -34.5762922861       24.2749103535  W2        24139           0.0000000000
     70753     23585  TIP3      OH2            28.0372933595      -34.9858022861       27.8106103535  W2        24140           0.0000000000
     70754     23585  TIP3      H1             28.9116333595      -34.5973722861       27.7810403535  W2        24140           0.0000000000
     70755     23585  TIP3      H2             27.9013733595      -35.2010222861       28.7333303535  W2        24140           0.0000000000
     70756     23586  TIP3      OH2            33.5941333595      -34.9558222861       29.4597803535  W2        24141           0.0000000000
     70757     23586  TIP3      H1             33.6702933595      -34.8606622861       28.5103803535  W2        24141           0.0000000000
     70758     23586  TIP3      H2             33.3190533595      -35.8635322861       29.5886903535  W2        24141           0.0000000000
     70759     23587  TIP3      OH2            34.9473933595      -34.9300422861       25.1522803535  W2        24142           0.0000000000
     70760     23587  TIP3      H1             34.2445033595      -34.3151222861       24.9424203535  W2        24142           0.0000000000
     70761     23587  TIP3      H2             34.5025333595      -35.7673722861       25.2833703535  W2        24142           0.0000000000
     70762     23588  TIP3      OH2            22.1953233595      -19.1664822861       24.6984203535  W2        24143           0.0000000000
     70763     23588  TIP3      H1             21.5103133595      -19.2045922861       24.0309303535  W2        24143           0.0000000000
     70764     23588  TIP3      H2             22.1990433595      -18.2537222861       24.9866303535  W2        24143           0.0000000000
     70765     23589  TIP3      OH2            24.1552833595      -33.1985522861       22.2433203535  W2        24144           0.0000000000
     70766     23589  TIP3      H1             24.6466233595      -33.8283122861       21.7158703535  W2        24144           0.0000000000
     70767     23589  TIP3      H2             24.7789133595      -32.9026122861       22.9064403535  W2        24144           0.0000000000
     70768     23590  TIP3      OH2            29.1812933595      -32.9054022861       24.7003703535  W2        24145           0.0000000000
     70769     23590  TIP3      H1             29.3594233595      -33.5520822861       25.3832303535  W2        24145           0.0000000000
     70770     23590  TIP3      H2             29.1279133595      -32.0716322861       25.1674803535  W2        24145           0.0000000000
     70771     23591  TIP3      OH2            31.0596733595      -17.9569922861       23.0960403535  W2        24146           0.0000000000
     70772     23591  TIP3      H1             31.9256933595      -17.5902522861       22.9178603535  W2        24146           0.0000000000
     70773     23591  TIP3      H2             30.8129533595      -18.3961922861       22.2821203535  W2        24146           0.0000000000
     70774     23592  TIP3      OH2            37.7686333595      -18.3939622861       25.7751503535  W2        24147           0.0000000000
     70775     23592  TIP3      H1             37.5743433595      -19.1417522861       25.2101103535  W2        24147           0.0000000000
     70776     23592  TIP3      H2             37.7296433595      -17.6359522861       25.1919403535  W2        24147           0.0000000000
     70777     23593  TIP3      OH2            24.0134433595      -18.2464022861       21.7236303535  W2        24150           0.0000000000
     70778     23593  TIP3      H1             23.7459033595      -17.9601122861       22.5969403535  W2        24150           0.0000000000
     70779     23593  TIP3      H2             24.7847033595      -18.7924822861       21.8758803535  W2        24150           0.0000000000
     70780     23594  TIP3      OH2            51.3922933595      -25.7562822861       27.9560503535  W2        24153           0.0000000000
     70781     23594  TIP3      H1             51.4814033595      -24.8124622861       27.8237603535  W2        24153           0.0000000000
     70782     23594  TIP3      H2             50.7540533595      -26.0316422861       27.2979903535  W2        24153           0.0000000000
     70783     23595  TIP3      OH2            50.3254233595      -26.5012122861       31.3748703535  W2        24154           0.0000000000
     70784     23595  TIP3      H1             50.2871733595      -27.1475822861       32.0798303535  W2        24154           0.0000000000
     70785     23595  TIP3      H2             50.0030733595      -26.9677722861       30.6037403535  W2        24154           0.0000000000
     70786     23596  TIP3      OH2            42.6939233595      -26.8870022861       32.9678603535  W2        24155           0.0000000000
     70787     23596  TIP3      H1             42.7351333595      -27.5126722861       33.6911003535  W2        24155           0.0000000000
     70788     23596  TIP3      H2             43.3966933595      -26.2631422861       33.1499003535  W2        24155           0.0000000000
     70789     23597  TIP3      OH2            54.0314433595      -23.5621722861       29.6763803535  W2        24156           0.0000000000
     70790     23597  TIP3      H1             53.5907133595      -24.2825722861       30.1269403535  W2        24156           0.0000000000
     70791     23597  TIP3      H2             54.0184133595      -22.8414522861       30.3061503535  W2        24156           0.0000000000
     70792     23598  TIP3      OH2            43.6172333595      -22.4371122861       31.5027703535  W2        24157           0.0000000000
     70793     23598  TIP3      H1             43.2477533595      -23.2390622861       31.1332003535  W2        24157           0.0000000000
     70794     23598  TIP3      H2             44.5583433595      -22.6056222861       31.5491103535  W2        24157           0.0000000000
     70795     23599  TIP3      OH2            40.2272833595      -28.7768522861       26.8956503535  W2        24158           0.0000000000
     70796     23599  TIP3      H1             39.7796233595      -27.9309822861       26.8773003535  W2        24158           0.0000000000
     70797     23599  TIP3      H2             39.6664033595      -29.3564322861       26.3801603535  W2        24158           0.0000000000
     70798     23600  TIP3      OH2            40.9378933595      -26.6148922861       29.0214503535  W2        24159           0.0000000000
     70799     23600  TIP3      H1             41.1512433595      -27.3847322861       29.5487503535  W2        24159           0.0000000000
     70800     23600  TIP3      H2             41.6756533595      -26.5252222861       28.4182103535  W2        24159           0.0000000000
     70801     23601  TIP3      OH2            51.1429933595      -18.4580022861       29.8884203535  W2        24160           0.0000000000
     70802     23601  TIP3      H1             51.7626333595      -19.1345322861       29.6153403535  W2        24160           0.0000000000
     70803     23601  TIP3      H2             50.9347333595      -18.6759222861       30.7969103535  W2        24160           0.0000000000
     70804     23602  TIP3      OH2            48.7148633595      -24.0690722861       31.7809703535  W2        24161           0.0000000000
     70805     23602  TIP3      H1             49.0186533595      -24.7549322861       31.1863803535  W2        24161           0.0000000000
     70806     23602  TIP3      H2             49.4362633595      -23.9502022861       32.3987703535  W2        24161           0.0000000000
     70807     23603  TIP3      OH2            51.8555633595      -29.6748322861       32.1084503535  W2        24162           0.0000000000
     70808     23603  TIP3      H1             51.9981533595      -30.6211322861       32.1286103535  W2        24162           0.0000000000
     70809     23603  TIP3      H2             51.7494633595      -29.4678522861       31.1799403535  W2        24162           0.0000000000
     70810     23604  TIP3      OH2            45.0103933595      -31.5731922861       29.3809303535  W2        24163           0.0000000000
     70811     23604  TIP3      H1             45.0535033595      -30.7133422861       28.9625603535  W2        24163           0.0000000000
     70812     23604  TIP3      H2             44.5528033595      -32.1257222861       28.7472503535  W2        24163           0.0000000000
     70813     23605  TIP3      OH2            52.7326633595      -31.4426322861       27.7817603535  W2        24164           0.0000000000
     70814     23605  TIP3      H1             53.3790933595      -31.7713122861       28.4065203535  W2        24164           0.0000000000
     70815     23605  TIP3      H2             53.2426033595      -30.9247322861       27.1589003535  W2        24164           0.0000000000
     70816     23606  TIP3      OH2            41.6305433595      -29.1766122861       30.1430703535  W2        24165           0.0000000000
     70817     23606  TIP3      H1             42.2842033595      -29.7264422861       30.5750803535  W2        24165           0.0000000000
     70818     23606  TIP3      H2             41.6544733595      -29.4507122861       29.2262703535  W2        24165           0.0000000000
     70819     23607  TIP3      OH2            46.7869933595      -27.6264822861       29.3582203535  W2        24166           0.0000000000
     70820     23607  TIP3      H1             47.4030933595      -28.1529422861       29.8676203535  W2        24166           0.0000000000
     70821     23607  TIP3      H2             46.2008733595      -28.2666122861       28.9545803535  W2        24166           0.0000000000
     70822     23608  TIP3      OH2            43.8205833595      -32.6553522861       33.4550103535  W2        24167           0.0000000000
     70823     23608  TIP3      H1             43.6017533595      -32.1252922861       32.6886103535  W2        24167           0.0000000000
     70824     23608  TIP3      H2             43.1526733595      -32.4288022861       34.1021503535  W2        24167           0.0000000000
     70825     23609  TIP3      OH2            51.1895633595      -23.1552422861       26.9989203535  W2        24168           0.0000000000
     70826     23609  TIP3      H1             50.8940733595      -23.4780122861       26.1476103535  W2        24168           0.0000000000
     70827     23609  TIP3      H2             50.8653433595      -22.2555722861       27.0401803535  W2        24168           0.0000000000
     70828     23610  TIP3      OH2            46.3897233595      -24.9797822861       33.7423803535  W2        24169           0.0000000000
     70829     23610  TIP3      H1             45.6496333595      -24.3816322861       33.8459003535  W2        24169           0.0000000000
     70830     23610  TIP3      H2             47.1036733595      -24.4258222861       33.4267403535  W2        24169           0.0000000000
     70831     23611  TIP3      OH2            54.4965033595      -32.1517022861       29.7623503535  W2        24170           0.0000000000
     70832     23611  TIP3      H1             54.2813033595      -32.9173622861       30.2949503535  W2        24170           0.0000000000
     70833     23611  TIP3      H2             55.1522433595      -31.6792422861       30.2752003535  W2        24170           0.0000000000
     70834     23612  TIP3      OH2            43.4143133595      -30.7631722861       31.4072303535  W2        24171           0.0000000000
     70835     23612  TIP3      H1             44.0279433595      -30.1304122861       31.7804703535  W2        24171           0.0000000000
     70836     23612  TIP3      H2             43.9263833595      -31.2356722861       30.7509203535  W2        24171           0.0000000000
     70837     23613  TIP3      OH2            44.7971533595      -23.0154822861       34.5295303535  W2        24172           0.0000000000
     70838     23613  TIP3      H1             44.7919133595      -22.1361322861       34.1514603535  W2        24172           0.0000000000
     70839     23613  TIP3      H2             43.9435633595      -23.0990722861       34.9545203535  W2        24172           0.0000000000
     70840     23614  TIP3      OH2            40.9182433595      -23.3446922861       25.3114603535  W2        24173           0.0000000000
     70841     23614  TIP3      H1             40.6463333595      -23.1155922861       24.4227503535  W2        24173           0.0000000000
     70842     23614  TIP3      H2             40.9638133595      -22.5068122861       25.7719903535  W2        24173           0.0000000000
     70843     23615  TIP3      OH2            54.5432133595      -21.7231022861       32.0243103535  W2        24174           0.0000000000
     70844     23615  TIP3      H1             53.6015833595      -21.6647122861       32.1860003535  W2        24174           0.0000000000
     70845     23615  TIP3      H2             54.8198233595      -20.8170522861       31.8872803535  W2        24174           0.0000000000
     70846     23616  TIP3      OH2            47.8470533595      -35.3498422861       30.9075003535  W2        24175           0.0000000000
     70847     23616  TIP3      H1             47.7294733595      -36.2982422861       30.8533303535  W2        24175           0.0000000000
     70848     23616  TIP3      H2             46.9920633595      -35.0172322861       31.1806103535  W2        24175           0.0000000000
     70849     23617  TIP3      OH2            52.7953333595      -19.9417522861       28.6494703535  W2        24176           0.0000000000
     70850     23617  TIP3      H1             53.2205633595      -20.6489622861       28.1644303535  W2        24176           0.0000000000
     70851     23617  TIP3      H2             53.1123333595      -19.1404822861       28.2326903535  W2        24176           0.0000000000
     70852     23618  TIP3      OH2            53.9549833595      -22.0409022861       27.1581303535  W2        24177           0.0000000000
     70853     23618  TIP3      H1             53.6974633595      -22.7308922861       26.5467203535  W2        24177           0.0000000000
     70854     23618  TIP3      H2             54.0260633595      -22.4837822861       28.0037203535  W2        24177           0.0000000000
     70855     23619  TIP3      OH2            50.1135433595      -26.5122822861       25.4080803535  W2        24178           0.0000000000
     70856     23619  TIP3      H1             49.4020933595      -25.9773122861       25.0561303535  W2        24178           0.0000000000
     70857     23619  TIP3      H2             50.8045033595      -26.4570722861       24.7479703535  W2        24178           0.0000000000
     70858     23620  TIP3      OH2            50.1674633595      -28.0548522861       22.4465803535  W2        24179           0.0000000000
     70859     23620  TIP3      H1             50.8684533595      -28.0321622861       23.0979803535  W2        24179           0.0000000000
     70860     23620  TIP3      H2             50.4697533595      -28.6828822861       21.7905103535  W2        24179           0.0000000000
     70861     23621  TIP3      OH2            53.5193133595      -26.3029522861       26.3596703535  W2        24180           0.0000000000
     70862     23621  TIP3      H1             52.7874133595      -26.0745822861       26.9327303535  W2        24180           0.0000000000
     70863     23621  TIP3      H2             53.9665333595      -27.0166822861       26.8144203535  W2        24180           0.0000000000
     70864     23622  TIP3      OH2            53.4166633595      -28.1286922861       35.4273703535  W2        24181           0.0000000000
     70865     23622  TIP3      H1             53.4965733595      -27.3652522861       35.9992203535  W2        24181           0.0000000000
     70866     23622  TIP3      H2             52.8154333595      -27.8494522861       34.7368803535  W2        24181           0.0000000000
     70867     23623  TIP3      OH2            45.1646833595      -25.6723322861       28.2421703535  W2        24182           0.0000000000
     70868     23623  TIP3      H1             44.8342033595      -26.0429922861       27.4238703535  W2        24182           0.0000000000
     70869     23623  TIP3      H2             45.7530933595      -26.3429322861       28.5890003535  W2        24182           0.0000000000
     70870     23624  TIP3      OH2            46.5314333595      -22.2442722861       30.9233903535  W2        24183           0.0000000000
     70871     23624  TIP3      H1             46.4365633595      -22.8229622861       30.1668503535  W2        24183           0.0000000000
     70872     23624  TIP3      H2             47.2607933595      -22.6157022861       31.4196703535  W2        24183           0.0000000000
     70873     23625  TIP3      OH2            45.5312333595      -26.9037722861       31.8756703535  W2        24184           0.0000000000
     70874     23625  TIP3      H1             46.0964833595      -26.7823522861       31.1127903535  W2        24184           0.0000000000
     70875     23625  TIP3      H2             45.8501233595      -26.2662722861       32.5145203535  W2        24184           0.0000000000
     70876     23626  TIP3      OH2            51.8404533595      -21.4005822861       32.6097203535  W2        24185           0.0000000000
     70877     23626  TIP3      H1             51.6001133595      -20.7382722861       33.2576403535  W2        24185           0.0000000000
     70878     23626  TIP3      H2             51.6422733595      -22.2350622861       33.0346803535  W2        24185           0.0000000000
     70879     23627  TIP3      OH2            52.3902633595      -27.1406622861       24.0447903535  W2        24187           0.0000000000
     70880     23627  TIP3      H1             52.9698133595      -26.9906322861       24.7916803535  W2        24187           0.0000000000
     70881     23627  TIP3      H2             52.8042633595      -26.6699222861       23.3214303535  W2        24187           0.0000000000
     70882     23628  TIP3      OH2            50.1167533595      -20.4038122861       27.4801003535  W2        24189           0.0000000000
     70883     23628  TIP3      H1             50.5905133595      -20.1081822861       28.2575203535  W2        24189           0.0000000000
     70884     23628  TIP3      H2             49.5536833595      -19.6656522861       27.2470603535  W2        24189           0.0000000000
     70885     23629  TIP3      OH2            44.1549533595      -26.6029022861       25.8314503535  W2        24191           0.0000000000
     70886     23629  TIP3      H1             43.8630833595      -25.8347322861       25.3405803535  W2        24191           0.0000000000
     70887     23629  TIP3      H2             43.4804733595      -27.2622822861       25.6685903535  W2        24191           0.0000000000
     70888     23630  TIP3      OH2            40.2479633595      -24.2399822861       34.6464303535  W2        24192           0.0000000000
     70889     23630  TIP3      H1             39.7468033595      -24.2680422861       33.8314003535  W2        24192           0.0000000000
     70890     23630  TIP3      H2             40.2533333595      -25.1456622861       34.9561603535  W2        24192           0.0000000000
     70891     23631  TIP3      OH2            39.9982333595      -21.4596022861       31.5304503535  W2        24193           0.0000000000
     70892     23631  TIP3      H1             40.9442933595      -21.6039022861       31.5114003535  W2        24193           0.0000000000
     70893     23631  TIP3      H2             39.8858633595      -20.6753222861       32.0675703535  W2        24193           0.0000000000
     70894     23632  TIP3      OH2            49.5890633595      -17.4473422861       25.8950203535  W2        24195           0.0000000000
     70895     23632  TIP3      H1             49.5136633595      -17.5686222861       24.9485403535  W2        24195           0.0000000000
     70896     23632  TIP3      H2             49.6219333595      -16.4980722861       26.0134803535  W2        24195           0.0000000000
     70897     23633  TIP3      OH2            43.2424433595      -18.6586422861       27.6759203535  W2        24196           0.0000000000
     70898     23633  TIP3      H1             43.3944833595      -19.0066022861       28.5545703535  W2        24196           0.0000000000
     70899     23633  TIP3      H2             42.3914833595      -19.0149122861       27.4206403535  W2        24196           0.0000000000
     70900     23634  TIP3      OH2            52.6906633595      -18.2933222861       22.8972603535  W2        24197           0.0000000000
     70901     23634  TIP3      H1             53.0655033595      -19.0377122861       22.4265203535  W2        24197           0.0000000000
     70902     23634  TIP3      H2             52.6950333595      -18.5632622861       23.8155903535  W2        24197           0.0000000000
     70903     23635  TIP3      OH2            52.3594733595      -18.3676122861       25.6464803535  W2        24198           0.0000000000
     70904     23635  TIP3      H1             51.4244533595      -18.2674222861       25.8251803535  W2        24198           0.0000000000
     70905     23635  TIP3      H2             52.6396633595      -19.0770122861       26.2248003535  W2        24198           0.0000000000
     70906     23636  TIP3      OH2            45.1158133595      -34.4463922861       31.6851303535  W2        24200           0.0000000000
     70907     23636  TIP3      H1             44.2541833595      -34.5335722861       31.2774203535  W2        24200           0.0000000000
     70908     23636  TIP3      H2             45.0933833595      -33.5903822861       32.1128903535  W2        24200           0.0000000000
     70909     23637  TIP3      OH2            49.7785933595      -34.7243522861       35.0598303535  W2        24201           0.0000000000
     70910     23637  TIP3      H1             50.1989033595      -35.1396422861       35.8128903535  W2        24201           0.0000000000
     70911     23637  TIP3      H2             48.8455533595      -34.9030222861       35.1770303535  W2        24201           0.0000000000
     70912     23638  TIP3      OH2            53.8675733595      -26.1078322861       21.6745803535  W2        24203           0.0000000000
     70913     23638  TIP3      H1             53.9096533595      -26.3304422861       20.7445803535  W2        24203           0.0000000000
     70914     23638  TIP3      H2             54.7167833595      -25.7091222861       21.8645703535  W2        24203           0.0000000000
     70915     23639  TIP3      OH2            49.4403233595      -32.2320122861       22.3449103535  W2        24204           0.0000000000
     70916     23639  TIP3      H1             49.1868033595      -32.2128522861       23.2677203535  W2        24204           0.0000000000
     70917     23639  TIP3      H2             49.1835333595      -33.1034722861       22.0435303535  W2        24204           0.0000000000
     70918     23640  TIP3      OH2            45.2068233595      -29.4809422861       32.7801503535  W2        24205           0.0000000000
     70919     23640  TIP3      H1             44.5650333595      -29.5212122861       33.4891603535  W2        24205           0.0000000000
     70920     23640  TIP3      H2             45.2440233595      -28.5544722861       32.5424503535  W2        24205           0.0000000000
     70921     23641  TIP3      OH2            45.2037333595      -29.2599322861       27.6921503535  W2        24206           0.0000000000
     70922     23641  TIP3      H1             44.3110233595      -29.6003222861       27.6335303535  W2        24206           0.0000000000
     70923     23641  TIP3      H2             45.6543933595      -29.6368422861       26.9364703535  W2        24206           0.0000000000
     70924     23642  TIP3      OH2            50.7392833595      -28.8439022861       26.5092303535  W2        24207           0.0000000000
     70925     23642  TIP3      H1             50.3303133595      -28.0290422861       26.2177103535  W2        24207           0.0000000000
     70926     23642  TIP3      H2             51.4599033595      -28.9838922861       25.8949403535  W2        24207           0.0000000000
     70927     23643  TIP3      OH2            51.7440533595      -29.3978622861       29.3232003535  W2        24209           0.0000000000
     70928     23643  TIP3      H1             51.5485033595      -28.7921822861       28.6082603535  W2        24209           0.0000000000
     70929     23643  TIP3      H2             51.9253133595      -30.2313422861       28.8888303535  W2        24209           0.0000000000
     70930     23644  TIP3      OH2            42.9568733595      -29.1605922861       34.6473503535  W2        24210           0.0000000000
     70931     23644  TIP3      H1             42.9188133595      -28.7604322861       35.5160603535  W2        24210           0.0000000000
     70932     23644  TIP3      H2             42.4659833595      -29.9773522861       34.7376403535  W2        24210           0.0000000000
     70933     23645  TIP3      OH2            46.3226133595      -31.7863622861       21.4459503535  W2        24211           0.0000000000
     70934     23645  TIP3      H1             45.8916833595      -32.2313522861       22.1756903535  W2        24211           0.0000000000
     70935     23645  TIP3      H2             45.6044833595      -31.4147322861       20.9337003535  W2        24211           0.0000000000
     70936     23646  TIP3      OH2            39.5649533595      -32.0444122861       28.4978203535  W2        24212           0.0000000000
     70937     23646  TIP3      H1             40.1957233595      -32.0732022861       29.2172103535  W2        24212           0.0000000000
     70938     23646  TIP3      H2             40.0143833595      -32.4695422861       27.7674103535  W2        24212           0.0000000000
     70939     23647  TIP3      OH2            40.8391633595      -31.2982122861       23.9218603535  W2        24213           0.0000000000
     70940     23647  TIP3      H1             41.3133333595      -30.7072222861       23.3369503535  W2        24213           0.0000000000
     70941     23647  TIP3      H2             40.1218033595      -30.7679222861       24.2688703535  W2        24213           0.0000000000
     70942     23648  TIP3      OH2            51.0079733595      -27.7597322861       33.9944403535  W2        24214           0.0000000000
     70943     23648  TIP3      H1             51.3314533595      -28.3907622861       33.3514903535  W2        24214           0.0000000000
     70944     23648  TIP3      H2             50.5679033595      -28.2945122861       34.6551803535  W2        24214           0.0000000000
     70945     23649  TIP3      OH2            47.7852633595      -31.8321822861       28.7785603535  W2        24215           0.0000000000
     70946     23649  TIP3      H1             46.8743733595      -31.7755022861       29.0671603535  W2        24215           0.0000000000
     70947     23649  TIP3      H2             48.2905533595      -31.8926322861       29.5892803535  W2        24215           0.0000000000
     70948     23650  TIP3      OH2            42.6136033595      -30.2035522861       27.6053203535  W2        24216           0.0000000000
     70949     23650  TIP3      H1             41.7244033595      -30.1040022861       27.2652803535  W2        24216           0.0000000000
     70950     23650  TIP3      H2             42.9100933595      -31.0452522861       27.2591103535  W2        24216           0.0000000000
     70951     23651  TIP3      OH2            46.2667833595      -30.2032922861       25.2617803535  W2        24217           0.0000000000
     70952     23651  TIP3      H1             47.1983333595      -30.0742922861       25.4400903535  W2        24217           0.0000000000
     70953     23651  TIP3      H2             46.0518133595      -29.5338622861       24.6122503535  W2        24217           0.0000000000
     70954     23652  TIP3      OH2            52.1904533595      -32.5975522861       32.0427403535  W2        24218           0.0000000000
     70955     23652  TIP3      H1             51.5136133595      -32.4662422861       32.7067103535  W2        24218           0.0000000000
     70956     23652  TIP3      H2             51.7049433595      -32.7526022861       31.2325103535  W2        24218           0.0000000000
     70957     23653  TIP3      OH2            44.9408033595      -29.0090722861       22.8283903535  W2        24219           0.0000000000
     70958     23653  TIP3      H1             44.3983133595      -29.3886922861       22.1371503535  W2        24219           0.0000000000
     70959     23653  TIP3      H2             45.7742933595      -28.8146022861       22.3998003535  W2        24219           0.0000000000
     70960     23654  TIP3      OH2            49.1052333595      -29.0448822861       30.6655203535  W2        24221           0.0000000000
     70961     23654  TIP3      H1             49.6695733595      -29.5912222861       30.1184803535  W2        24221           0.0000000000
     70962     23654  TIP3      H2             48.9575733595      -29.5666922861       31.4542803535  W2        24221           0.0000000000
     70963     23655  TIP3      OH2            44.1072033595      -32.9082722861       27.0840003535  W2        24222           0.0000000000
     70964     23655  TIP3      H1             43.7901533595      -33.8107422861       27.0485403535  W2        24222           0.0000000000
     70965     23655  TIP3      H2             44.8886133595      -32.9065322861       26.5311603535  W2        24222           0.0000000000
     70966     23656  TIP3      OH2            47.7318233595      -30.6562722861       33.0795603535  W2        24223           0.0000000000
     70967     23656  TIP3      H1             46.8963533595      -30.2023222861       33.1898003535  W2        24223           0.0000000000
     70968     23656  TIP3      H2             48.2558833595      -30.3804222861       33.8315503535  W2        24223           0.0000000000
     70969     23657  TIP3      OH2            48.2760833595      -24.4435022861       24.7642003535  W2        24224           0.0000000000
     70970     23657  TIP3      H1             47.5311833595      -24.9509722861       24.4419903535  W2        24224           0.0000000000
     70971     23657  TIP3      H2             48.1418033595      -24.3947022861       25.7106803535  W2        24224           0.0000000000
     70972     23658  TIP3      OH2            52.1737633595      -31.6295122861       22.9634603535  W2        24225           0.0000000000
     70973     23658  TIP3      H1             51.2351833595      -31.5179522861       22.8123403535  W2        24225           0.0000000000
     70974     23658  TIP3      H2             52.4709733595      -30.7728222861       23.2700303535  W2        24225           0.0000000000
     70975     23659  TIP3      OH2            52.8921133595      -29.7622422861       24.6242003535  W2        24227           0.0000000000
     70976     23659  TIP3      H1             53.7840133595      -29.8997422861       24.9433203535  W2        24227           0.0000000000
     70977     23659  TIP3      H2             52.9484733595      -28.9716322861       24.0875503535  W2        24227           0.0000000000
     70978     23660  TIP3      OH2            43.4009133595      -25.1485022861       30.5339903535  W2        24228           0.0000000000
     70979     23660  TIP3      H1             44.1456333595      -25.1509322861       29.9326403535  W2        24228           0.0000000000
     70980     23660  TIP3      H2             43.4785733595      -25.9721222861       31.0155003535  W2        24228           0.0000000000
     70981     23661  TIP3      OH2            50.4014933595      -22.9850722861       23.7896603535  W2        24229           0.0000000000
     70982     23661  TIP3      H1             50.1063333595      -22.1582822861       24.1711403535  W2        24229           0.0000000000
     70983     23661  TIP3      H2             49.6984933595      -23.6043822861       23.9858003535  W2        24229           0.0000000000
     70984     23662  TIP3      OH2            53.2325433595      -25.9588422861       31.8052703535  W2        24233           0.0000000000
     70985     23662  TIP3      H1             52.3042333595      -26.1906522861       31.7782003535  W2        24233           0.0000000000
     70986     23662  TIP3      H2             53.6836533595      -26.7358622861       31.4751503535  W2        24233           0.0000000000
     70987     23663  TIP3      OH2            45.7758533595      -21.6306822861       27.9381403535  W2        24234           0.0000000000
     70988     23663  TIP3      H1             46.3030733595      -20.8572422861       27.7380203535  W2        24234           0.0000000000
     70989     23663  TIP3      H2             44.8957033595      -21.4057622861       27.6365403535  W2        24234           0.0000000000
     70990     23664  TIP3      OH2            41.5306233595      -26.7682722861       22.5253803535  W2        24235           0.0000000000
     70991     23664  TIP3      H1             42.1466133595      -26.1415522861       22.9048603535  W2        24235           0.0000000000
     70992     23664  TIP3      H2             40.6688833595      -26.4522922861       22.7970303535  W2        24235           0.0000000000
     70993     23665  TIP3      OH2            47.2030833595      -23.9676922861       27.5145703535  W2        24236           0.0000000000
     70994     23665  TIP3      H1             46.9620833595      -23.0422522861       27.5561003535  W2        24236           0.0000000000
     70995     23665  TIP3      H2             46.4624433595      -24.4265622861       27.9109603535  W2        24236           0.0000000000
     70996     23666  TIP3      OH2            47.7177433595      -19.8183322861       33.8296803535  W2        24237           0.0000000000
     70997     23666  TIP3      H1             48.0802133595      -18.9637722861       33.5961203535  W2        24237           0.0000000000
     70998     23666  TIP3      H2             48.2492633595      -20.1101722861       34.5703103535  W2        24237           0.0000000000
     70999     23667  TIP3      OH2            45.8861633595      -18.9459322861       27.0597903535  W2        24238           0.0000000000
     71000     23667  TIP3      H1             44.9362133595      -18.8401922861       27.1111203535  W2        24238           0.0000000000
     71001     23667  TIP3      H2             46.2379733595      -18.1251922861       27.4045403535  W2        24238           0.0000000000
     71002     23668  TIP3      OH2            51.2618233595      -23.7192622861       33.5302403535  W2        24239           0.0000000000
     71003     23668  TIP3      H1             50.8359533595      -23.9470922861       34.3566403535  W2        24239           0.0000000000
     71004     23668  TIP3      H2             51.8424033595      -24.4580822861       33.3477703535  W2        24239           0.0000000000
     71005     23669  TIP3      OH2            53.4647133595      -22.7902122861       22.6041403535  W2        24240           0.0000000000
     71006     23669  TIP3      H1             53.8180233595      -23.1702322861       23.4084903535  W2        24240           0.0000000000
     71007     23669  TIP3      H2             52.5160633595      -22.8837322861       22.6910703535  W2        24240           0.0000000000
     71008     23670  TIP3      OH2            42.0428333595      -31.9345422861       35.4069803535  W2        24242           0.0000000000
     71009     23670  TIP3      H1             41.1500633595      -31.5960022861       35.3393803535  W2        24242           0.0000000000
     71010     23670  TIP3      H2             41.9441133595      -32.7899322861       35.8250603535  W2        24242           0.0000000000
     71011     23671  TIP3      OH2            54.3306433595      -24.1180122861       24.8309303535  W2        24243           0.0000000000
     71012     23671  TIP3      H1             54.0534033595      -24.8460822861       25.3870403535  W2        24243           0.0000000000
     71013     23671  TIP3      H2             55.2579433595      -23.9988122861       25.0361903535  W2        24243           0.0000000000
     71014     23672  TIP3      OH2            41.6940333595      -20.1301022861       33.8419203535  W2        24244           0.0000000000
     71015     23672  TIP3      H1             41.9110633595      -21.0618622861       33.8108903535  W2        24244           0.0000000000
     71016     23672  TIP3      H2             41.9403833595      -19.8556022861       34.7252003535  W2        24244           0.0000000000
     71017     23673  TIP3      OH2            47.5554933595      -21.6786022861       21.0511403535  W2        24245           0.0000000000
     71018     23673  TIP3      H1             47.7944733595      -22.4267922861       20.5040303535  W2        24245           0.0000000000
     71019     23673  TIP3      H2             47.2866233595      -22.0664322861       21.8839203535  W2        24245           0.0000000000
     71020     23674  TIP3      OH2            46.4925533595      -22.1082222861       23.5074003535  W2        24246           0.0000000000
     71021     23674  TIP3      H1             46.6393533595      -22.6282422861       24.2974903535  W2        24246           0.0000000000
     71022     23674  TIP3      H2             46.4897233595      -21.2014622861       23.8139903535  W2        24246           0.0000000000
     71023     23675  TIP3      OH2            42.9456633595      -24.8558922861       24.0179403535  W2        24247           0.0000000000
     71024     23675  TIP3      H1             42.2595933595      -24.5036422861       24.5849103535  W2        24247           0.0000000000
     71025     23675  TIP3      H2             43.4684533595      -24.0929322861       23.7713703535  W2        24247           0.0000000000
     71026     23676  TIP3      OH2            50.7771733595      -32.1935122861       34.2968403535  W2        24248           0.0000000000
     71027     23676  TIP3      H1             51.4759633595      -32.1196422861       34.9468103535  W2        24248           0.0000000000
     71028     23676  TIP3      H2             50.3963133595      -33.0580122861       34.4511303535  W2        24248           0.0000000000
     71029     23677  TIP3      OH2            51.5616633595      -32.5413422861       25.3940703535  W2        24249           0.0000000000
     71030     23677  TIP3      H1             51.7814933595      -32.0698022861       24.5906103535  W2        24249           0.0000000000
     71031     23677  TIP3      H2             52.1200633595      -32.1470822861       26.0641303535  W2        24249           0.0000000000
     71032     23678  TIP3      OH2            49.2302733595      -20.4108622861       24.2568203535  W2        24250           0.0000000000
     71033     23678  TIP3      H1             48.4138833595      -19.9138922861       24.3092503535  W2        24250           0.0000000000
     71034     23678  TIP3      H2             49.7599033595      -19.9355122861       23.6167003535  W2        24250           0.0000000000
     71035     23679  TIP3      OH2            48.7616533595      -30.8134622861       26.2289103535  W2        24251           0.0000000000
     71036     23679  TIP3      H1             49.5739133595      -30.3091422861       26.2750803535  W2        24251           0.0000000000
     71037     23679  TIP3      H2             48.5169533595      -30.9584922861       27.1428703535  W2        24251           0.0000000000
     71038     23680  TIP3      OH2            49.2972933595      -29.8271922861       35.4135703535  W2        24252           0.0000000000
     71039     23680  TIP3      H1             49.4163233595      -29.2536522861       36.1706103535  W2        24252           0.0000000000
     71040     23680  TIP3      H2             49.9527533595      -30.5152522861       35.5283503535  W2        24252           0.0000000000
     71041     23681  TIP3      OH2            49.6453233595      -33.7321622861       27.1670203535  W2        24253           0.0000000000
     71042     23681  TIP3      H1             49.2986733595      -33.1151022861       27.8114503535  W2        24253           0.0000000000
     71043     23681  TIP3      H2             50.3040133595      -33.2315922861       26.6855703535  W2        24253           0.0000000000
     71044     23682  TIP3      OH2            46.5685833595      -19.3671422861       24.2385103535  W2        24254           0.0000000000
     71045     23682  TIP3      H1             46.7294533595      -18.5673922861       23.7377703535  W2        24254           0.0000000000
     71046     23682  TIP3      H2             46.3713633595      -19.0605422861       25.1235703535  W2        24254           0.0000000000
     71047     23683  TIP3      OH2            45.3030233595      -32.6692222861       23.8542703535  W2        24255           0.0000000000
     71048     23683  TIP3      H1             45.2195033595      -31.7809122861       24.2009103535  W2        24255           0.0000000000
     71049     23683  TIP3      H2             46.1930533595      -32.9345522861       24.0859503535  W2        24255           0.0000000000
     71050     23684  TIP3      OH2            54.1039733595      -28.1700622861       30.3442703535  W2        24256           0.0000000000
     71051     23684  TIP3      H1             53.3064133595      -28.5850422861       30.0157703535  W2        24256           0.0000000000
     71052     23684  TIP3      H2             54.5490833595      -28.8606922861       30.8353203535  W2        24256           0.0000000000
     71053     23685  TIP3      OH2            43.5615533595      -22.2420022861       22.9147203535  W2        24257           0.0000000000
     71054     23685  TIP3      H1             44.1537033595      -21.5425222861       23.1909603535  W2        24257           0.0000000000
     71055     23685  TIP3      H2             44.0208533595      -22.6750522861       22.1951803535  W2        24257           0.0000000000
     71056     23686  TIP3      OH2            41.8774733595      -29.5777022861       22.0306603535  W2        24258           0.0000000000
     71057     23686  TIP3      H1             41.8327333595      -28.6383922861       22.2093603535  W2        24258           0.0000000000
     71058     23686  TIP3      H2             40.9897933595      -29.8132122861       21.7608703535  W2        24258           0.0000000000
     71059     23687  TIP3      OH2            42.6856733595      -34.7960422861       30.7037603535  W2        24259           0.0000000000
     71060     23687  TIP3      H1             42.4566533595      -34.7367922861       29.7762603535  W2        24259           0.0000000000
     71061     23687  TIP3      H2             42.2430133595      -35.5874922861       31.0101703535  W2        24259           0.0000000000
     71062     23688  TIP3      OH2            41.6160033595      -20.8553322861       26.8643403535  W2        24260           0.0000000000
     71063     23688  TIP3      H1             40.7838633595      -20.3830622861       26.8914803535  W2        24260           0.0000000000
     71064     23688  TIP3      H2             42.1618333595      -20.3455722861       26.2656503535  W2        24260           0.0000000000
     71065     23689  TIP3      OH2            49.5936733595      -19.8154622861       21.1897403535  W2        24263           0.0000000000
     71066     23689  TIP3      H1             48.9497733595      -20.4466022861       21.5111103535  W2        24263           0.0000000000
     71067     23689  TIP3      H2             50.3555033595      -20.3466622861       20.9580903535  W2        24263           0.0000000000
     71068     23690  TIP3      OH2            54.1979633595      -19.9984722861       21.4235403535  W2        24265           0.0000000000
     71069     23690  TIP3      H1             54.4810033595      -20.7929522861       21.8762303535  W2        24265           0.0000000000
     71070     23690  TIP3      H2             54.9377533595      -19.7653722861       20.8626503535  W2        24265           0.0000000000
     71071     23691  TIP3      OH2            45.1526933595      -24.0889822861       21.2810303535  W2        24267           0.0000000000
     71072     23691  TIP3      H1             45.2171033595      -24.8830222861       21.8116703535  W2        24267           0.0000000000
     71073     23691  TIP3      H2             45.8056133595      -24.2077022861       20.5912303535  W2        24267           0.0000000000
     71074     23692  TIP3      OH2            50.5050333595      -23.0418122861       21.0168303535  W2        24269           0.0000000000
     71075     23692  TIP3      H1             50.2364433595      -22.8616022861       21.9177203535  W2        24269           0.0000000000
     71076     23692  TIP3      H2             50.2985933595      -23.9671922861       20.8854103535  W2        24269           0.0000000000
     71077     23693  TIP3      OH2            46.3020733595      -26.1163622861       23.5868303535  W2        24272           0.0000000000
     71078     23693  TIP3      H1             45.8422733595      -26.6005322861       24.2726803535  W2        24272           0.0000000000
     71079     23693  TIP3      H2             46.5569433595      -26.7848222861       22.9508803535  W2        24272           0.0000000000
     71080     23694  TIP3      OH2            47.3731133595      -27.8731822861       21.8491503535  W2        24274           0.0000000000
     71081     23694  TIP3      H1             47.1926133595      -28.0280622861       20.9219803535  W2        24274           0.0000000000
     71082     23694  TIP3      H2             48.3231633595      -27.7653122861       21.8939403535  W2        24274           0.0000000000
     71083     23695  TIP3      OH2            46.3429433595      -32.4989922861       34.5178403535  W2        24277           0.0000000000
     71084     23695  TIP3      H1             46.8786933595      -32.0473222861       33.8657703535  W2        24277           0.0000000000
     71085     23695  TIP3      H2             45.4909033595      -32.6070122861       34.0952503535  W2        24277           0.0000000000
     71086     23696  TIP3      OH2            47.9247833595      -27.0593722861       34.7573603535  W2        24278           0.0000000000
     71087     23696  TIP3      H1             48.6752633595      -27.2156222861       34.1841403535  W2        24278           0.0000000000
     71088     23696  TIP3      H2             47.5856133595      -26.2077122861       34.4819103535  W2        24278           0.0000000000
     71089     23697  TIP3      OH2            47.1484933595      -35.0424222861       34.9492003535  W2        24282           0.0000000000
     71090     23697  TIP3      H1             47.0504533595      -34.0961022861       34.8438203535  W2        24282           0.0000000000
     71091     23697  TIP3      H2             46.4061133595      -35.4150422861       34.4735503535  W2        24282           0.0000000000
     71092     23698  TIP3      OH2            47.2702833595      -17.1828122861       22.8505103535  W2        24289           0.0000000000
     71093     23698  TIP3      H1             48.2033533595      -17.0249422861       22.9943503535  W2        24289           0.0000000000
     71094     23698  TIP3      H2             47.0061633595      -16.5075122861       22.2256603535  W2        24289           0.0000000000
     71095     23699  TIP3      OH2            40.8387733595      -22.5464322861       22.3333203535  W2        24290           0.0000000000
     71096     23699  TIP3      H1             41.7526933595      -22.4675422861       22.6067103535  W2        24290           0.0000000000
     71097     23699  TIP3      H2             40.8460833595      -23.2334722861       21.6668803535  W2        24290           0.0000000000
     71098     23700  TIP3      OH2            39.4878333595      -17.1535822861       27.4107103535  W2        24291           0.0000000000
     71099     23700  TIP3      H1             38.8405433595      -17.6154122861       26.8778303535  W2        24291           0.0000000000
     71100     23700  TIP3      H2             39.8422933595      -17.8252522861       27.9933303535  W2        24291           0.0000000000
     71101     23701  TIP3      OH2            40.3577533595      -19.0728822861       29.2153303535  W2        24292           0.0000000000
     71102     23701  TIP3      H1             40.0234333595      -19.9531522861       29.3873503535  W2        24292           0.0000000000
     71103     23701  TIP3      H2             40.5799933595      -18.7273822861       30.0798903535  W2        24292           0.0000000000
     71104     23702  TIP3      OH2            40.4377033595      -25.9973422861       31.6668203535  W2        24293           0.0000000000
     71105     23702  TIP3      H1             40.6219933595      -26.0791722861       30.7311103535  W2        24293           0.0000000000
     71106     23702  TIP3      H2             41.2869933595      -26.1216422861       32.0904603535  W2        24293           0.0000000000
     71107     23703  TIP3      OH2            41.2564333595      -32.4146822861       30.6989903535  W2        24295           0.0000000000
     71108     23703  TIP3      H1             41.7015933595      -33.2064322861       31.0009603535  W2        24295           0.0000000000
     71109     23703  TIP3      H2             41.7227333595      -31.6981622861       31.1295503535  W2        24295           0.0000000000
     71110     23704  TIP3      OH2            39.5604633595      -29.4153822861       31.7680103535  W2        24296           0.0000000000
     71111     23704  TIP3      H1             40.0524433595      -29.6363322861       30.9772103535  W2        24296           0.0000000000
     71112     23704  TIP3      H2             39.9225533595      -28.5750422861       32.0489603535  W2        24296           0.0000000000
     71113     23705  TIP3      OH2            39.8741133595      -33.1574722861       25.8222503535  W2        24297           0.0000000000
     71114     23705  TIP3      H1             38.9489533595      -32.9488122861       25.6928003535  W2        24297           0.0000000000
     71115     23705  TIP3      H2             40.3281033595      -32.6733922861       25.1324803535  W2        24297           0.0000000000
     71116     23706  TIP3      OH2            54.6448333595      -18.1733022861       27.7679903535  W2        24298           0.0000000000
     71117     23706  TIP3      H1             55.2971233595      -18.5210922861       27.1599003535  W2        24298           0.0000000000
     71118     23706  TIP3      H2             55.1552133595      -17.6849822861       28.4139603535  W2        24298           0.0000000000
     71119     23707  TIP3      OH2            39.8376533595      -34.4195722861       34.1665003535  W2        24299           0.0000000000
     71120     23707  TIP3      H1             39.1727033595      -34.6655422861       34.8095903535  W2        24299           0.0000000000
     71121     23707  TIP3      H2             39.3947833595      -33.7975322861       33.5893003535  W2        24299           0.0000000000
     71122     23708  TIP3      OH2            44.9838733595      -20.2700422861       34.5694803535  W2        24301           0.0000000000
     71123     23708  TIP3      H1             44.5589833595      -19.4601922861       34.2869403535  W2        24301           0.0000000000
     71124     23708  TIP3      H2             45.8881533595      -20.1846322861       34.2674603535  W2        24301           0.0000000000
     71125     23709  TIP3      OH2            42.3855433595      -17.0136522861       34.6170103535  W2        24304           0.0000000000
     71126     23709  TIP3      H1             41.6651833595      -16.5735522861       34.1657803535  W2        24304           0.0000000000
     71127     23709  TIP3      H2             42.0199433595      -17.2641822861       35.4654103535  W2        24304           0.0000000000
     71128     23710  TIP3      OH2            44.8528033595      -17.4132622861       33.6467303535  W2        24305           0.0000000000
     71129     23710  TIP3      H1             43.9880233595      -17.3414122861       34.0507403535  W2        24305           0.0000000000
     71130     23710  TIP3      H2             44.7977033595      -16.8665322861       32.8629803535  W2        24305           0.0000000000
     71131     23711  TIP3      OH2            49.5633633595      -17.5253722861       32.8223303535  W2        24306           0.0000000000
     71132     23711  TIP3      H1             49.1067633595      -16.9964022861       32.1681703535  W2        24306           0.0000000000
     71133     23711  TIP3      H2             49.7261633595      -16.9222322861       33.5475603535  W2        24306           0.0000000000
     71134     23712  TIP3      OH2            51.8909933595      -18.6474122861       33.7673603535  W2        24307           0.0000000000
     71135     23712  TIP3      H1             50.9863633595      -18.4823922861       33.5015703535  W2        24307           0.0000000000
     71136     23712  TIP3      H2             52.3198533595      -17.7941922861       33.7017003535  W2        24307           0.0000000000
     71137     23713  TIP3      OH2            54.4951833595      -17.0775022861       34.0621403535  W2        24308           0.0000000000
     71138     23713  TIP3      H1             54.3133833595      -16.1616122861       33.8516303535  W2        24308           0.0000000000
     71139     23713  TIP3      H2             54.6719633595      -17.4877922861       33.2156003535  W2        24308           0.0000000000
     71140     23714  TIP3      OH2            41.8003533595      -18.3904022861       31.5271903535  W2        24309           0.0000000000
     71141     23714  TIP3      H1             41.7819533595      -18.8158922861       32.3844203535  W2        24309           0.0000000000
     71142     23714  TIP3      H2             42.6051433595      -18.7089022861       31.1184103535  W2        24309           0.0000000000
     71143     23715  TIP3      OH2            43.9416633595      -19.6805322861       30.1821803535  W2        24310           0.0000000000
     71144     23715  TIP3      H1             43.7227333595      -20.5967922861       30.3517803535  W2        24310           0.0000000000
     71145     23715  TIP3      H2             44.7658833595      -19.5404922861       30.6483203535  W2        24310           0.0000000000
     71146     23716  TIP3      OH2            46.4789133595      -19.2106022861       31.0309803535  W2        24311           0.0000000000
     71147     23716  TIP3      H1             46.6914833595      -20.0987022861       30.7440703535  W2        24311           0.0000000000
     71148     23716  TIP3      H2             46.5434233595      -19.2448322861       31.9853803535  W2        24311           0.0000000000
     71149     23717  TIP3      OH2            49.9872833595      -33.5465422861       30.1753103535  W2        24312           0.0000000000
     71150     23717  TIP3      H1             49.3129633595      -34.1759822861       30.4308903535  W2        24312           0.0000000000
     71151     23717  TIP3      H2             50.5512033595      -34.0306522861       29.5721003535  W2        24312           0.0000000000
     71152     23718  TIP3      OH2            42.3140333595      -34.9125122861       27.9973003535  W2        24313           0.0000000000
     71153     23718  TIP3      H1             41.5370133595      -35.1470222861       27.4898903535  W2        24313           0.0000000000
     71154     23718  TIP3      H2             42.8443933595      -35.7093022861       28.0061003535  W2        24313           0.0000000000
     71155     23719  TIP3      OH2            41.1503733595      -35.1147022861       23.8009103535  W2        24314           0.0000000000
     71156     23719  TIP3      H1             41.5894433595      -34.5036522861       23.2092603535  W2        24314           0.0000000000
     71157     23719  TIP3      H2             40.5166133595      -34.5762922861       24.2749103535  W2        24314           0.0000000000
     71158     23720  TIP3      OH2            46.8932933595      -34.9858022861       27.8106103535  W2        24315           0.0000000000
     71159     23720  TIP3      H1             47.7676333595      -34.5973722861       27.7810403535  W2        24315           0.0000000000
     71160     23720  TIP3      H2             46.7573733595      -35.2010222861       28.7333303535  W2        24315           0.0000000000
     71161     23721  TIP3      OH2            52.4501333595      -34.9558222861       29.4597803535  W2        24316           0.0000000000
     71162     23721  TIP3      H1             52.5262933595      -34.8606622861       28.5103803535  W2        24316           0.0000000000
     71163     23721  TIP3      H2             52.1750533595      -35.8635322861       29.5886903535  W2        24316           0.0000000000
     71164     23722  TIP3      OH2            53.8033933595      -34.9300422861       25.1522803535  W2        24317           0.0000000000
     71165     23722  TIP3      H1             53.1005033595      -34.3151222861       24.9424203535  W2        24317           0.0000000000
     71166     23722  TIP3      H2             53.3585333595      -35.7673722861       25.2833703535  W2        24317           0.0000000000
     71167     23723  TIP3      OH2            41.0513233595      -19.1664822861       24.6984203535  W2        24318           0.0000000000
     71168     23723  TIP3      H1             40.3663133595      -19.2045922861       24.0309303535  W2        24318           0.0000000000
     71169     23723  TIP3      H2             41.0550433595      -18.2537222861       24.9866303535  W2        24318           0.0000000000
     71170     23724  TIP3      OH2            43.0112833595      -33.1985522861       22.2433203535  W2        24319           0.0000000000
     71171     23724  TIP3      H1             43.5026233595      -33.8283122861       21.7158703535  W2        24319           0.0000000000
     71172     23724  TIP3      H2             43.6349133595      -32.9026122861       22.9064403535  W2        24319           0.0000000000
     71173     23725  TIP3      OH2            48.0372933595      -32.9054022861       24.7003703535  W2        24320           0.0000000000
     71174     23725  TIP3      H1             48.2154233595      -33.5520822861       25.3832303535  W2        24320           0.0000000000
     71175     23725  TIP3      H2             47.9839133595      -32.0716322861       25.1674803535  W2        24320           0.0000000000
     71176     23726  TIP3      OH2            49.9156733595      -17.9569922861       23.0960403535  W2        24321           0.0000000000
     71177     23726  TIP3      H1             50.7816933595      -17.5902522861       22.9178603535  W2        24321           0.0000000000
     71178     23726  TIP3      H2             49.6689533595      -18.3961922861       22.2821203535  W2        24321           0.0000000000
     71179     23727  TIP3      OH2            42.8694433595      -18.2464022861       21.7236303535  W2        24324           0.0000000000
     71180     23727  TIP3      H1             42.6019033595      -17.9601122861       22.5969403535  W2        24324           0.0000000000
     71181     23727  TIP3      H2             43.6407033595      -18.7924822861       21.8758803535  W2        24324           0.0000000000
     71182     23728  TIP3      OH2           -42.8877066405       -6.9002822861       27.9560503535  W2        24326           0.0000000000
     71183     23728  TIP3      H1            -42.7985966405       -5.9564622861       27.8237603535  W2        24326           0.0000000000
     71184     23728  TIP3      H2            -43.5259466405       -7.1756422861       27.2979903535  W2        24326           0.0000000000
     71185     23729  TIP3      OH2           -43.9545766405       -7.6452122861       31.3748703535  W2        24327           0.0000000000
     71186     23729  TIP3      H1            -43.9928266405       -8.2915822861       32.0798303535  W2        24327           0.0000000000
     71187     23729  TIP3      H2            -44.2769266405       -8.1117722861       30.6037403535  W2        24327           0.0000000000
     71188     23730  TIP3      OH2           -51.5860766405       -8.0310022861       32.9678603535  W2        24328           0.0000000000
     71189     23730  TIP3      H1            -51.5448666405       -8.6566722861       33.6911003535  W2        24328           0.0000000000
     71190     23730  TIP3      H2            -50.8833066405       -7.4071422861       33.1499003535  W2        24328           0.0000000000
     71191     23731  TIP3      OH2           -40.2485566405       -4.7061722861       29.6763803535  W2        24329           0.0000000000
     71192     23731  TIP3      H1            -40.6892866405       -5.4265722861       30.1269403535  W2        24329           0.0000000000
     71193     23731  TIP3      H2            -40.2615866405       -3.9854522861       30.3061503535  W2        24329           0.0000000000
     71194     23732  TIP3      OH2           -50.6627666405       -3.5811122861       31.5027703535  W2        24330           0.0000000000
     71195     23732  TIP3      H1            -51.0322466405       -4.3830622861       31.1332003535  W2        24330           0.0000000000
     71196     23732  TIP3      H2            -49.7216566405       -3.7496222861       31.5491103535  W2        24330           0.0000000000
     71197     23733  TIP3      OH2           -54.0527166405       -9.9208522861       26.8956503535  W2        24331           0.0000000000
     71198     23733  TIP3      H1            -54.5003766405       -9.0749822861       26.8773003535  W2        24331           0.0000000000
     71199     23733  TIP3      H2            -54.6135966405      -10.5004322861       26.3801603535  W2        24331           0.0000000000
     71200     23734  TIP3      OH2           -53.3421066405       -7.7588922861       29.0214503535  W2        24332           0.0000000000
     71201     23734  TIP3      H1            -53.1287566405       -8.5287322861       29.5487503535  W2        24332           0.0000000000
     71202     23734  TIP3      H2            -52.6043466405       -7.6692222861       28.4182103535  W2        24332           0.0000000000
     71203     23735  TIP3      OH2           -43.1370066405        0.3979977139       29.8884203535  W2        24333           0.0000000000
     71204     23735  TIP3      H1            -42.5173666405       -0.2785322861       29.6153403535  W2        24333           0.0000000000
     71205     23735  TIP3      H2            -43.3452666405        0.1800777139       30.7969103535  W2        24333           0.0000000000
     71206     23736  TIP3      OH2           -45.5651366405       -5.2130722861       31.7809703535  W2        24334           0.0000000000
     71207     23736  TIP3      H1            -45.2613466405       -5.8989322861       31.1863803535  W2        24334           0.0000000000
     71208     23736  TIP3      H2            -44.8437366405       -5.0942022861       32.3987703535  W2        24334           0.0000000000
     71209     23737  TIP3      OH2           -36.9021566405      -13.6115422861       32.6415903535  W2        24335           0.0000000000
     71210     23737  TIP3      H1            -36.8529366405      -13.0014222861       33.3775003535  W2        24335           0.0000000000
     71211     23737  TIP3      H2            -36.4766466405      -13.1504522861       31.9187003535  W2        24335           0.0000000000
     71212     23738  TIP3      OH2           -42.4244366405      -10.8188322861       32.1084503535  W2        24336           0.0000000000
     71213     23738  TIP3      H1            -42.2818466405      -11.7651322861       32.1286103535  W2        24336           0.0000000000
     71214     23738  TIP3      H2            -42.5305366405      -10.6118522861       31.1799403535  W2        24336           0.0000000000
     71215     23739  TIP3      OH2           -49.2696066405      -12.7171922861       29.3809303535  W2        24337           0.0000000000
     71216     23739  TIP3      H1            -49.2264966405      -11.8573422861       28.9625603535  W2        24337           0.0000000000
     71217     23739  TIP3      H2            -49.7271966405      -13.2697222861       28.7472503535  W2        24337           0.0000000000
     71218     23740  TIP3      OH2           -41.5473366405      -12.5866322861       27.7817603535  W2        24338           0.0000000000
     71219     23740  TIP3      H1            -40.9009066405      -12.9153122861       28.4065203535  W2        24338           0.0000000000
     71220     23740  TIP3      H2            -41.0373966405      -12.0687322861       27.1589003535  W2        24338           0.0000000000
     71221     23741  TIP3      OH2           -52.6494566405      -10.3206122861       30.1430703535  W2        24339           0.0000000000
     71222     23741  TIP3      H1            -51.9957966405      -10.8704422861       30.5750803535  W2        24339           0.0000000000
     71223     23741  TIP3      H2            -52.6255266405      -10.5947122861       29.2262703535  W2        24339           0.0000000000
     71224     23742  TIP3      OH2           -47.4930066405       -8.7704822861       29.3582203535  W2        24340           0.0000000000
     71225     23742  TIP3      H1            -46.8769066405       -9.2969422861       29.8676203535  W2        24340           0.0000000000
     71226     23742  TIP3      H2            -48.0791266405       -9.4106122861       28.9545803535  W2        24340           0.0000000000
     71227     23743  TIP3      OH2           -36.5106966405      -12.1336222861       34.8775703535  W2        24341           0.0000000000
     71228     23743  TIP3      H1            -37.1992366405      -11.4755522861       34.7822303535  W2        24341           0.0000000000
     71229     23743  TIP3      H2            -36.4952366405      -12.3308322861       35.8141103535  W2        24341           0.0000000000
     71230     23744  TIP3      OH2           -50.4594166405      -13.7993522861       33.4550103535  W2        24342           0.0000000000
     71231     23744  TIP3      H1            -50.6782466405      -13.2692922861       32.6886103535  W2        24342           0.0000000000
     71232     23744  TIP3      H2            -51.1273266405      -13.5728022861       34.1021503535  W2        24342           0.0000000000
     71233     23745  TIP3      OH2           -43.0904366405       -4.2992422861       26.9989203535  W2        24343           0.0000000000
     71234     23745  TIP3      H1            -43.3859266405       -4.6220122861       26.1476103535  W2        24343           0.0000000000
     71235     23745  TIP3      H2            -43.4146566405       -3.3995722861       27.0401803535  W2        24343           0.0000000000
     71236     23746  TIP3      OH2           -47.8902766405       -6.1237822861       33.7423803535  W2        24344           0.0000000000
     71237     23746  TIP3      H1            -48.6303666405       -5.5256322861       33.8459003535  W2        24344           0.0000000000
     71238     23746  TIP3      H2            -47.1763266405       -5.5698222861       33.4267403535  W2        24344           0.0000000000
     71239     23747  TIP3      OH2           -39.7834966405      -13.2957022861       29.7623503535  W2        24345           0.0000000000
     71240     23747  TIP3      H1            -39.9986966405      -14.0613622861       30.2949503535  W2        24345           0.0000000000
     71241     23747  TIP3      H2            -39.1277566405      -12.8232422861       30.2752003535  W2        24345           0.0000000000
     71242     23748  TIP3      OH2           -50.8656866405      -11.9071722861       31.4072303535  W2        24346           0.0000000000
     71243     23748  TIP3      H1            -50.2520566405      -11.2744122861       31.7804703535  W2        24346           0.0000000000
     71244     23748  TIP3      H2            -50.3536166405      -12.3796722861       30.7509203535  W2        24346           0.0000000000
     71245     23749  TIP3      OH2           -49.4828466405       -4.1594822861       34.5295303535  W2        24347           0.0000000000
     71246     23749  TIP3      H1            -49.4880866405       -3.2801322861       34.1514603535  W2        24347           0.0000000000
     71247     23749  TIP3      H2            -50.3364366405       -4.2430722861       34.9545203535  W2        24347           0.0000000000
     71248     23750  TIP3      OH2           -53.3617566405       -4.4886922861       25.3114603535  W2        24348           0.0000000000
     71249     23750  TIP3      H1            -53.6336666405       -4.2595922861       24.4227503535  W2        24348           0.0000000000
     71250     23750  TIP3      H2            -53.3161866405       -3.6508122861       25.7719903535  W2        24348           0.0000000000
     71251     23751  TIP3      OH2           -39.7367866405       -2.8671022861       32.0243103535  W2        24349           0.0000000000
     71252     23751  TIP3      H1            -40.6784166405       -2.8087122861       32.1860003535  W2        24349           0.0000000000
     71253     23751  TIP3      H2            -39.4601766405       -1.9610522861       31.8872803535  W2        24349           0.0000000000
     71254     23752  TIP3      OH2           -39.4360866405      -14.5805722861       33.4417003535  W2        24350           0.0000000000
     71255     23752  TIP3      H1            -40.1721666405      -13.9698622861       33.4038303535  W2        24350           0.0000000000
     71256     23752  TIP3      H2            -38.7526866405      -14.1656722861       32.9153403535  W2        24350           0.0000000000
     71257     23753  TIP3      OH2           -46.4329466405      -16.4938422861       30.9075003535  W2        24351           0.0000000000
     71258     23753  TIP3      H1            -46.5505266405      -17.4422422861       30.8533303535  W2        24351           0.0000000000
     71259     23753  TIP3      H2            -47.2879366405      -16.1612322861       31.1806103535  W2        24351           0.0000000000
     71260     23754  TIP3      OH2           -41.4846666405       -1.0857522861       28.6494703535  W2        24352           0.0000000000
     71261     23754  TIP3      H1            -41.0594366405       -1.7929622861       28.1644303535  W2        24352           0.0000000000
     71262     23754  TIP3      H2            -41.1676666405       -0.2844822861       28.2326903535  W2        24352           0.0000000000
     71263     23755  TIP3      OH2           -40.3250166405       -3.1849022861       27.1581303535  W2        24353           0.0000000000
     71264     23755  TIP3      H1            -40.5825366405       -3.8748922861       26.5467203535  W2        24353           0.0000000000
     71265     23755  TIP3      H2            -40.2539366405       -3.6277822861       28.0037203535  W2        24353           0.0000000000
     71266     23756  TIP3      OH2           -44.1664566405       -7.6562822861       25.4080803535  W2        24355           0.0000000000
     71267     23756  TIP3      H1            -44.8779066405       -7.1213122861       25.0561303535  W2        24355           0.0000000000
     71268     23756  TIP3      H2            -43.4754966405       -7.6010722861       24.7479703535  W2        24355           0.0000000000
     71269     23757  TIP3      OH2           -44.1125366405       -9.1988522861       22.4465803535  W2        24356           0.0000000000
     71270     23757  TIP3      H1            -43.4115466405       -9.1761622861       23.0979803535  W2        24356           0.0000000000
     71271     23757  TIP3      H2            -43.8102466405       -9.8268822861       21.7905103535  W2        24356           0.0000000000
     71272     23758  TIP3      OH2           -36.7970666405       -8.2784322861       33.7015203535  W2        24357           0.0000000000
     71273     23758  TIP3      H1            -37.4496566405       -7.5838722861       33.7906103535  W2        24357           0.0000000000
     71274     23758  TIP3      H2            -36.3320366405       -8.0683422861       32.8916803535  W2        24357           0.0000000000
     71275     23759  TIP3      OH2           -40.7606866405       -7.4469522861       26.3596703535  W2        24358           0.0000000000
     71276     23759  TIP3      H1            -41.4925866405       -7.2185822861       26.9327303535  W2        24358           0.0000000000
     71277     23759  TIP3      H2            -40.3134666405       -8.1606822861       26.8144203535  W2        24358           0.0000000000
     71278     23760  TIP3      OH2           -40.8633366405       -9.2726922861       35.4273703535  W2        24359           0.0000000000
     71279     23760  TIP3      H1            -40.7834266405       -8.5092522861       35.9992203535  W2        24359           0.0000000000
     71280     23760  TIP3      H2            -41.4645666405       -8.9934522861       34.7368803535  W2        24359           0.0000000000
     71281     23761  TIP3      OH2           -49.1153166405       -6.8163322861       28.2421703535  W2        24360           0.0000000000
     71282     23761  TIP3      H1            -49.4457966405       -7.1869922861       27.4238703535  W2        24360           0.0000000000
     71283     23761  TIP3      H2            -48.5269066405       -7.4869322861       28.5890003535  W2        24360           0.0000000000
     71284     23762  TIP3      OH2           -47.7485666405       -3.3882722861       30.9233903535  W2        24361           0.0000000000
     71285     23762  TIP3      H1            -47.8434366405       -3.9669622861       30.1668503535  W2        24361           0.0000000000
     71286     23762  TIP3      H2            -47.0192066405       -3.7597022861       31.4196703535  W2        24361           0.0000000000
     71287     23763  TIP3      OH2           -48.7487666405       -8.0477722861       31.8756703535  W2        24362           0.0000000000
     71288     23763  TIP3      H1            -48.1835166405       -7.9263522861       31.1127903535  W2        24362           0.0000000000
     71289     23763  TIP3      H2            -48.4298766405       -7.4102722861       32.5145203535  W2        24362           0.0000000000
     71290     23764  TIP3      OH2           -42.4395466405       -2.5445822861       32.6097203535  W2        24363           0.0000000000
     71291     23764  TIP3      H1            -42.6798866405       -1.8822722861       33.2576403535  W2        24363           0.0000000000
     71292     23764  TIP3      H2            -42.6377266405       -3.3790622861       33.0346803535  W2        24363           0.0000000000
     71293     23765  TIP3      OH2           -41.8897366405       -8.2846622861       24.0447903535  W2        24365           0.0000000000
     71294     23765  TIP3      H1            -41.3101866405       -8.1346322861       24.7916803535  W2        24365           0.0000000000
     71295     23765  TIP3      H2            -41.4757366405       -7.8139222861       23.3214303535  W2        24365           0.0000000000
     71296     23766  TIP3      OH2           -44.1632466405       -1.5478122861       27.4801003535  W2        24367           0.0000000000
     71297     23766  TIP3      H1            -43.6894866405       -1.2521822861       28.2575203535  W2        24367           0.0000000000
     71298     23766  TIP3      H2            -44.7263166405       -0.8096522861       27.2470603535  W2        24367           0.0000000000
     71299     23767  TIP3      OH2           -38.1908966405      -16.5346222861       23.8577603535  W2        24369           0.0000000000
     71300     23767  TIP3      H1            -39.0908266405      -16.3957222861       24.1528203535  W2        24369           0.0000000000
     71301     23767  TIP3      H2            -37.9390566405      -15.7031622861       23.4559303535  W2        24369           0.0000000000
     71302     23768  TIP3      OH2           -50.1250466405       -7.7469022861       25.8314503535  W2        24370           0.0000000000
     71303     23768  TIP3      H1            -50.4169166405       -6.9787322861       25.3405803535  W2        24370           0.0000000000
     71304     23768  TIP3      H2            -50.7995266405       -8.4062822861       25.6685903535  W2        24370           0.0000000000
     71305     23769  TIP3      OH2           -37.0017566405       -2.1683822861       22.2341503535  W2        24371           0.0000000000
     71306     23769  TIP3      H1            -36.9284066405       -1.2293622861       22.4046803535  W2        24371           0.0000000000
     71307     23769  TIP3      H2            -36.0962466405       -2.4735222861       22.1778803535  W2        24371           0.0000000000
     71308     23770  TIP3      OH2           -54.0320366405       -5.3839822861       34.6464303535  W2        24372           0.0000000000
     71309     23770  TIP3      H1            -54.5331966405       -5.4120422861       33.8314003535  W2        24372           0.0000000000
     71310     23770  TIP3      H2            -54.0266666405       -6.2896622861       34.9561603535  W2        24372           0.0000000000
     71311     23771  TIP3      OH2           -54.2817666405       -2.6036022861       31.5304503535  W2        24373           0.0000000000
     71312     23771  TIP3      H1            -53.3357066405       -2.7479022861       31.5114003535  W2        24373           0.0000000000
     71313     23771  TIP3      H2            -54.3941366405       -1.8193222861       32.0675703535  W2        24373           0.0000000000
     71314     23772  TIP3      OH2           -44.6909366405        1.4086577139       25.8950203535  W2        24376           0.0000000000
     71315     23772  TIP3      H1            -44.7663366405        1.2873777139       24.9485403535  W2        24376           0.0000000000
     71316     23772  TIP3      H2            -44.6580666405        2.3579277139       26.0134803535  W2        24376           0.0000000000
     71317     23773  TIP3      OH2           -51.0375566405        0.1973577139       27.6759203535  W2        24377           0.0000000000
     71318     23773  TIP3      H1            -50.8855166405       -0.1506022861       28.5545703535  W2        24377           0.0000000000
     71319     23773  TIP3      H2            -51.8885166405       -0.1589122861       27.4206403535  W2        24377           0.0000000000
     71320     23774  TIP3      OH2           -41.5893366405        0.5626777139       22.8972603535  W2        24378           0.0000000000
     71321     23774  TIP3      H1            -41.2144966405       -0.1817122861       22.4265203535  W2        24378           0.0000000000
     71322     23774  TIP3      H2            -41.5849666405        0.2927377139       23.8155903535  W2        24378           0.0000000000
     71323     23775  TIP3      OH2           -41.9205266405        0.4883877139       25.6464803535  W2        24379           0.0000000000
     71324     23775  TIP3      H1            -42.8555466405        0.5885777139       25.8251803535  W2        24379           0.0000000000
     71325     23775  TIP3      H2            -41.6403366405       -0.2210122861       26.2248003535  W2        24379           0.0000000000
     71326     23776  TIP3      OH2           -49.1641866405      -15.5903922861       31.6851303535  W2        24382           0.0000000000
     71327     23776  TIP3      H1            -50.0258166405      -15.6775722861       31.2774203535  W2        24382           0.0000000000
     71328     23776  TIP3      H2            -49.1866166405      -14.7343822861       32.1128903535  W2        24382           0.0000000000
     71329     23777  TIP3      OH2           -44.5014066405      -15.8683522861       35.0598303535  W2        24383           0.0000000000
     71330     23777  TIP3      H1            -44.0810966405      -16.2836422861       35.8128903535  W2        24383           0.0000000000
     71331     23777  TIP3      H2            -45.4344466405      -16.0470222861       35.1770303535  W2        24383           0.0000000000
     71332     23778  TIP3      OH2           -40.4124266405       -7.2518322861       21.6745803535  W2        24385           0.0000000000
     71333     23778  TIP3      H1            -40.3703466405       -7.4744422861       20.7445803535  W2        24385           0.0000000000
     71334     23778  TIP3      H2            -39.5632166405       -6.8531222861       21.8645703535  W2        24385           0.0000000000
     71335     23779  TIP3      OH2           -44.8396766405      -13.3760122861       22.3449103535  W2        24386           0.0000000000
     71336     23779  TIP3      H1            -45.0931966405      -13.3568522861       23.2677203535  W2        24386           0.0000000000
     71337     23779  TIP3      H2            -45.0964666405      -14.2474722861       22.0435303535  W2        24386           0.0000000000
     71338     23780  TIP3      OH2           -49.0731766405      -10.6249422861       32.7801503535  W2        24387           0.0000000000
     71339     23780  TIP3      H1            -49.7149666405      -10.6652122861       33.4891603535  W2        24387           0.0000000000
     71340     23780  TIP3      H2            -49.0359766405       -9.6984722861       32.5424503535  W2        24387           0.0000000000
     71341     23781  TIP3      OH2           -49.0762666405      -10.4039322861       27.6921503535  W2        24388           0.0000000000
     71342     23781  TIP3      H1            -49.9689766405      -10.7443222861       27.6335303535  W2        24388           0.0000000000
     71343     23781  TIP3      H2            -48.6256066405      -10.7808422861       26.9364703535  W2        24388           0.0000000000
     71344     23782  TIP3      OH2           -43.5407166405       -9.9879022861       26.5092303535  W2        24389           0.0000000000
     71345     23782  TIP3      H1            -43.9496866405       -9.1730422861       26.2177103535  W2        24389           0.0000000000
     71346     23782  TIP3      H2            -42.8200966405      -10.1278922861       25.8949403535  W2        24389           0.0000000000
     71347     23783  TIP3      OH2           -42.5359466405      -10.5418622861       29.3232003535  W2        24391           0.0000000000
     71348     23783  TIP3      H1            -42.7314966405       -9.9361822861       28.6082603535  W2        24391           0.0000000000
     71349     23783  TIP3      H2            -42.3546866405      -11.3753422861       28.8888303535  W2        24391           0.0000000000
     71350     23784  TIP3      OH2           -51.3231266405      -10.3045922861       34.6473503535  W2        24392           0.0000000000
     71351     23784  TIP3      H1            -51.3611866405       -9.9044322861       35.5160603535  W2        24392           0.0000000000
     71352     23784  TIP3      H2            -51.8140166405      -11.1213522861       34.7376403535  W2        24392           0.0000000000
     71353     23785  TIP3      OH2           -47.9573866405      -12.9303622861       21.4459503535  W2        24393           0.0000000000
     71354     23785  TIP3      H1            -48.3883166405      -13.3753522861       22.1756903535  W2        24393           0.0000000000
     71355     23785  TIP3      H2            -48.6755166405      -12.5587322861       20.9337003535  W2        24393           0.0000000000
     71356     23786  TIP3      OH2           -54.7150466405      -13.1884122861       28.4978203535  W2        24394           0.0000000000
     71357     23786  TIP3      H1            -54.0842766405      -13.2172022861       29.2172103535  W2        24394           0.0000000000
     71358     23786  TIP3      H2            -54.2656166405      -13.6135422861       27.7674103535  W2        24394           0.0000000000
     71359     23787  TIP3      OH2           -53.4408366405      -12.4422122861       23.9218603535  W2        24395           0.0000000000
     71360     23787  TIP3      H1            -52.9666666405      -11.8512222861       23.3369503535  W2        24395           0.0000000000
     71361     23787  TIP3      H2            -54.1581966405      -11.9119222861       24.2688703535  W2        24395           0.0000000000
     71362     23788  TIP3      OH2           -43.2720266405       -8.9037322861       33.9944403535  W2        24396           0.0000000000
     71363     23788  TIP3      H1            -42.9485466405       -9.5347622861       33.3514903535  W2        24396           0.0000000000
     71364     23788  TIP3      H2            -43.7120966405       -9.4385122861       34.6551803535  W2        24396           0.0000000000
     71365     23789  TIP3      OH2           -46.4947366405      -12.9761822861       28.7785603535  W2        24397           0.0000000000
     71366     23789  TIP3      H1            -47.4056266405      -12.9195022861       29.0671603535  W2        24397           0.0000000000
     71367     23789  TIP3      H2            -45.9894466405      -13.0366322861       29.5892803535  W2        24397           0.0000000000
     71368     23790  TIP3      OH2           -51.6663966405      -11.3475522861       27.6053203535  W2        24398           0.0000000000
     71369     23790  TIP3      H1            -52.5555966405      -11.2480022861       27.2652803535  W2        24398           0.0000000000
     71370     23790  TIP3      H2            -51.3699066405      -12.1892522861       27.2591103535  W2        24398           0.0000000000
     71371     23791  TIP3      OH2           -48.0132166405      -11.3472922861       25.2617803535  W2        24399           0.0000000000
     71372     23791  TIP3      H1            -47.0816666405      -11.2182922861       25.4400903535  W2        24399           0.0000000000
     71373     23791  TIP3      H2            -48.2281866405      -10.6778622861       24.6122503535  W2        24399           0.0000000000
     71374     23792  TIP3      OH2           -42.0895466405      -13.7415522861       32.0427403535  W2        24400           0.0000000000
     71375     23792  TIP3      H1            -42.7663866405      -13.6102422861       32.7067103535  W2        24400           0.0000000000
     71376     23792  TIP3      H2            -42.5750566405      -13.8966022861       31.2325103535  W2        24400           0.0000000000
     71377     23793  TIP3      OH2           -49.3391966405      -10.1530722861       22.8283903535  W2        24401           0.0000000000
     71378     23793  TIP3      H1            -49.8816866405      -10.5326922861       22.1371503535  W2        24401           0.0000000000
     71379     23793  TIP3      H2            -48.5057066405       -9.9586022861       22.3998003535  W2        24401           0.0000000000
     71380     23794  TIP3      OH2           -45.1747666405      -10.1888822861       30.6655203535  W2        24404           0.0000000000
     71381     23794  TIP3      H1            -44.6104266405      -10.7352222861       30.1184803535  W2        24404           0.0000000000
     71382     23794  TIP3      H2            -45.3224266405      -10.7106922861       31.4542803535  W2        24404           0.0000000000
     71383     23795  TIP3      OH2           -50.1727966405      -14.0522722861       27.0840003535  W2        24405           0.0000000000
     71384     23795  TIP3      H1            -50.4898466405      -14.9547422861       27.0485403535  W2        24405           0.0000000000
     71385     23795  TIP3      H2            -49.3913866405      -14.0505322861       26.5311603535  W2        24405           0.0000000000
     71386     23796  TIP3      OH2           -46.5481766405      -11.8002722861       33.0795603535  W2        24406           0.0000000000
     71387     23796  TIP3      H1            -47.3836466405      -11.3463222861       33.1898003535  W2        24406           0.0000000000
     71388     23796  TIP3      H2            -46.0241166405      -11.5244222861       33.8315503535  W2        24406           0.0000000000
     71389     23797  TIP3      OH2           -46.0039166405       -5.5875022861       24.7642003535  W2        24407           0.0000000000
     71390     23797  TIP3      H1            -46.7488166405       -6.0949722861       24.4419903535  W2        24407           0.0000000000
     71391     23797  TIP3      H2            -46.1381966405       -5.5387022861       25.7106803535  W2        24407           0.0000000000
     71392     23798  TIP3      OH2           -38.8540266405       -6.4546822861       33.5509603535  W2        24408           0.0000000000
     71393     23798  TIP3      H1            -38.2121466405       -5.9980522861       33.0071803535  W2        24408           0.0000000000
     71394     23798  TIP3      H2            -39.6843366405       -6.3414422861       33.0883703535  W2        24408           0.0000000000
     71395     23799  TIP3      OH2           -42.1062366405      -12.7735122861       22.9634603535  W2        24409           0.0000000000
     71396     23799  TIP3      H1            -43.0448166405      -12.6619522861       22.8123403535  W2        24409           0.0000000000
     71397     23799  TIP3      H2            -41.8090266405      -11.9168222861       23.2700303535  W2        24409           0.0000000000
     71398     23800  TIP3      OH2           -41.3878866405      -10.9062422861       24.6242003535  W2        24411           0.0000000000
     71399     23800  TIP3      H1            -40.4959866405      -11.0437422861       24.9433203535  W2        24411           0.0000000000
     71400     23800  TIP3      H2            -41.3315266405      -10.1156322861       24.0875503535  W2        24411           0.0000000000
     71401     23801  TIP3      OH2           -50.8790866405       -6.2925022861       30.5339903535  W2        24412           0.0000000000
     71402     23801  TIP3      H1            -50.1343666405       -6.2949322861       29.9326403535  W2        24412           0.0000000000
     71403     23801  TIP3      H2            -50.8014266405       -7.1161222861       31.0155003535  W2        24412           0.0000000000
     71404     23802  TIP3      OH2           -43.8785066405       -4.1290722861       23.7896603535  W2        24413           0.0000000000
     71405     23802  TIP3      H1            -44.1736666405       -3.3022822861       24.1711403535  W2        24413           0.0000000000
     71406     23802  TIP3      H2            -44.5815066405       -4.7483822861       23.9858003535  W2        24413           0.0000000000
     71407     23803  TIP3      OH2           -36.5030166405      -10.6968322861       24.3188703535  W2        24417           0.0000000000
     71408     23803  TIP3      H1            -37.0573866405      -11.0930322861       23.6466203535  W2        24417           0.0000000000
     71409     23803  TIP3      H2            -36.4026566405       -9.7863122861       24.0412003535  W2        24417           0.0000000000
     71410     23804  TIP3      OH2           -38.2078466405       -1.9107922861       24.7840803535  W2        24419           0.0000000000
     71411     23804  TIP3      H1            -38.5807366405       -2.7364122861       25.0931403535  W2        24419           0.0000000000
     71412     23804  TIP3      H2            -37.9304966405       -2.0938522861       23.8864203535  W2        24419           0.0000000000
     71413     23805  TIP3      OH2           -41.0474566405       -7.1028422861       31.8052703535  W2        24420           0.0000000000
     71414     23805  TIP3      H1            -41.9757666405       -7.3346522861       31.7782003535  W2        24420           0.0000000000
     71415     23805  TIP3      H2            -40.5963466405       -7.8798622861       31.4751503535  W2        24420           0.0000000000
     71416     23806  TIP3      OH2           -48.5041466405       -2.7746822861       27.9381403535  W2        24421           0.0000000000
     71417     23806  TIP3      H1            -47.9769266405       -2.0012422861       27.7380203535  W2        24421           0.0000000000
     71418     23806  TIP3      H2            -49.3842966405       -2.5497622861       27.6365403535  W2        24421           0.0000000000
     71419     23807  TIP3      OH2           -52.7493766405       -7.9122722861       22.5253803535  W2        24422           0.0000000000
     71420     23807  TIP3      H1            -52.1333866405       -7.2855522861       22.9048603535  W2        24422           0.0000000000
     71421     23807  TIP3      H2            -53.6111166405       -7.5962922861       22.7970303535  W2        24422           0.0000000000
     71422     23808  TIP3      OH2           -47.0769166405       -5.1116922861       27.5145703535  W2        24423           0.0000000000
     71423     23808  TIP3      H1            -47.3179166405       -4.1862522861       27.5561003535  W2        24423           0.0000000000
     71424     23808  TIP3      H2            -47.8175566405       -5.5705622861       27.9109603535  W2        24423           0.0000000000
     71425     23809  TIP3      OH2           -46.5622566405       -0.9623322861       33.8296803535  W2        24424           0.0000000000
     71426     23809  TIP3      H1            -46.1997866405       -0.1077722861       33.5961203535  W2        24424           0.0000000000
     71427     23809  TIP3      H2            -46.0307366405       -1.2541722861       34.5703103535  W2        24424           0.0000000000
     71428     23810  TIP3      OH2           -48.3938366405       -0.0899322861       27.0597903535  W2        24425           0.0000000000
     71429     23810  TIP3      H1            -49.3437866405        0.0158077139       27.1111203535  W2        24425           0.0000000000
     71430     23810  TIP3      H2            -48.0420266405        0.7308077139       27.4045403535  W2        24425           0.0000000000
     71431     23811  TIP3      OH2           -43.0181766405       -4.8632622861       33.5302403535  W2        24426           0.0000000000
     71432     23811  TIP3      H1            -43.4440466405       -5.0910922861       34.3566403535  W2        24426           0.0000000000
     71433     23811  TIP3      H2            -42.4375966405       -5.6020822861       33.3477703535  W2        24426           0.0000000000
     71434     23812  TIP3      OH2           -40.8152866405       -3.9342122861       22.6041403535  W2        24427           0.0000000000
     71435     23812  TIP3      H1            -40.4619766405       -4.3142322861       23.4084903535  W2        24427           0.0000000000
     71436     23812  TIP3      H2            -41.7639366405       -4.0277322861       22.6910703535  W2        24427           0.0000000000
     71437     23813  TIP3      OH2           -36.3118466405        0.5450377139       22.8051603535  W2        24429           0.0000000000
     71438     23813  TIP3      H1            -35.5680566405        1.1310877139       22.6653203535  W2        24429           0.0000000000
     71439     23813  TIP3      H2            -37.0060366405        1.1136177139       23.1384003535  W2        24429           0.0000000000
     71440     23814  TIP3      OH2           -52.2371666405      -13.0785422861       35.4069803535  W2        24430           0.0000000000
     71441     23814  TIP3      H1            -53.1299366405      -12.7400022861       35.3393803535  W2        24430           0.0000000000
     71442     23814  TIP3      H2            -52.3358866405      -13.9339322861       35.8250603535  W2        24430           0.0000000000
     71443     23815  TIP3      OH2           -39.9493566405       -5.2620122861       24.8309303535  W2        24431           0.0000000000
     71444     23815  TIP3      H1            -40.2265966405       -5.9900822861       25.3870403535  W2        24431           0.0000000000
     71445     23815  TIP3      H2            -39.0220566405       -5.1428122861       25.0361903535  W2        24431           0.0000000000
     71446     23816  TIP3      OH2           -52.5859666405       -1.2741022861       33.8419203535  W2        24432           0.0000000000
     71447     23816  TIP3      H1            -52.3689366405       -2.2058622861       33.8108903535  W2        24432           0.0000000000
     71448     23816  TIP3      H2            -52.3396166405       -0.9996022861       34.7252003535  W2        24432           0.0000000000
     71449     23817  TIP3      OH2           -46.7245066405       -2.8226022861       21.0511403535  W2        24433           0.0000000000
     71450     23817  TIP3      H1            -46.4855266405       -3.5707922861       20.5040303535  W2        24433           0.0000000000
     71451     23817  TIP3      H2            -46.9933766405       -3.2104322861       21.8839203535  W2        24433           0.0000000000
     71452     23818  TIP3      OH2           -47.7874466405       -3.2522222861       23.5074003535  W2        24434           0.0000000000
     71453     23818  TIP3      H1            -47.6406466405       -3.7722422861       24.2974903535  W2        24434           0.0000000000
     71454     23818  TIP3      H2            -47.7902766405       -2.3454622861       23.8139903535  W2        24434           0.0000000000
     71455     23819  TIP3      OH2           -51.3343366405       -5.9998922861       24.0179403535  W2        24435           0.0000000000
     71456     23819  TIP3      H1            -52.0204066405       -5.6476422861       24.5849103535  W2        24435           0.0000000000
     71457     23819  TIP3      H2            -50.8115466405       -5.2369322861       23.7713703535  W2        24435           0.0000000000
     71458     23820  TIP3      OH2           -43.5028266405      -13.3375122861       34.2968403535  W2        24436           0.0000000000
     71459     23820  TIP3      H1            -42.8040366405      -13.2636422861       34.9468103535  W2        24436           0.0000000000
     71460     23820  TIP3      H2            -43.8836866405      -14.2020122861       34.4511303535  W2        24436           0.0000000000
     71461     23821  TIP3      OH2           -42.7183366405      -13.6853422861       25.3940703535  W2        24437           0.0000000000
     71462     23821  TIP3      H1            -42.4985066405      -13.2138022861       24.5906103535  W2        24437           0.0000000000
     71463     23821  TIP3      H2            -42.1599366405      -13.2910822861       26.0641303535  W2        24437           0.0000000000
     71464     23822  TIP3      OH2           -45.0497266405       -1.5548622861       24.2568203535  W2        24438           0.0000000000
     71465     23822  TIP3      H1            -45.8661166405       -1.0578922861       24.3092503535  W2        24438           0.0000000000
     71466     23822  TIP3      H2            -44.5200966405       -1.0795122861       23.6167003535  W2        24438           0.0000000000
     71467     23823  TIP3      OH2           -45.5183466405      -11.9574622861       26.2289103535  W2        24439           0.0000000000
     71468     23823  TIP3      H1            -44.7060866405      -11.4531422861       26.2750803535  W2        24439           0.0000000000
     71469     23823  TIP3      H2            -45.7630466405      -12.1024922861       27.1428703535  W2        24439           0.0000000000
     71470     23824  TIP3      OH2           -44.9827066405      -10.9711922861       35.4135703535  W2        24440           0.0000000000
     71471     23824  TIP3      H1            -44.8636766405      -10.3976522861       36.1706103535  W2        24440           0.0000000000
     71472     23824  TIP3      H2            -44.3272466405      -11.6592522861       35.5283503535  W2        24440           0.0000000000
     71473     23825  TIP3      OH2           -44.6346766405      -14.8761622861       27.1670203535  W2        24441           0.0000000000
     71474     23825  TIP3      H1            -44.9813266405      -14.2591022861       27.8114503535  W2        24441           0.0000000000
     71475     23825  TIP3      H2            -43.9759866405      -14.3755922861       26.6855703535  W2        24441           0.0000000000
     71476     23826  TIP3      OH2           -47.7114166405       -0.5111422861       24.2385103535  W2        24442           0.0000000000
     71477     23826  TIP3      H1            -47.5505466405        0.2886077139       23.7377703535  W2        24442           0.0000000000
     71478     23826  TIP3      H2            -47.9086366405       -0.2045422861       25.1235703535  W2        24442           0.0000000000
     71479     23827  TIP3      OH2           -48.9769766405      -13.8132222861       23.8542703535  W2        24443           0.0000000000
     71480     23827  TIP3      H1            -49.0604966405      -12.9249122861       24.2009103535  W2        24443           0.0000000000
     71481     23827  TIP3      H2            -48.0869466405      -14.0785522861       24.0859503535  W2        24443           0.0000000000
     71482     23828  TIP3      OH2           -40.1760266405       -9.3140622861       30.3442703535  W2        24445           0.0000000000
     71483     23828  TIP3      H1            -40.9735866405       -9.7290422861       30.0157703535  W2        24445           0.0000000000
     71484     23828  TIP3      H2            -39.7309166405      -10.0046922861       30.8353203535  W2        24445           0.0000000000
     71485     23829  TIP3      OH2           -50.7184466405       -3.3860022861       22.9147203535  W2        24446           0.0000000000
     71486     23829  TIP3      H1            -50.1262966405       -2.6865222861       23.1909603535  W2        24446           0.0000000000
     71487     23829  TIP3      H2            -50.2591466405       -3.8190522861       22.1951803535  W2        24446           0.0000000000
     71488     23830  TIP3      OH2           -52.4025266405      -10.7217022861       22.0306603535  W2        24447           0.0000000000
     71489     23830  TIP3      H1            -52.4472666405       -9.7823922861       22.2093603535  W2        24447           0.0000000000
     71490     23830  TIP3      H2            -53.2902066405      -10.9572122861       21.7608703535  W2        24447           0.0000000000
     71491     23831  TIP3      OH2           -39.0895666405       -0.0578122861       31.9666203535  W2        24448           0.0000000000
     71492     23831  TIP3      H1            -39.2451366405        0.6206277139       31.3095503535  W2        24448           0.0000000000
     71493     23831  TIP3      H2            -38.1569266405        0.0141177139       32.1696803535  W2        24448           0.0000000000
     71494     23832  TIP3      OH2           -51.5943266405      -15.9400422861       30.7037603535  W2        24449           0.0000000000
     71495     23832  TIP3      H1            -51.8233466405      -15.8807922861       29.7762603535  W2        24449           0.0000000000
     71496     23832  TIP3      H2            -52.0369866405      -16.7314922861       31.0101703535  W2        24449           0.0000000000
     71497     23833  TIP3      OH2           -52.6639966405       -1.9993322861       26.8643403535  W2        24450           0.0000000000
     71498     23833  TIP3      H1            -53.4961366405       -1.5270622861       26.8914803535  W2        24450           0.0000000000
     71499     23833  TIP3      H2            -52.1181666405       -1.4895722861       26.2656503535  W2        24450           0.0000000000
     71500     23834  TIP3      OH2           -44.6863266405       -0.9594622861       21.1897403535  W2        24453           0.0000000000
     71501     23834  TIP3      H1            -45.3302266405       -1.5906022861       21.5111103535  W2        24453           0.0000000000
     71502     23834  TIP3      H2            -43.9244966405       -1.4906622861       20.9580903535  W2        24453           0.0000000000
     71503     23835  TIP3      OH2           -40.0820366405       -1.1424722861       21.4235403535  W2        24455           0.0000000000
     71504     23835  TIP3      H1            -39.7989966405       -1.9369522861       21.8762303535  W2        24455           0.0000000000
     71505     23835  TIP3      H2            -39.3422466405       -0.9093722861       20.8626503535  W2        24455           0.0000000000
     71506     23836  TIP3      OH2           -49.1273066405       -5.2329822861       21.2810303535  W2        24457           0.0000000000
     71507     23836  TIP3      H1            -49.0628966405       -6.0270222861       21.8116703535  W2        24457           0.0000000000
     71508     23836  TIP3      H2            -48.4743866405       -5.3517022861       20.5912303535  W2        24457           0.0000000000
     71509     23837  TIP3      OH2           -43.7749666405       -4.1858122861       21.0168303535  W2        24459           0.0000000000
     71510     23837  TIP3      H1            -44.0435566405       -4.0056022861       21.9177203535  W2        24459           0.0000000000
     71511     23837  TIP3      H2            -43.9814066405       -5.1111922861       20.8854103535  W2        24459           0.0000000000
     71512     23838  TIP3      OH2           -47.9779266405       -7.2603622861       23.5868303535  W2        24462           0.0000000000
     71513     23838  TIP3      H1            -48.4377266405       -7.7445322861       24.2726803535  W2        24462           0.0000000000
     71514     23838  TIP3      H2            -47.7230566405       -7.9288222861       22.9508803535  W2        24462           0.0000000000
     71515     23839  TIP3      OH2           -46.9068866405       -9.0171822861       21.8491503535  W2        24464           0.0000000000
     71516     23839  TIP3      H1            -47.0873866405       -9.1720622861       20.9219803535  W2        24464           0.0000000000
     71517     23839  TIP3      H2            -45.9568366405       -8.9093122861       21.8939403535  W2        24464           0.0000000000
     71518     23840  TIP3      OH2           -37.5170566405       -6.6627622861       21.2949603535  W2        24466           0.0000000000
     71519     23840  TIP3      H1            -37.7905766405       -7.0872122861       20.4817903535  W2        24466           0.0000000000
     71520     23840  TIP3      H2            -37.4776466405       -5.7313122861       21.0780003535  W2        24466           0.0000000000
     71521     23841  TIP3      OH2           -47.9370566405      -13.6429922861       34.5178403535  W2        24468           0.0000000000
     71522     23841  TIP3      H1            -47.4013066405      -13.1913222861       33.8657703535  W2        24468           0.0000000000
     71523     23841  TIP3      H2            -48.7890966405      -13.7510122861       34.0952503535  W2        24468           0.0000000000
     71524     23842  TIP3      OH2           -46.3552166405       -8.2033722861       34.7573603535  W2        24469           0.0000000000
     71525     23842  TIP3      H1            -45.6047366405       -8.3596222861       34.1841403535  W2        24469           0.0000000000
     71526     23842  TIP3      H2            -46.6943866405       -7.3517122861       34.4819103535  W2        24469           0.0000000000
     71527     23843  TIP3      OH2           -47.1315066405      -16.1864222861       34.9492003535  W2        24473           0.0000000000
     71528     23843  TIP3      H1            -47.2295466405      -15.2401022861       34.8438203535  W2        24473           0.0000000000
     71529     23843  TIP3      H2            -47.8738866405      -16.5590422861       34.4735503535  W2        24473           0.0000000000
     71530     23844  TIP3      OH2           -47.0097166405        1.6731877139       22.8505103535  W2        24480           0.0000000000
     71531     23844  TIP3      H1            -46.0766466405        1.8310577139       22.9943503535  W2        24480           0.0000000000
     71532     23844  TIP3      H2            -47.2738366405        2.3484877139       22.2256603535  W2        24480           0.0000000000
     71533     23845  TIP3      OH2           -53.4412266405       -3.6904322861       22.3333203535  W2        24481           0.0000000000
     71534     23845  TIP3      H1            -52.5273066405       -3.6115422861       22.6067103535  W2        24481           0.0000000000
     71535     23845  TIP3      H2            -53.4339166405       -4.3774722861       21.6668803535  W2        24481           0.0000000000
     71536     23846  TIP3      OH2           -54.7921666405        1.7024177139       27.4107103535  W2        24482           0.0000000000
     71537     23846  TIP3      H1            -55.4394566405        1.2405877139       26.8778303535  W2        24482           0.0000000000
     71538     23846  TIP3      H2            -54.4377066405        1.0307477139       27.9933303535  W2        24482           0.0000000000
     71539     23847  TIP3      OH2           -53.9222466405       -0.2168822861       29.2153303535  W2        24483           0.0000000000
     71540     23847  TIP3      H1            -54.2565666405       -1.0971522861       29.3873503535  W2        24483           0.0000000000
     71541     23847  TIP3      H2            -53.7000066405        0.1286177139       30.0798903535  W2        24483           0.0000000000
     71542     23848  TIP3      OH2           -36.3737666405        0.5927577139       32.1958103535  W2        24484           0.0000000000
     71543     23848  TIP3      H1            -36.3950966405        0.7775977139       33.1347503535  W2        24484           0.0000000000
     71544     23848  TIP3      H2            -35.6831466405        1.1611577139       31.8549503535  W2        24484           0.0000000000
     71545     23849  TIP3      OH2           -36.8104766405        0.1598677139       35.1177203535  W2        24485           0.0000000000
     71546     23849  TIP3      H1            -37.2976066405       -0.5757222861       34.7464603535  W2        24485           0.0000000000
     71547     23849  TIP3      H2            -36.2612066405       -0.2337422861       35.7956603535  W2        24485           0.0000000000
     71548     23850  TIP3      OH2           -37.0587766405       -5.7939522861       25.2700003535  W2        24487           0.0000000000
     71549     23850  TIP3      H1            -36.2086366405       -5.3728622861       25.3971603535  W2        24487           0.0000000000
     71550     23850  TIP3      H2            -37.0532666405       -6.5339422861       25.8771403535  W2        24487           0.0000000000
     71551     23851  TIP3      OH2           -36.6642166405       -7.7402122861       27.0935703535  W2        24488           0.0000000000
     71552     23851  TIP3      H1            -37.3907566405       -8.2199522861       27.4913303535  W2        24488           0.0000000000
     71553     23851  TIP3      H2            -36.0828866405       -7.5347422861       27.8257303535  W2        24488           0.0000000000
     71554     23852  TIP3      OH2           -36.9050966405       -4.9554622861       32.0413303535  W2        24489           0.0000000000
     71555     23852  TIP3      H1            -36.0716766405       -5.3334622861       31.7606903535  W2        24489           0.0000000000
     71556     23852  TIP3      H2            -36.7930666405       -4.0123422861       31.9222403535  W2        24489           0.0000000000
     71557     23853  TIP3      OH2           -38.4188666405       -2.0777122861       34.3481703535  W2        24490           0.0000000000
     71558     23853  TIP3      H1            -39.0663366405       -1.7525622861       34.9736903535  W2        24490           0.0000000000
     71559     23853  TIP3      H2            -38.9364666405       -2.5179422861       33.6740003535  W2        24490           0.0000000000
     71560     23854  TIP3      OH2           -36.3959066405       -7.8393622861       23.4847003535  W2        24491           0.0000000000
     71561     23854  TIP3      H1            -36.9177966405       -7.4829522861       22.7657903535  W2        24491           0.0000000000
     71562     23854  TIP3      H2            -36.4289866405       -7.1645822861       24.1627903535  W2        24491           0.0000000000
     71563     23855  TIP3      OH2           -38.0470066405      -10.5998022861       22.0354103535  W2        24492           0.0000000000
     71564     23855  TIP3      H1            -37.9505666405       -9.9331022861       21.3553803535  W2        24492           0.0000000000
     71565     23855  TIP3      H2            -38.1870466405      -11.4151722861       21.5539603535  W2        24492           0.0000000000
     71566     23856  TIP3      OH2           -38.8775366405       -9.2195622861       27.6564403535  W2        24493           0.0000000000
     71567     23856  TIP3      H1            -39.0276566405      -10.1647022861       27.6362203535  W2        24493           0.0000000000
     71568     23856  TIP3      H2            -39.2310866405       -8.9384222861       28.5003503535  W2        24493           0.0000000000
     71569     23857  TIP3      OH2           -53.8422966405       -7.1413422861       31.6668203535  W2        24494           0.0000000000
     71570     23857  TIP3      H1            -53.6580066405       -7.2231722861       30.7311103535  W2        24494           0.0000000000
     71571     23857  TIP3      H2            -52.9930066405       -7.2656422861       32.0904603535  W2        24494           0.0000000000
     71572     23858  TIP3      OH2           -38.7996266405      -13.1918222861       21.1529603535  W2        24497           0.0000000000
     71573     23858  TIP3      H1            -38.1890466405      -13.5631422861       21.7897803535  W2        24497           0.0000000000
     71574     23858  TIP3      H2            -39.6364766405      -13.6131322861       21.3489603535  W2        24497           0.0000000000
     71575     23859  TIP3      OH2           -39.1670566405      -11.6369822861       26.1189503535  W2        24498           0.0000000000
     71576     23859  TIP3      H1            -38.8873466405      -12.5439422861       26.2431203535  W2        24498           0.0000000000
     71577     23859  TIP3      H2            -38.4078866405      -11.2028322861       25.7298703535  W2        24498           0.0000000000
     71578     23860  TIP3      OH2           -38.5552266405      -11.0552422861       31.5548403535  W2        24499           0.0000000000
     71579     23860  TIP3      H1            -37.6224266405      -10.8432522861       31.5204403535  W2        24499           0.0000000000
     71580     23860  TIP3      H2            -38.7904766405      -10.9540322861       32.4771403535  W2        24499           0.0000000000
     71581     23861  TIP3      OH2           -38.5260366405      -10.3187122861       34.3307803535  W2        24500           0.0000000000
     71582     23861  TIP3      H1            -39.3689066405      -10.0506722861       34.6967603535  W2        24500           0.0000000000
     71583     23861  TIP3      H2            -38.0836066405       -9.4965222861       34.1198903535  W2        24500           0.0000000000
     71584     23862  TIP3      OH2           -38.5535766405      -14.3740522861       26.1671503535  W2        24503           0.0000000000
     71585     23862  TIP3      H1            -38.3710766405      -14.8229022861       26.9926503535  W2        24503           0.0000000000
     71586     23862  TIP3      H2            -39.1532866405      -14.9586122861       25.7036103535  W2        24503           0.0000000000
     71587     23863  TIP3      OH2           -53.0235666405      -13.5586822861       30.6989903535  W2        24504           0.0000000000
     71588     23863  TIP3      H1            -52.5784066405      -14.3504322861       31.0009603535  W2        24504           0.0000000000
     71589     23863  TIP3      H2            -52.5572666405      -12.8421622861       31.1295503535  W2        24504           0.0000000000
     71590     23864  TIP3      OH2           -54.7195366405      -10.5593822861       31.7680103535  W2        24505           0.0000000000
     71591     23864  TIP3      H1            -54.2275566405      -10.7803322861       30.9772103535  W2        24505           0.0000000000
     71592     23864  TIP3      H2            -54.3574466405       -9.7190422861       32.0489603535  W2        24505           0.0000000000
     71593     23865  TIP3      OH2           -36.6869566405      -14.3062422861       22.6951803535  W2        24507           0.0000000000
     71594     23865  TIP3      H1            -36.2746966405      -15.0276722861       22.2199803535  W2        24507           0.0000000000
     71595     23865  TIP3      H2            -36.0053066405      -13.6367822861       22.7536103535  W2        24507           0.0000000000
     71596     23866  TIP3      OH2           -54.4058866405      -14.3014722861       25.8222503535  W2        24508           0.0000000000
     71597     23866  TIP3      H1            -55.3310466405      -14.0928122861       25.6928003535  W2        24508           0.0000000000
     71598     23866  TIP3      H2            -53.9518966405      -13.8173922861       25.1324803535  W2        24508           0.0000000000
     71599     23867  TIP3      OH2           -39.6351666405        0.6826977139       27.7679903535  W2        24509           0.0000000000
     71600     23867  TIP3      H1            -38.9828766405        0.3349077139       27.1599003535  W2        24509           0.0000000000
     71601     23867  TIP3      H2            -39.1247866405        1.1710177139       28.4139603535  W2        24509           0.0000000000
     71602     23868  TIP3      OH2           -54.4423466405      -15.5635722861       34.1665003535  W2        24510           0.0000000000
     71603     23868  TIP3      H1            -55.1072966405      -15.8095422861       34.8095903535  W2        24510           0.0000000000
     71604     23868  TIP3      H2            -54.8852166405      -14.9415322861       33.5893003535  W2        24510           0.0000000000
     71605     23869  TIP3      OH2           -49.2961266405       -1.4140422861       34.5694803535  W2        24512           0.0000000000
     71606     23869  TIP3      H1            -49.7210166405       -0.6041922861       34.2869403535  W2        24512           0.0000000000
     71607     23869  TIP3      H2            -48.3918466405       -1.3286322861       34.2674603535  W2        24512           0.0000000000
     71608     23870  TIP3      OH2           -51.8944566405        1.8423477139       34.6170103535  W2        24516           0.0000000000
     71609     23870  TIP3      H1            -52.6148166405        2.2824477139       34.1657803535  W2        24516           0.0000000000
     71610     23870  TIP3      H2            -52.2600566405        1.5918177139       35.4654103535  W2        24516           0.0000000000
     71611     23871  TIP3      OH2           -49.4271966405        1.4427377139       33.6467303535  W2        24517           0.0000000000
     71612     23871  TIP3      H1            -50.2919766405        1.5145877139       34.0507403535  W2        24517           0.0000000000
     71613     23871  TIP3      H2            -49.4822966405        1.9894677139       32.8629803535  W2        24517           0.0000000000
     71614     23872  TIP3      OH2           -44.7166366405        1.3306277139       32.8223303535  W2        24518           0.0000000000
     71615     23872  TIP3      H1            -45.1732366405        1.8595977139       32.1681703535  W2        24518           0.0000000000
     71616     23872  TIP3      H2            -44.5538366405        1.9337677139       33.5475603535  W2        24518           0.0000000000
     71617     23873  TIP3      OH2           -42.3890066405        0.2085877139       33.7673603535  W2        24519           0.0000000000
     71618     23873  TIP3      H1            -43.2936366405        0.3736077139       33.5015703535  W2        24519           0.0000000000
     71619     23873  TIP3      H2            -41.9601466405        1.0618077139       33.7017003535  W2        24519           0.0000000000
     71620     23874  TIP3      OH2           -39.7848166405        1.7784977139       34.0621403535  W2        24520           0.0000000000
     71621     23874  TIP3      H1            -39.9666166405        2.6943877139       33.8516303535  W2        24520           0.0000000000
     71622     23874  TIP3      H2            -39.6080366405        1.3682077139       33.2156003535  W2        24520           0.0000000000
     71623     23875  TIP3      OH2           -52.4796466405        0.4655977139       31.5271903535  W2        24521           0.0000000000
     71624     23875  TIP3      H1            -52.4980466405        0.0401077139       32.3844203535  W2        24521           0.0000000000
     71625     23875  TIP3      H2            -51.6748566405        0.1470977139       31.1184103535  W2        24521           0.0000000000
     71626     23876  TIP3      OH2           -50.3383366405       -0.8245322861       30.1821803535  W2        24522           0.0000000000
     71627     23876  TIP3      H1            -50.5572666405       -1.7407922861       30.3517803535  W2        24522           0.0000000000
     71628     23876  TIP3      H2            -49.5141166405       -0.6844922861       30.6483203535  W2        24522           0.0000000000
     71629     23877  TIP3      OH2           -47.8010866405       -0.3546022861       31.0309803535  W2        24523           0.0000000000
     71630     23877  TIP3      H1            -47.5885166405       -1.2427022861       30.7440703535  W2        24523           0.0000000000
     71631     23877  TIP3      H2            -47.7365766405       -0.3888322861       31.9853803535  W2        24523           0.0000000000
     71632     23878  TIP3      OH2           -44.2927166405      -14.6905422861       30.1753103535  W2        24524           0.0000000000
     71633     23878  TIP3      H1            -44.9670366405      -15.3199822861       30.4308903535  W2        24524           0.0000000000
     71634     23878  TIP3      H2            -43.7287966405      -15.1746522861       29.5721003535  W2        24524           0.0000000000
     71635     23879  TIP3      OH2           -39.1499966405      -16.5831422861       30.2880203535  W2        24525           0.0000000000
     71636     23879  TIP3      H1            -38.5462366405      -16.0356022861       29.7861203535  W2        24525           0.0000000000
     71637     23879  TIP3      H2            -40.0197966405      -16.2641022861       30.0474303535  W2        24525           0.0000000000
     71638     23880  TIP3      OH2           -37.4229566405      -15.4442722861       28.6211103535  W2        24526           0.0000000000
     71639     23880  TIP3      H1            -36.8112066405      -15.9587022861       28.0944703535  W2        24526           0.0000000000
     71640     23880  TIP3      H2            -37.0406166405      -14.5670622861       28.6445503535  W2        24526           0.0000000000
     71641     23881  TIP3      OH2           -51.9659666405      -16.0565122861       27.9973003535  W2        24527           0.0000000000
     71642     23881  TIP3      H1            -52.7429866405      -16.2910222861       27.4898903535  W2        24527           0.0000000000
     71643     23881  TIP3      H2            -51.4356066405      -16.8533022861       28.0061003535  W2        24527           0.0000000000
     71644     23882  TIP3      OH2           -53.1296266405      -16.2587022861       23.8009103535  W2        24528           0.0000000000
     71645     23882  TIP3      H1            -52.6905566405      -15.6476522861       23.2092603535  W2        24528           0.0000000000
     71646     23882  TIP3      H2            -53.7633866405      -15.7202922861       24.2749103535  W2        24528           0.0000000000
     71647     23883  TIP3      OH2           -47.3867066405      -16.1298022861       27.8106103535  W2        24529           0.0000000000
     71648     23883  TIP3      H1            -46.5123666405      -15.7413722861       27.7810403535  W2        24529           0.0000000000
     71649     23883  TIP3      H2            -47.5226266405      -16.3450222861       28.7333303535  W2        24529           0.0000000000
     71650     23884  TIP3      OH2           -41.8298666405      -16.0998222861       29.4597803535  W2        24530           0.0000000000
     71651     23884  TIP3      H1            -41.7537066405      -16.0046622861       28.5103803535  W2        24530           0.0000000000
     71652     23884  TIP3      H2            -42.1049466405      -17.0075322861       29.5886903535  W2        24530           0.0000000000
     71653     23885  TIP3      OH2           -40.4766066405      -16.0740422861       25.1522803535  W2        24531           0.0000000000
     71654     23885  TIP3      H1            -41.1794966405      -15.4591222861       24.9424203535  W2        24531           0.0000000000
     71655     23885  TIP3      H2            -40.9214666405      -16.9113722861       25.2833703535  W2        24531           0.0000000000
     71656     23886  TIP3      OH2           -53.2286766405       -0.3104822861       24.6984203535  W2        24532           0.0000000000
     71657     23886  TIP3      H1            -53.9136866405       -0.3485922861       24.0309303535  W2        24532           0.0000000000
     71658     23886  TIP3      H2            -53.2249566405        0.6022777139       24.9866303535  W2        24532           0.0000000000
     71659     23887  TIP3      OH2           -51.2687166405      -14.3425522861       22.2433203535  W2        24533           0.0000000000
     71660     23887  TIP3      H1            -50.7773766405      -14.9723122861       21.7158703535  W2        24533           0.0000000000
     71661     23887  TIP3      H2            -50.6450866405      -14.0466122861       22.9064403535  W2        24533           0.0000000000
     71662     23888  TIP3      OH2           -46.2427066405      -14.0494022861       24.7003703535  W2        24534           0.0000000000
     71663     23888  TIP3      H1            -46.0645766405      -14.6960822861       25.3832303535  W2        24534           0.0000000000
     71664     23888  TIP3      H2            -46.2960866405      -13.2156322861       25.1674803535  W2        24534           0.0000000000
     71665     23889  TIP3      OH2           -44.3643266405        0.8990077139       23.0960403535  W2        24535           0.0000000000
     71666     23889  TIP3      H1            -43.4983066405        1.2657477139       22.9178603535  W2        24535           0.0000000000
     71667     23889  TIP3      H2            -44.6110466405        0.4598077139       22.2821203535  W2        24535           0.0000000000
     71668     23890  TIP3      OH2           -37.6553666405        0.4620377139       25.7751503535  W2        24536           0.0000000000
     71669     23890  TIP3      H1            -37.8496566405       -0.2857522861       25.2101103535  W2        24536           0.0000000000
     71670     23890  TIP3      H2            -37.6943566405        1.2200477139       25.1919403535  W2        24536           0.0000000000
     71671     23891  TIP3      OH2           -51.4105566405        0.6095977139       21.7236303535  W2        24539           0.0000000000
     71672     23891  TIP3      H1            -51.6780966405        0.8958877139       22.5969403535  W2        24539           0.0000000000
     71673     23891  TIP3      H2            -50.6392966405        0.0635177139       21.8758803535  W2        24539           0.0000000000
     71674     23892  TIP3      OH2           -24.0317066405       -6.9002822861       27.9560503535  W2        24542           0.0000000000
     71675     23892  TIP3      H1            -23.9425966405       -5.9564622861       27.8237603535  W2        24542           0.0000000000
     71676     23892  TIP3      H2            -24.6699466405       -7.1756422861       27.2979903535  W2        24542           0.0000000000
     71677     23893  TIP3      OH2           -25.0985766405       -7.6452122861       31.3748703535  W2        24543           0.0000000000
     71678     23893  TIP3      H1            -25.1368266405       -8.2915822861       32.0798303535  W2        24543           0.0000000000
     71679     23893  TIP3      H2            -25.4209266405       -8.1117722861       30.6037403535  W2        24543           0.0000000000
     71680     23894  TIP3      OH2           -32.7300766405       -8.0310022861       32.9678603535  W2        24544           0.0000000000
     71681     23894  TIP3      H1            -32.6888666405       -8.6566722861       33.6911003535  W2        24544           0.0000000000
     71682     23894  TIP3      H2            -32.0273066405       -7.4071422861       33.1499003535  W2        24544           0.0000000000
     71683     23895  TIP3      OH2           -21.3925566405       -4.7061722861       29.6763803535  W2        24545           0.0000000000
     71684     23895  TIP3      H1            -21.8332866405       -5.4265722861       30.1269403535  W2        24545           0.0000000000
     71685     23895  TIP3      H2            -21.4055866405       -3.9854522861       30.3061503535  W2        24545           0.0000000000
     71686     23896  TIP3      OH2           -31.8067666405       -3.5811122861       31.5027703535  W2        24546           0.0000000000
     71687     23896  TIP3      H1            -32.1762466405       -4.3830622861       31.1332003535  W2        24546           0.0000000000
     71688     23896  TIP3      H2            -30.8656566405       -3.7496222861       31.5491103535  W2        24546           0.0000000000
     71689     23897  TIP3      OH2           -35.1967166405       -9.9208522861       26.8956503535  W2        24547           0.0000000000
     71690     23897  TIP3      H1            -35.6443766405       -9.0749822861       26.8773003535  W2        24547           0.0000000000
     71691     23897  TIP3      H2            -35.7575966405      -10.5004322861       26.3801603535  W2        24547           0.0000000000
     71692     23898  TIP3      OH2           -34.4861066405       -7.7588922861       29.0214503535  W2        24548           0.0000000000
     71693     23898  TIP3      H1            -34.2727566405       -8.5287322861       29.5487503535  W2        24548           0.0000000000
     71694     23898  TIP3      H2            -33.7483466405       -7.6692222861       28.4182103535  W2        24548           0.0000000000
     71695     23899  TIP3      OH2           -24.2810066405        0.3979977139       29.8884203535  W2        24549           0.0000000000
     71696     23899  TIP3      H1            -23.6613666405       -0.2785322861       29.6153403535  W2        24549           0.0000000000
     71697     23899  TIP3      H2            -24.4892666405        0.1800777139       30.7969103535  W2        24549           0.0000000000
     71698     23900  TIP3      OH2           -26.7091366405       -5.2130722861       31.7809703535  W2        24550           0.0000000000
     71699     23900  TIP3      H1            -26.4053466405       -5.8989322861       31.1863803535  W2        24550           0.0000000000
     71700     23900  TIP3      H2            -25.9877366405       -5.0942022861       32.3987703535  W2        24550           0.0000000000
     71701     23901  TIP3      OH2           -18.0461566405      -13.6115422861       32.6415903535  W2        24551           0.0000000000
     71702     23901  TIP3      H1            -17.9969366405      -13.0014222861       33.3775003535  W2        24551           0.0000000000
     71703     23901  TIP3      H2            -17.6206466405      -13.1504522861       31.9187003535  W2        24551           0.0000000000
     71704     23902  TIP3      OH2           -23.5684366405      -10.8188322861       32.1084503535  W2        24552           0.0000000000
     71705     23902  TIP3      H1            -23.4258466405      -11.7651322861       32.1286103535  W2        24552           0.0000000000
     71706     23902  TIP3      H2            -23.6745366405      -10.6118522861       31.1799403535  W2        24552           0.0000000000
     71707     23903  TIP3      OH2           -30.4136066405      -12.7171922861       29.3809303535  W2        24553           0.0000000000
     71708     23903  TIP3      H1            -30.3704966405      -11.8573422861       28.9625603535  W2        24553           0.0000000000
     71709     23903  TIP3      H2            -30.8711966405      -13.2697222861       28.7472503535  W2        24553           0.0000000000
     71710     23904  TIP3      OH2           -22.6913366405      -12.5866322861       27.7817603535  W2        24554           0.0000000000
     71711     23904  TIP3      H1            -22.0449066405      -12.9153122861       28.4065203535  W2        24554           0.0000000000
     71712     23904  TIP3      H2            -22.1813966405      -12.0687322861       27.1589003535  W2        24554           0.0000000000
     71713     23905  TIP3      OH2           -33.7934566405      -10.3206122861       30.1430703535  W2        24555           0.0000000000
     71714     23905  TIP3      H1            -33.1397966405      -10.8704422861       30.5750803535  W2        24555           0.0000000000
     71715     23905  TIP3      H2            -33.7695266405      -10.5947122861       29.2262703535  W2        24555           0.0000000000
     71716     23906  TIP3      OH2           -28.6370066405       -8.7704822861       29.3582203535  W2        24556           0.0000000000
     71717     23906  TIP3      H1            -28.0209066405       -9.2969422861       29.8676203535  W2        24556           0.0000000000
     71718     23906  TIP3      H2            -29.2231266405       -9.4106122861       28.9545803535  W2        24556           0.0000000000
     71719     23907  TIP3      OH2           -17.6546966405      -12.1336222861       34.8775703535  W2        24557           0.0000000000
     71720     23907  TIP3      H1            -18.3432366405      -11.4755522861       34.7822303535  W2        24557           0.0000000000
     71721     23907  TIP3      H2            -17.6392366405      -12.3308322861       35.8141103535  W2        24557           0.0000000000
     71722     23908  TIP3      OH2           -31.6034166405      -13.7993522861       33.4550103535  W2        24558           0.0000000000
     71723     23908  TIP3      H1            -31.8222466405      -13.2692922861       32.6886103535  W2        24558           0.0000000000
     71724     23908  TIP3      H2            -32.2713266405      -13.5728022861       34.1021503535  W2        24558           0.0000000000
     71725     23909  TIP3      OH2           -24.2344366405       -4.2992422861       26.9989203535  W2        24559           0.0000000000
     71726     23909  TIP3      H1            -24.5299266405       -4.6220122861       26.1476103535  W2        24559           0.0000000000
     71727     23909  TIP3      H2            -24.5586566405       -3.3995722861       27.0401803535  W2        24559           0.0000000000
     71728     23910  TIP3      OH2           -29.0342766405       -6.1237822861       33.7423803535  W2        24560           0.0000000000
     71729     23910  TIP3      H1            -29.7743666405       -5.5256322861       33.8459003535  W2        24560           0.0000000000
     71730     23910  TIP3      H2            -28.3203266405       -5.5698222861       33.4267403535  W2        24560           0.0000000000
     71731     23911  TIP3      OH2           -20.9274966405      -13.2957022861       29.7623503535  W2        24561           0.0000000000
     71732     23911  TIP3      H1            -21.1426966405      -14.0613622861       30.2949503535  W2        24561           0.0000000000
     71733     23911  TIP3      H2            -20.2717566405      -12.8232422861       30.2752003535  W2        24561           0.0000000000
     71734     23912  TIP3      OH2           -32.0096866405      -11.9071722861       31.4072303535  W2        24562           0.0000000000
     71735     23912  TIP3      H1            -31.3960566405      -11.2744122861       31.7804703535  W2        24562           0.0000000000
     71736     23912  TIP3      H2            -31.4976166405      -12.3796722861       30.7509203535  W2        24562           0.0000000000
     71737     23913  TIP3      OH2           -30.6268466405       -4.1594822861       34.5295303535  W2        24563           0.0000000000
     71738     23913  TIP3      H1            -30.6320866405       -3.2801322861       34.1514603535  W2        24563           0.0000000000
     71739     23913  TIP3      H2            -31.4804366405       -4.2430722861       34.9545203535  W2        24563           0.0000000000
     71740     23914  TIP3      OH2           -34.5057566405       -4.4886922861       25.3114603535  W2        24564           0.0000000000
     71741     23914  TIP3      H1            -34.7776666405       -4.2595922861       24.4227503535  W2        24564           0.0000000000
     71742     23914  TIP3      H2            -34.4601866405       -3.6508122861       25.7719903535  W2        24564           0.0000000000
     71743     23915  TIP3      OH2           -20.8807866405       -2.8671022861       32.0243103535  W2        24565           0.0000000000
     71744     23915  TIP3      H1            -21.8224166405       -2.8087122861       32.1860003535  W2        24565           0.0000000000
     71745     23915  TIP3      H2            -20.6041766405       -1.9610522861       31.8872803535  W2        24565           0.0000000000
     71746     23916  TIP3      OH2           -20.5800866405      -14.5805722861       33.4417003535  W2        24566           0.0000000000
     71747     23916  TIP3      H1            -21.3161666405      -13.9698622861       33.4038303535  W2        24566           0.0000000000
     71748     23916  TIP3      H2            -19.8966866405      -14.1656722861       32.9153403535  W2        24566           0.0000000000
     71749     23917  TIP3      OH2           -27.5769466405      -16.4938422861       30.9075003535  W2        24567           0.0000000000
     71750     23917  TIP3      H1            -27.6945266405      -17.4422422861       30.8533303535  W2        24567           0.0000000000
     71751     23917  TIP3      H2            -28.4319366405      -16.1612322861       31.1806103535  W2        24567           0.0000000000
     71752     23918  TIP3      OH2           -22.6286666405       -1.0857522861       28.6494703535  W2        24568           0.0000000000
     71753     23918  TIP3      H1            -22.2034366405       -1.7929622861       28.1644303535  W2        24568           0.0000000000
     71754     23918  TIP3      H2            -22.3116666405       -0.2844822861       28.2326903535  W2        24568           0.0000000000
     71755     23919  TIP3      OH2           -21.4690166405       -3.1849022861       27.1581303535  W2        24569           0.0000000000
     71756     23919  TIP3      H1            -21.7265366405       -3.8748922861       26.5467203535  W2        24569           0.0000000000
     71757     23919  TIP3      H2            -21.3979366405       -3.6277822861       28.0037203535  W2        24569           0.0000000000
     71758     23920  TIP3      OH2           -25.3104566405       -7.6562822861       25.4080803535  W2        24571           0.0000000000
     71759     23920  TIP3      H1            -26.0219066405       -7.1213122861       25.0561303535  W2        24571           0.0000000000
     71760     23920  TIP3      H2            -24.6194966405       -7.6010722861       24.7479703535  W2        24571           0.0000000000
     71761     23921  TIP3      OH2           -25.2565366405       -9.1988522861       22.4465803535  W2        24572           0.0000000000
     71762     23921  TIP3      H1            -24.5555466405       -9.1761622861       23.0979803535  W2        24572           0.0000000000
     71763     23921  TIP3      H2            -24.9542466405       -9.8268822861       21.7905103535  W2        24572           0.0000000000
     71764     23922  TIP3      OH2           -17.9410666405       -8.2784322861       33.7015203535  W2        24573           0.0000000000
     71765     23922  TIP3      H1            -18.5936566405       -7.5838722861       33.7906103535  W2        24573           0.0000000000
     71766     23922  TIP3      H2            -17.4760366405       -8.0683422861       32.8916803535  W2        24573           0.0000000000
     71767     23923  TIP3      OH2           -21.9046866405       -7.4469522861       26.3596703535  W2        24574           0.0000000000
     71768     23923  TIP3      H1            -22.6365866405       -7.2185822861       26.9327303535  W2        24574           0.0000000000
     71769     23923  TIP3      H2            -21.4574666405       -8.1606822861       26.8144203535  W2        24574           0.0000000000
     71770     23924  TIP3      OH2           -22.0073366405       -9.2726922861       35.4273703535  W2        24575           0.0000000000
     71771     23924  TIP3      H1            -21.9274266405       -8.5092522861       35.9992203535  W2        24575           0.0000000000
     71772     23924  TIP3      H2            -22.6085666405       -8.9934522861       34.7368803535  W2        24575           0.0000000000
     71773     23925  TIP3      OH2           -30.2593166405       -6.8163322861       28.2421703535  W2        24576           0.0000000000
     71774     23925  TIP3      H1            -30.5897966405       -7.1869922861       27.4238703535  W2        24576           0.0000000000
     71775     23925  TIP3      H2            -29.6709066405       -7.4869322861       28.5890003535  W2        24576           0.0000000000
     71776     23926  TIP3      OH2           -28.8925666405       -3.3882722861       30.9233903535  W2        24577           0.0000000000
     71777     23926  TIP3      H1            -28.9874366405       -3.9669622861       30.1668503535  W2        24577           0.0000000000
     71778     23926  TIP3      H2            -28.1632066405       -3.7597022861       31.4196703535  W2        24577           0.0000000000
     71779     23927  TIP3      OH2           -29.8927666405       -8.0477722861       31.8756703535  W2        24578           0.0000000000
     71780     23927  TIP3      H1            -29.3275166405       -7.9263522861       31.1127903535  W2        24578           0.0000000000
     71781     23927  TIP3      H2            -29.5738766405       -7.4102722861       32.5145203535  W2        24578           0.0000000000
     71782     23928  TIP3      OH2           -23.5835466405       -2.5445822861       32.6097203535  W2        24579           0.0000000000
     71783     23928  TIP3      H1            -23.8238866405       -1.8822722861       33.2576403535  W2        24579           0.0000000000
     71784     23928  TIP3      H2            -23.7817266405       -3.3790622861       33.0346803535  W2        24579           0.0000000000
     71785     23929  TIP3      OH2           -23.0337366405       -8.2846622861       24.0447903535  W2        24581           0.0000000000
     71786     23929  TIP3      H1            -22.4541866405       -8.1346322861       24.7916803535  W2        24581           0.0000000000
     71787     23929  TIP3      H2            -22.6197366405       -7.8139222861       23.3214303535  W2        24581           0.0000000000
     71788     23930  TIP3      OH2           -25.3072466405       -1.5478122861       27.4801003535  W2        24583           0.0000000000
     71789     23930  TIP3      H1            -24.8334866405       -1.2521822861       28.2575203535  W2        24583           0.0000000000
     71790     23930  TIP3      H2            -25.8703166405       -0.8096522861       27.2470603535  W2        24583           0.0000000000
     71791     23931  TIP3      OH2           -19.3348966405      -16.5346222861       23.8577603535  W2        24585           0.0000000000
     71792     23931  TIP3      H1            -20.2348266405      -16.3957222861       24.1528203535  W2        24585           0.0000000000
     71793     23931  TIP3      H2            -19.0830566405      -15.7031622861       23.4559303535  W2        24585           0.0000000000
     71794     23932  TIP3      OH2           -31.2690466405       -7.7469022861       25.8314503535  W2        24586           0.0000000000
     71795     23932  TIP3      H1            -31.5609166405       -6.9787322861       25.3405803535  W2        24586           0.0000000000
     71796     23932  TIP3      H2            -31.9435266405       -8.4062822861       25.6685903535  W2        24586           0.0000000000
     71797     23933  TIP3      OH2           -18.1457566405       -2.1683822861       22.2341503535  W2        24587           0.0000000000
     71798     23933  TIP3      H1            -18.0724066405       -1.2293622861       22.4046803535  W2        24587           0.0000000000
     71799     23933  TIP3      H2            -17.2402466405       -2.4735222861       22.1778803535  W2        24587           0.0000000000
     71800     23934  TIP3      OH2           -35.1760366405       -5.3839822861       34.6464303535  W2        24588           0.0000000000
     71801     23934  TIP3      H1            -35.6771966405       -5.4120422861       33.8314003535  W2        24588           0.0000000000
     71802     23934  TIP3      H2            -35.1706666405       -6.2896622861       34.9561603535  W2        24588           0.0000000000
     71803     23935  TIP3      OH2           -35.4257666405       -2.6036022861       31.5304503535  W2        24589           0.0000000000
     71804     23935  TIP3      H1            -34.4797066405       -2.7479022861       31.5114003535  W2        24589           0.0000000000
     71805     23935  TIP3      H2            -35.5381366405       -1.8193222861       32.0675703535  W2        24589           0.0000000000
     71806     23936  TIP3      OH2           -25.8349366405        1.4086577139       25.8950203535  W2        24592           0.0000000000
     71807     23936  TIP3      H1            -25.9103366405        1.2873777139       24.9485403535  W2        24592           0.0000000000
     71808     23936  TIP3      H2            -25.8020666405        2.3579277139       26.0134803535  W2        24592           0.0000000000
     71809     23937  TIP3      OH2           -32.1815566405        0.1973577139       27.6759203535  W2        24593           0.0000000000
     71810     23937  TIP3      H1            -32.0295166405       -0.1506022861       28.5545703535  W2        24593           0.0000000000
     71811     23937  TIP3      H2            -33.0325166405       -0.1589122861       27.4206403535  W2        24593           0.0000000000
     71812     23938  TIP3      OH2           -22.7333366405        0.5626777139       22.8972603535  W2        24594           0.0000000000
     71813     23938  TIP3      H1            -22.3584966405       -0.1817122861       22.4265203535  W2        24594           0.0000000000
     71814     23938  TIP3      H2            -22.7289666405        0.2927377139       23.8155903535  W2        24594           0.0000000000
     71815     23939  TIP3      OH2           -23.0645266405        0.4883877139       25.6464803535  W2        24595           0.0000000000
     71816     23939  TIP3      H1            -23.9995466405        0.5885777139       25.8251803535  W2        24595           0.0000000000
     71817     23939  TIP3      H2            -22.7843366405       -0.2210122861       26.2248003535  W2        24595           0.0000000000
     71818     23940  TIP3      OH2           -30.3081866405      -15.5903922861       31.6851303535  W2        24598           0.0000000000
     71819     23940  TIP3      H1            -31.1698166405      -15.6775722861       31.2774203535  W2        24598           0.0000000000
     71820     23940  TIP3      H2            -30.3306166405      -14.7343822861       32.1128903535  W2        24598           0.0000000000
     71821     23941  TIP3      OH2           -25.6454066405      -15.8683522861       35.0598303535  W2        24599           0.0000000000
     71822     23941  TIP3      H1            -25.2250966405      -16.2836422861       35.8128903535  W2        24599           0.0000000000
     71823     23941  TIP3      H2            -26.5784466405      -16.0470222861       35.1770303535  W2        24599           0.0000000000
     71824     23942  TIP3      OH2           -21.5564266405       -7.2518322861       21.6745803535  W2        24601           0.0000000000
     71825     23942  TIP3      H1            -21.5143466405       -7.4744422861       20.7445803535  W2        24601           0.0000000000
     71826     23942  TIP3      H2            -20.7072166405       -6.8531222861       21.8645703535  W2        24601           0.0000000000
     71827     23943  TIP3      OH2           -25.9836766405      -13.3760122861       22.3449103535  W2        24602           0.0000000000
     71828     23943  TIP3      H1            -26.2371966405      -13.3568522861       23.2677203535  W2        24602           0.0000000000
     71829     23943  TIP3      H2            -26.2404666405      -14.2474722861       22.0435303535  W2        24602           0.0000000000
     71830     23944  TIP3      OH2           -30.2171766405      -10.6249422861       32.7801503535  W2        24603           0.0000000000
     71831     23944  TIP3      H1            -30.8589666405      -10.6652122861       33.4891603535  W2        24603           0.0000000000
     71832     23944  TIP3      H2            -30.1799766405       -9.6984722861       32.5424503535  W2        24603           0.0000000000
     71833     23945  TIP3      OH2           -30.2202666405      -10.4039322861       27.6921503535  W2        24604           0.0000000000
     71834     23945  TIP3      H1            -31.1129766405      -10.7443222861       27.6335303535  W2        24604           0.0000000000
     71835     23945  TIP3      H2            -29.7696066405      -10.7808422861       26.9364703535  W2        24604           0.0000000000
     71836     23946  TIP3      OH2           -24.6847166405       -9.9879022861       26.5092303535  W2        24605           0.0000000000
     71837     23946  TIP3      H1            -25.0936866405       -9.1730422861       26.2177103535  W2        24605           0.0000000000
     71838     23946  TIP3      H2            -23.9640966405      -10.1278922861       25.8949403535  W2        24605           0.0000000000
     71839     23947  TIP3      OH2           -23.6799466405      -10.5418622861       29.3232003535  W2        24607           0.0000000000
     71840     23947  TIP3      H1            -23.8754966405       -9.9361822861       28.6082603535  W2        24607           0.0000000000
     71841     23947  TIP3      H2            -23.4986866405      -11.3753422861       28.8888303535  W2        24607           0.0000000000
     71842     23948  TIP3      OH2           -32.4671266405      -10.3045922861       34.6473503535  W2        24608           0.0000000000
     71843     23948  TIP3      H1            -32.5051866405       -9.9044322861       35.5160603535  W2        24608           0.0000000000
     71844     23948  TIP3      H2            -32.9580166405      -11.1213522861       34.7376403535  W2        24608           0.0000000000
     71845     23949  TIP3      OH2           -29.1013866405      -12.9303622861       21.4459503535  W2        24609           0.0000000000
     71846     23949  TIP3      H1            -29.5323166405      -13.3753522861       22.1756903535  W2        24609           0.0000000000
     71847     23949  TIP3      H2            -29.8195166405      -12.5587322861       20.9337003535  W2        24609           0.0000000000
     71848     23950  TIP3      OH2           -35.8590466405      -13.1884122861       28.4978203535  W2        24610           0.0000000000
     71849     23950  TIP3      H1            -35.2282766405      -13.2172022861       29.2172103535  W2        24610           0.0000000000
     71850     23950  TIP3      H2            -35.4096166405      -13.6135422861       27.7674103535  W2        24610           0.0000000000
     71851     23951  TIP3      OH2           -34.5848366405      -12.4422122861       23.9218603535  W2        24611           0.0000000000
     71852     23951  TIP3      H1            -34.1106666405      -11.8512222861       23.3369503535  W2        24611           0.0000000000
     71853     23951  TIP3      H2            -35.3021966405      -11.9119222861       24.2688703535  W2        24611           0.0000000000
     71854     23952  TIP3      OH2           -24.4160266405       -8.9037322861       33.9944403535  W2        24612           0.0000000000
     71855     23952  TIP3      H1            -24.0925466405       -9.5347622861       33.3514903535  W2        24612           0.0000000000
     71856     23952  TIP3      H2            -24.8560966405       -9.4385122861       34.6551803535  W2        24612           0.0000000000
     71857     23953  TIP3      OH2           -27.6387366405      -12.9761822861       28.7785603535  W2        24613           0.0000000000
     71858     23953  TIP3      H1            -28.5496266405      -12.9195022861       29.0671603535  W2        24613           0.0000000000
     71859     23953  TIP3      H2            -27.1334466405      -13.0366322861       29.5892803535  W2        24613           0.0000000000
     71860     23954  TIP3      OH2           -32.8103966405      -11.3475522861       27.6053203535  W2        24614           0.0000000000
     71861     23954  TIP3      H1            -33.6995966405      -11.2480022861       27.2652803535  W2        24614           0.0000000000
     71862     23954  TIP3      H2            -32.5139066405      -12.1892522861       27.2591103535  W2        24614           0.0000000000
     71863     23955  TIP3      OH2           -29.1572166405      -11.3472922861       25.2617803535  W2        24615           0.0000000000
     71864     23955  TIP3      H1            -28.2256666405      -11.2182922861       25.4400903535  W2        24615           0.0000000000
     71865     23955  TIP3      H2            -29.3721866405      -10.6778622861       24.6122503535  W2        24615           0.0000000000
     71866     23956  TIP3      OH2           -23.2335466405      -13.7415522861       32.0427403535  W2        24616           0.0000000000
     71867     23956  TIP3      H1            -23.9103866405      -13.6102422861       32.7067103535  W2        24616           0.0000000000
     71868     23956  TIP3      H2            -23.7190566405      -13.8966022861       31.2325103535  W2        24616           0.0000000000
     71869     23957  TIP3      OH2           -30.4831966405      -10.1530722861       22.8283903535  W2        24617           0.0000000000
     71870     23957  TIP3      H1            -31.0256866405      -10.5326922861       22.1371503535  W2        24617           0.0000000000
     71871     23957  TIP3      H2            -29.6497066405       -9.9586022861       22.3998003535  W2        24617           0.0000000000
     71872     23958  TIP3      OH2           -26.3187666405      -10.1888822861       30.6655203535  W2        24620           0.0000000000
     71873     23958  TIP3      H1            -25.7544266405      -10.7352222861       30.1184803535  W2        24620           0.0000000000
     71874     23958  TIP3      H2            -26.4664266405      -10.7106922861       31.4542803535  W2        24620           0.0000000000
     71875     23959  TIP3      OH2           -31.3167966405      -14.0522722861       27.0840003535  W2        24621           0.0000000000
     71876     23959  TIP3      H1            -31.6338466405      -14.9547422861       27.0485403535  W2        24621           0.0000000000
     71877     23959  TIP3      H2            -30.5353866405      -14.0505322861       26.5311603535  W2        24621           0.0000000000
     71878     23960  TIP3      OH2           -27.6921766405      -11.8002722861       33.0795603535  W2        24622           0.0000000000
     71879     23960  TIP3      H1            -28.5276466405      -11.3463222861       33.1898003535  W2        24622           0.0000000000
     71880     23960  TIP3      H2            -27.1681166405      -11.5244222861       33.8315503535  W2        24622           0.0000000000
     71881     23961  TIP3      OH2           -27.1479166405       -5.5875022861       24.7642003535  W2        24623           0.0000000000
     71882     23961  TIP3      H1            -27.8928166405       -6.0949722861       24.4419903535  W2        24623           0.0000000000
     71883     23961  TIP3      H2            -27.2821966405       -5.5387022861       25.7106803535  W2        24623           0.0000000000
     71884     23962  TIP3      OH2           -19.9980266405       -6.4546822861       33.5509603535  W2        24624           0.0000000000
     71885     23962  TIP3      H1            -19.3561466405       -5.9980522861       33.0071803535  W2        24624           0.0000000000
     71886     23962  TIP3      H2            -20.8283366405       -6.3414422861       33.0883703535  W2        24624           0.0000000000
     71887     23963  TIP3      OH2           -23.2502366405      -12.7735122861       22.9634603535  W2        24625           0.0000000000
     71888     23963  TIP3      H1            -24.1888166405      -12.6619522861       22.8123403535  W2        24625           0.0000000000
     71889     23963  TIP3      H2            -22.9530266405      -11.9168222861       23.2700303535  W2        24625           0.0000000000
     71890     23964  TIP3      OH2           -22.5318866405      -10.9062422861       24.6242003535  W2        24627           0.0000000000
     71891     23964  TIP3      H1            -21.6399866405      -11.0437422861       24.9433203535  W2        24627           0.0000000000
     71892     23964  TIP3      H2            -22.4755266405      -10.1156322861       24.0875503535  W2        24627           0.0000000000
     71893     23965  TIP3      OH2           -32.0230866405       -6.2925022861       30.5339903535  W2        24628           0.0000000000
     71894     23965  TIP3      H1            -31.2783666405       -6.2949322861       29.9326403535  W2        24628           0.0000000000
     71895     23965  TIP3      H2            -31.9454266405       -7.1161222861       31.0155003535  W2        24628           0.0000000000
     71896     23966  TIP3      OH2           -25.0225066405       -4.1290722861       23.7896603535  W2        24629           0.0000000000
     71897     23966  TIP3      H1            -25.3176666405       -3.3022822861       24.1711403535  W2        24629           0.0000000000
     71898     23966  TIP3      H2            -25.7255066405       -4.7483822861       23.9858003535  W2        24629           0.0000000000
     71899     23967  TIP3      OH2           -17.6470166405      -10.6968322861       24.3188703535  W2        24633           0.0000000000
     71900     23967  TIP3      H1            -18.2013866405      -11.0930322861       23.6466203535  W2        24633           0.0000000000
     71901     23967  TIP3      H2            -17.5466566405       -9.7863122861       24.0412003535  W2        24633           0.0000000000
     71902     23968  TIP3      OH2           -19.3518466405       -1.9107922861       24.7840803535  W2        24635           0.0000000000
     71903     23968  TIP3      H1            -19.7247366405       -2.7364122861       25.0931403535  W2        24635           0.0000000000
     71904     23968  TIP3      H2            -19.0744966405       -2.0938522861       23.8864203535  W2        24635           0.0000000000
     71905     23969  TIP3      OH2           -22.1914566405       -7.1028422861       31.8052703535  W2        24636           0.0000000000
     71906     23969  TIP3      H1            -23.1197666405       -7.3346522861       31.7782003535  W2        24636           0.0000000000
     71907     23969  TIP3      H2            -21.7403466405       -7.8798622861       31.4751503535  W2        24636           0.0000000000
     71908     23970  TIP3      OH2           -29.6481466405       -2.7746822861       27.9381403535  W2        24637           0.0000000000
     71909     23970  TIP3      H1            -29.1209266405       -2.0012422861       27.7380203535  W2        24637           0.0000000000
     71910     23970  TIP3      H2            -30.5282966405       -2.5497622861       27.6365403535  W2        24637           0.0000000000
     71911     23971  TIP3      OH2           -33.8933766405       -7.9122722861       22.5253803535  W2        24638           0.0000000000
     71912     23971  TIP3      H1            -33.2773866405       -7.2855522861       22.9048603535  W2        24638           0.0000000000
     71913     23971  TIP3      H2            -34.7551166405       -7.5962922861       22.7970303535  W2        24638           0.0000000000
     71914     23972  TIP3      OH2           -28.2209166405       -5.1116922861       27.5145703535  W2        24639           0.0000000000
     71915     23972  TIP3      H1            -28.4619166405       -4.1862522861       27.5561003535  W2        24639           0.0000000000
     71916     23972  TIP3      H2            -28.9615566405       -5.5705622861       27.9109603535  W2        24639           0.0000000000
     71917     23973  TIP3      OH2           -27.7062566405       -0.9623322861       33.8296803535  W2        24640           0.0000000000
     71918     23973  TIP3      H1            -27.3437866405       -0.1077722861       33.5961203535  W2        24640           0.0000000000
     71919     23973  TIP3      H2            -27.1747366405       -1.2541722861       34.5703103535  W2        24640           0.0000000000
     71920     23974  TIP3      OH2           -29.5378366405       -0.0899322861       27.0597903535  W2        24641           0.0000000000
     71921     23974  TIP3      H1            -30.4877866405        0.0158077139       27.1111203535  W2        24641           0.0000000000
     71922     23974  TIP3      H2            -29.1860266405        0.7308077139       27.4045403535  W2        24641           0.0000000000
     71923     23975  TIP3      OH2           -24.1621766405       -4.8632622861       33.5302403535  W2        24642           0.0000000000
     71924     23975  TIP3      H1            -24.5880466405       -5.0910922861       34.3566403535  W2        24642           0.0000000000
     71925     23975  TIP3      H2            -23.5815966405       -5.6020822861       33.3477703535  W2        24642           0.0000000000
     71926     23976  TIP3      OH2           -21.9592866405       -3.9342122861       22.6041403535  W2        24643           0.0000000000
     71927     23976  TIP3      H1            -21.6059766405       -4.3142322861       23.4084903535  W2        24643           0.0000000000
     71928     23976  TIP3      H2            -22.9079366405       -4.0277322861       22.6910703535  W2        24643           0.0000000000
     71929     23977  TIP3      OH2           -17.4558466405        0.5450377139       22.8051603535  W2        24645           0.0000000000
     71930     23977  TIP3      H1            -16.7120566405        1.1310877139       22.6653203535  W2        24645           0.0000000000
     71931     23977  TIP3      H2            -18.1500366405        1.1136177139       23.1384003535  W2        24645           0.0000000000
     71932     23978  TIP3      OH2           -33.3811666405      -13.0785422861       35.4069803535  W2        24646           0.0000000000
     71933     23978  TIP3      H1            -34.2739366405      -12.7400022861       35.3393803535  W2        24646           0.0000000000
     71934     23978  TIP3      H2            -33.4798866405      -13.9339322861       35.8250603535  W2        24646           0.0000000000
     71935     23979  TIP3      OH2           -21.0933566405       -5.2620122861       24.8309303535  W2        24647           0.0000000000
     71936     23979  TIP3      H1            -21.3705966405       -5.9900822861       25.3870403535  W2        24647           0.0000000000
     71937     23979  TIP3      H2            -20.1660566405       -5.1428122861       25.0361903535  W2        24647           0.0000000000
     71938     23980  TIP3      OH2           -33.7299666405       -1.2741022861       33.8419203535  W2        24648           0.0000000000
     71939     23980  TIP3      H1            -33.5129366405       -2.2058622861       33.8108903535  W2        24648           0.0000000000
     71940     23980  TIP3      H2            -33.4836166405       -0.9996022861       34.7252003535  W2        24648           0.0000000000
     71941     23981  TIP3      OH2           -27.8685066405       -2.8226022861       21.0511403535  W2        24649           0.0000000000
     71942     23981  TIP3      H1            -27.6295266405       -3.5707922861       20.5040303535  W2        24649           0.0000000000
     71943     23981  TIP3      H2            -28.1373766405       -3.2104322861       21.8839203535  W2        24649           0.0000000000
     71944     23982  TIP3      OH2           -28.9314466405       -3.2522222861       23.5074003535  W2        24650           0.0000000000
     71945     23982  TIP3      H1            -28.7846466405       -3.7722422861       24.2974903535  W2        24650           0.0000000000
     71946     23982  TIP3      H2            -28.9342766405       -2.3454622861       23.8139903535  W2        24650           0.0000000000
     71947     23983  TIP3      OH2           -32.4783366405       -5.9998922861       24.0179403535  W2        24651           0.0000000000
     71948     23983  TIP3      H1            -33.1644066405       -5.6476422861       24.5849103535  W2        24651           0.0000000000
     71949     23983  TIP3      H2            -31.9555466405       -5.2369322861       23.7713703535  W2        24651           0.0000000000
     71950     23984  TIP3      OH2           -24.6468266405      -13.3375122861       34.2968403535  W2        24652           0.0000000000
     71951     23984  TIP3      H1            -23.9480366405      -13.2636422861       34.9468103535  W2        24652           0.0000000000
     71952     23984  TIP3      H2            -25.0276866405      -14.2020122861       34.4511303535  W2        24652           0.0000000000
     71953     23985  TIP3      OH2           -23.8623366405      -13.6853422861       25.3940703535  W2        24653           0.0000000000
     71954     23985  TIP3      H1            -23.6425066405      -13.2138022861       24.5906103535  W2        24653           0.0000000000
     71955     23985  TIP3      H2            -23.3039366405      -13.2910822861       26.0641303535  W2        24653           0.0000000000
     71956     23986  TIP3      OH2           -26.1937266405       -1.5548622861       24.2568203535  W2        24654           0.0000000000
     71957     23986  TIP3      H1            -27.0101166405       -1.0578922861       24.3092503535  W2        24654           0.0000000000
     71958     23986  TIP3      H2            -25.6640966405       -1.0795122861       23.6167003535  W2        24654           0.0000000000
     71959     23987  TIP3      OH2           -26.6623466405      -11.9574622861       26.2289103535  W2        24655           0.0000000000
     71960     23987  TIP3      H1            -25.8500866405      -11.4531422861       26.2750803535  W2        24655           0.0000000000
     71961     23987  TIP3      H2            -26.9070466405      -12.1024922861       27.1428703535  W2        24655           0.0000000000
     71962     23988  TIP3      OH2           -26.1267066405      -10.9711922861       35.4135703535  W2        24656           0.0000000000
     71963     23988  TIP3      H1            -26.0076766405      -10.3976522861       36.1706103535  W2        24656           0.0000000000
     71964     23988  TIP3      H2            -25.4712466405      -11.6592522861       35.5283503535  W2        24656           0.0000000000
     71965     23989  TIP3      OH2           -25.7786766405      -14.8761622861       27.1670203535  W2        24657           0.0000000000
     71966     23989  TIP3      H1            -26.1253266405      -14.2591022861       27.8114503535  W2        24657           0.0000000000
     71967     23989  TIP3      H2            -25.1199866405      -14.3755922861       26.6855703535  W2        24657           0.0000000000
     71968     23990  TIP3      OH2           -28.8554166405       -0.5111422861       24.2385103535  W2        24658           0.0000000000
     71969     23990  TIP3      H1            -28.6945466405        0.2886077139       23.7377703535  W2        24658           0.0000000000
     71970     23990  TIP3      H2            -29.0526366405       -0.2045422861       25.1235703535  W2        24658           0.0000000000
     71971     23991  TIP3      OH2           -30.1209766405      -13.8132222861       23.8542703535  W2        24659           0.0000000000
     71972     23991  TIP3      H1            -30.2044966405      -12.9249122861       24.2009103535  W2        24659           0.0000000000
     71973     23991  TIP3      H2            -29.2309466405      -14.0785522861       24.0859503535  W2        24659           0.0000000000
     71974     23992  TIP3      OH2           -21.3200266405       -9.3140622861       30.3442703535  W2        24661           0.0000000000
     71975     23992  TIP3      H1            -22.1175866405       -9.7290422861       30.0157703535  W2        24661           0.0000000000
     71976     23992  TIP3      H2            -20.8749166405      -10.0046922861       30.8353203535  W2        24661           0.0000000000
     71977     23993  TIP3      OH2           -31.8624466405       -3.3860022861       22.9147203535  W2        24662           0.0000000000
     71978     23993  TIP3      H1            -31.2702966405       -2.6865222861       23.1909603535  W2        24662           0.0000000000
     71979     23993  TIP3      H2            -31.4031466405       -3.8190522861       22.1951803535  W2        24662           0.0000000000
     71980     23994  TIP3      OH2           -33.5465266405      -10.7217022861       22.0306603535  W2        24663           0.0000000000
     71981     23994  TIP3      H1            -33.5912666405       -9.7823922861       22.2093603535  W2        24663           0.0000000000
     71982     23994  TIP3      H2            -34.4342066405      -10.9572122861       21.7608703535  W2        24663           0.0000000000
     71983     23995  TIP3      OH2           -20.2335666405       -0.0578122861       31.9666203535  W2        24664           0.0000000000
     71984     23995  TIP3      H1            -20.3891366405        0.6206277139       31.3095503535  W2        24664           0.0000000000
     71985     23995  TIP3      H2            -19.3009266405        0.0141177139       32.1696803535  W2        24664           0.0000000000
     71986     23996  TIP3      OH2           -32.7383266405      -15.9400422861       30.7037603535  W2        24665           0.0000000000
     71987     23996  TIP3      H1            -32.9673466405      -15.8807922861       29.7762603535  W2        24665           0.0000000000
     71988     23996  TIP3      H2            -33.1809866405      -16.7314922861       31.0101703535  W2        24665           0.0000000000
     71989     23997  TIP3      OH2           -33.8079966405       -1.9993322861       26.8643403535  W2        24666           0.0000000000
     71990     23997  TIP3      H1            -34.6401366405       -1.5270622861       26.8914803535  W2        24666           0.0000000000
     71991     23997  TIP3      H2            -33.2621666405       -1.4895722861       26.2656503535  W2        24666           0.0000000000
     71992     23998  TIP3      OH2           -25.8303266405       -0.9594622861       21.1897403535  W2        24669           0.0000000000
     71993     23998  TIP3      H1            -26.4742266405       -1.5906022861       21.5111103535  W2        24669           0.0000000000
     71994     23998  TIP3      H2            -25.0684966405       -1.4906622861       20.9580903535  W2        24669           0.0000000000
     71995     23999  TIP3      OH2           -21.2260366405       -1.1424722861       21.4235403535  W2        24671           0.0000000000
     71996     23999  TIP3      H1            -20.9429966405       -1.9369522861       21.8762303535  W2        24671           0.0000000000
     71997     23999  TIP3      H2            -20.4862466405       -0.9093722861       20.8626503535  W2        24671           0.0000000000
     71998     24000  TIP3      OH2           -30.2713066405       -5.2329822861       21.2810303535  W2        24673           0.0000000000
     71999     24000  TIP3      H1            -30.2068966405       -6.0270222861       21.8116703535  W2        24673           0.0000000000
     72000     24000  TIP3      H2            -29.6183866405       -5.3517022861       20.5912303535  W2        24673           0.0000000000
     72001     24001  TIP3      OH2           -24.9189666405       -4.1858122861       21.0168303535  W2        24675           0.0000000000
     72002     24001  TIP3      H1            -25.1875566405       -4.0056022861       21.9177203535  W2        24675           0.0000000000
     72003     24001  TIP3      H2            -25.1254066405       -5.1111922861       20.8854103535  W2        24675           0.0000000000
     72004     24002  TIP3      OH2           -29.1219266405       -7.2603622861       23.5868303535  W2        24678           0.0000000000
     72005     24002  TIP3      H1            -29.5817266405       -7.7445322861       24.2726803535  W2        24678           0.0000000000
     72006     24002  TIP3      H2            -28.8670566405       -7.9288222861       22.9508803535  W2        24678           0.0000000000
     72007     24003  TIP3      OH2           -28.0508866405       -9.0171822861       21.8491503535  W2        24680           0.0000000000
     72008     24003  TIP3      H1            -28.2313866405       -9.1720622861       20.9219803535  W2        24680           0.0000000000
     72009     24003  TIP3      H2            -27.1008366405       -8.9093122861       21.8939403535  W2        24680           0.0000000000
     72010     24004  TIP3      OH2           -18.6610566405       -6.6627622861       21.2949603535  W2        24682           0.0000000000
     72011     24004  TIP3      H1            -18.9345766405       -7.0872122861       20.4817903535  W2        24682           0.0000000000
     72012     24004  TIP3      H2            -18.6216466405       -5.7313122861       21.0780003535  W2        24682           0.0000000000
     72013     24005  TIP3      OH2           -29.0810566405      -13.6429922861       34.5178403535  W2        24684           0.0000000000
     72014     24005  TIP3      H1            -28.5453066405      -13.1913222861       33.8657703535  W2        24684           0.0000000000
     72015     24005  TIP3      H2            -29.9330966405      -13.7510122861       34.0952503535  W2        24684           0.0000000000
     72016     24006  TIP3      OH2           -27.4992166405       -8.2033722861       34.7573603535  W2        24685           0.0000000000
     72017     24006  TIP3      H1            -26.7487366405       -8.3596222861       34.1841403535  W2        24685           0.0000000000
     72018     24006  TIP3      H2            -27.8383866405       -7.3517122861       34.4819103535  W2        24685           0.0000000000
     72019     24007  TIP3      OH2           -28.2755066405      -16.1864222861       34.9492003535  W2        24689           0.0000000000
     72020     24007  TIP3      H1            -28.3735466405      -15.2401022861       34.8438203535  W2        24689           0.0000000000
     72021     24007  TIP3      H2            -29.0178866405      -16.5590422861       34.4735503535  W2        24689           0.0000000000
     72022     24008  TIP3      OH2           -28.1537166405        1.6731877139       22.8505103535  W2        24696           0.0000000000
     72023     24008  TIP3      H1            -27.2206466405        1.8310577139       22.9943503535  W2        24696           0.0000000000
     72024     24008  TIP3      H2            -28.4178366405        2.3484877139       22.2256603535  W2        24696           0.0000000000
     72025     24009  TIP3      OH2           -34.5852266405       -3.6904322861       22.3333203535  W2        24697           0.0000000000
     72026     24009  TIP3      H1            -33.6713066405       -3.6115422861       22.6067103535  W2        24697           0.0000000000
     72027     24009  TIP3      H2            -34.5779166405       -4.3774722861       21.6668803535  W2        24697           0.0000000000
     72028     24010  TIP3      OH2           -35.9361666405        1.7024177139       27.4107103535  W2        24698           0.0000000000
     72029     24010  TIP3      H1            -36.5834566405        1.2405877139       26.8778303535  W2        24698           0.0000000000
     72030     24010  TIP3      H2            -35.5817066405        1.0307477139       27.9933303535  W2        24698           0.0000000000
     72031     24011  TIP3      OH2           -35.0662466405       -0.2168822861       29.2153303535  W2        24699           0.0000000000
     72032     24011  TIP3      H1            -35.4005666405       -1.0971522861       29.3873503535  W2        24699           0.0000000000
     72033     24011  TIP3      H2            -34.8440066405        0.1286177139       30.0798903535  W2        24699           0.0000000000
     72034     24012  TIP3      OH2           -17.5177666405        0.5927577139       32.1958103535  W2        24700           0.0000000000
     72035     24012  TIP3      H1            -17.5390966405        0.7775977139       33.1347503535  W2        24700           0.0000000000
     72036     24012  TIP3      H2            -16.8271466405        1.1611577139       31.8549503535  W2        24700           0.0000000000
     72037     24013  TIP3      OH2           -17.9544766405        0.1598677139       35.1177203535  W2        24701           0.0000000000
     72038     24013  TIP3      H1            -18.4416066405       -0.5757222861       34.7464603535  W2        24701           0.0000000000
     72039     24013  TIP3      H2            -17.4052066405       -0.2337422861       35.7956603535  W2        24701           0.0000000000
     72040     24014  TIP3      OH2           -18.2027766405       -5.7939522861       25.2700003535  W2        24703           0.0000000000
     72041     24014  TIP3      H1            -17.3526366405       -5.3728622861       25.3971603535  W2        24703           0.0000000000
     72042     24014  TIP3      H2            -18.1972666405       -6.5339422861       25.8771403535  W2        24703           0.0000000000
     72043     24015  TIP3      OH2           -17.8082166405       -7.7402122861       27.0935703535  W2        24704           0.0000000000
     72044     24015  TIP3      H1            -18.5347566405       -8.2199522861       27.4913303535  W2        24704           0.0000000000
     72045     24015  TIP3      H2            -17.2268866405       -7.5347422861       27.8257303535  W2        24704           0.0000000000
     72046     24016  TIP3      OH2           -18.0490966405       -4.9554622861       32.0413303535  W2        24705           0.0000000000
     72047     24016  TIP3      H1            -17.2156766405       -5.3334622861       31.7606903535  W2        24705           0.0000000000
     72048     24016  TIP3      H2            -17.9370666405       -4.0123422861       31.9222403535  W2        24705           0.0000000000
     72049     24017  TIP3      OH2           -19.5628666405       -2.0777122861       34.3481703535  W2        24706           0.0000000000
     72050     24017  TIP3      H1            -20.2103366405       -1.7525622861       34.9736903535  W2        24706           0.0000000000
     72051     24017  TIP3      H2            -20.0804666405       -2.5179422861       33.6740003535  W2        24706           0.0000000000
     72052     24018  TIP3      OH2           -17.5399066405       -7.8393622861       23.4847003535  W2        24707           0.0000000000
     72053     24018  TIP3      H1            -18.0617966405       -7.4829522861       22.7657903535  W2        24707           0.0000000000
     72054     24018  TIP3      H2            -17.5729866405       -7.1645822861       24.1627903535  W2        24707           0.0000000000
     72055     24019  TIP3      OH2           -19.1910066405      -10.5998022861       22.0354103535  W2        24708           0.0000000000
     72056     24019  TIP3      H1            -19.0945666405       -9.9331022861       21.3553803535  W2        24708           0.0000000000
     72057     24019  TIP3      H2            -19.3310466405      -11.4151722861       21.5539603535  W2        24708           0.0000000000
     72058     24020  TIP3      OH2           -20.0215366405       -9.2195622861       27.6564403535  W2        24709           0.0000000000
     72059     24020  TIP3      H1            -20.1716566405      -10.1647022861       27.6362203535  W2        24709           0.0000000000
     72060     24020  TIP3      H2            -20.3750866405       -8.9384222861       28.5003503535  W2        24709           0.0000000000
     72061     24021  TIP3      OH2           -34.9862966405       -7.1413422861       31.6668203535  W2        24710           0.0000000000
     72062     24021  TIP3      H1            -34.8020066405       -7.2231722861       30.7311103535  W2        24710           0.0000000000
     72063     24021  TIP3      H2            -34.1370066405       -7.2656422861       32.0904603535  W2        24710           0.0000000000
     72064     24022  TIP3      OH2           -19.9436266405      -13.1918222861       21.1529603535  W2        24713           0.0000000000
     72065     24022  TIP3      H1            -19.3330466405      -13.5631422861       21.7897803535  W2        24713           0.0000000000
     72066     24022  TIP3      H2            -20.7804766405      -13.6131322861       21.3489603535  W2        24713           0.0000000000
     72067     24023  TIP3      OH2           -20.3110566405      -11.6369822861       26.1189503535  W2        24714           0.0000000000
     72068     24023  TIP3      H1            -20.0313466405      -12.5439422861       26.2431203535  W2        24714           0.0000000000
     72069     24023  TIP3      H2            -19.5518866405      -11.2028322861       25.7298703535  W2        24714           0.0000000000
     72070     24024  TIP3      OH2           -19.6992266405      -11.0552422861       31.5548403535  W2        24715           0.0000000000
     72071     24024  TIP3      H1            -18.7664266405      -10.8432522861       31.5204403535  W2        24715           0.0000000000
     72072     24024  TIP3      H2            -19.9344766405      -10.9540322861       32.4771403535  W2        24715           0.0000000000
     72073     24025  TIP3      OH2           -19.6700366405      -10.3187122861       34.3307803535  W2        24716           0.0000000000
     72074     24025  TIP3      H1            -20.5129066405      -10.0506722861       34.6967603535  W2        24716           0.0000000000
     72075     24025  TIP3      H2            -19.2276066405       -9.4965222861       34.1198903535  W2        24716           0.0000000000
     72076     24026  TIP3      OH2           -19.6975766405      -14.3740522861       26.1671503535  W2        24719           0.0000000000
     72077     24026  TIP3      H1            -19.5150766405      -14.8229022861       26.9926503535  W2        24719           0.0000000000
     72078     24026  TIP3      H2            -20.2972866405      -14.9586122861       25.7036103535  W2        24719           0.0000000000
     72079     24027  TIP3      OH2           -34.1675666405      -13.5586822861       30.6989903535  W2        24720           0.0000000000
     72080     24027  TIP3      H1            -33.7224066405      -14.3504322861       31.0009603535  W2        24720           0.0000000000
     72081     24027  TIP3      H2            -33.7012666405      -12.8421622861       31.1295503535  W2        24720           0.0000000000
     72082     24028  TIP3      OH2           -35.8635366405      -10.5593822861       31.7680103535  W2        24721           0.0000000000
     72083     24028  TIP3      H1            -35.3715566405      -10.7803322861       30.9772103535  W2        24721           0.0000000000
     72084     24028  TIP3      H2            -35.5014466405       -9.7190422861       32.0489603535  W2        24721           0.0000000000
     72085     24029  TIP3      OH2           -17.8309566405      -14.3062422861       22.6951803535  W2        24723           0.0000000000
     72086     24029  TIP3      H1            -17.4186966405      -15.0276722861       22.2199803535  W2        24723           0.0000000000
     72087     24029  TIP3      H2            -17.1493066405      -13.6367822861       22.7536103535  W2        24723           0.0000000000
     72088     24030  TIP3      OH2           -35.5498866405      -14.3014722861       25.8222503535  W2        24724           0.0000000000
     72089     24030  TIP3      H1            -36.4750466405      -14.0928122861       25.6928003535  W2        24724           0.0000000000
     72090     24030  TIP3      H2            -35.0958966405      -13.8173922861       25.1324803535  W2        24724           0.0000000000
     72091     24031  TIP3      OH2           -20.7791666405        0.6826977139       27.7679903535  W2        24725           0.0000000000
     72092     24031  TIP3      H1            -20.1268766405        0.3349077139       27.1599003535  W2        24725           0.0000000000
     72093     24031  TIP3      H2            -20.2687866405        1.1710177139       28.4139603535  W2        24725           0.0000000000
     72094     24032  TIP3      OH2           -35.5863466405      -15.5635722861       34.1665003535  W2        24726           0.0000000000
     72095     24032  TIP3      H1            -36.2512966405      -15.8095422861       34.8095903535  W2        24726           0.0000000000
     72096     24032  TIP3      H2            -36.0292166405      -14.9415322861       33.5893003535  W2        24726           0.0000000000
     72097     24033  TIP3      OH2           -30.4401266405       -1.4140422861       34.5694803535  W2        24728           0.0000000000
     72098     24033  TIP3      H1            -30.8650166405       -0.6041922861       34.2869403535  W2        24728           0.0000000000
     72099     24033  TIP3      H2            -29.5358466405       -1.3286322861       34.2674603535  W2        24728           0.0000000000
     72100     24034  TIP3      OH2           -33.0384566405        1.8423477139       34.6170103535  W2        24732           0.0000000000
     72101     24034  TIP3      H1            -33.7588166405        2.2824477139       34.1657803535  W2        24732           0.0000000000
     72102     24034  TIP3      H2            -33.4040566405        1.5918177139       35.4654103535  W2        24732           0.0000000000
     72103     24035  TIP3      OH2           -30.5711966405        1.4427377139       33.6467303535  W2        24733           0.0000000000
     72104     24035  TIP3      H1            -31.4359766405        1.5145877139       34.0507403535  W2        24733           0.0000000000
     72105     24035  TIP3      H2            -30.6262966405        1.9894677139       32.8629803535  W2        24733           0.0000000000
     72106     24036  TIP3      OH2           -25.8606366405        1.3306277139       32.8223303535  W2        24734           0.0000000000
     72107     24036  TIP3      H1            -26.3172366405        1.8595977139       32.1681703535  W2        24734           0.0000000000
     72108     24036  TIP3      H2            -25.6978366405        1.9337677139       33.5475603535  W2        24734           0.0000000000
     72109     24037  TIP3      OH2           -23.5330066405        0.2085877139       33.7673603535  W2        24735           0.0000000000
     72110     24037  TIP3      H1            -24.4376366405        0.3736077139       33.5015703535  W2        24735           0.0000000000
     72111     24037  TIP3      H2            -23.1041466405        1.0618077139       33.7017003535  W2        24735           0.0000000000
     72112     24038  TIP3      OH2           -20.9288166405        1.7784977139       34.0621403535  W2        24736           0.0000000000
     72113     24038  TIP3      H1            -21.1106166405        2.6943877139       33.8516303535  W2        24736           0.0000000000
     72114     24038  TIP3      H2            -20.7520366405        1.3682077139       33.2156003535  W2        24736           0.0000000000
     72115     24039  TIP3      OH2           -33.6236466405        0.4655977139       31.5271903535  W2        24737           0.0000000000
     72116     24039  TIP3      H1            -33.6420466405        0.0401077139       32.3844203535  W2        24737           0.0000000000
     72117     24039  TIP3      H2            -32.8188566405        0.1470977139       31.1184103535  W2        24737           0.0000000000
     72118     24040  TIP3      OH2           -31.4823366405       -0.8245322861       30.1821803535  W2        24738           0.0000000000
     72119     24040  TIP3      H1            -31.7012666405       -1.7407922861       30.3517803535  W2        24738           0.0000000000
     72120     24040  TIP3      H2            -30.6581166405       -0.6844922861       30.6483203535  W2        24738           0.0000000000
     72121     24041  TIP3      OH2           -28.9450866405       -0.3546022861       31.0309803535  W2        24739           0.0000000000
     72122     24041  TIP3      H1            -28.7325166405       -1.2427022861       30.7440703535  W2        24739           0.0000000000
     72123     24041  TIP3      H2            -28.8805766405       -0.3888322861       31.9853803535  W2        24739           0.0000000000
     72124     24042  TIP3      OH2           -25.4367166405      -14.6905422861       30.1753103535  W2        24740           0.0000000000
     72125     24042  TIP3      H1            -26.1110366405      -15.3199822861       30.4308903535  W2        24740           0.0000000000
     72126     24042  TIP3      H2            -24.8727966405      -15.1746522861       29.5721003535  W2        24740           0.0000000000
     72127     24043  TIP3      OH2           -20.2939966405      -16.5831422861       30.2880203535  W2        24741           0.0000000000
     72128     24043  TIP3      H1            -19.6902366405      -16.0356022861       29.7861203535  W2        24741           0.0000000000
     72129     24043  TIP3      H2            -21.1637966405      -16.2641022861       30.0474303535  W2        24741           0.0000000000
     72130     24044  TIP3      OH2           -18.5669566405      -15.4442722861       28.6211103535  W2        24742           0.0000000000
     72131     24044  TIP3      H1            -17.9552066405      -15.9587022861       28.0944703535  W2        24742           0.0000000000
     72132     24044  TIP3      H2            -18.1846166405      -14.5670622861       28.6445503535  W2        24742           0.0000000000
     72133     24045  TIP3      OH2           -33.1099666405      -16.0565122861       27.9973003535  W2        24743           0.0000000000
     72134     24045  TIP3      H1            -33.8869866405      -16.2910222861       27.4898903535  W2        24743           0.0000000000
     72135     24045  TIP3      H2            -32.5796066405      -16.8533022861       28.0061003535  W2        24743           0.0000000000
     72136     24046  TIP3      OH2           -34.2736266405      -16.2587022861       23.8009103535  W2        24744           0.0000000000
     72137     24046  TIP3      H1            -33.8345566405      -15.6476522861       23.2092603535  W2        24744           0.0000000000
     72138     24046  TIP3      H2            -34.9073866405      -15.7202922861       24.2749103535  W2        24744           0.0000000000
     72139     24047  TIP3      OH2           -28.5307066405      -16.1298022861       27.8106103535  W2        24745           0.0000000000
     72140     24047  TIP3      H1            -27.6563666405      -15.7413722861       27.7810403535  W2        24745           0.0000000000
     72141     24047  TIP3      H2            -28.6666266405      -16.3450222861       28.7333303535  W2        24745           0.0000000000
     72142     24048  TIP3      OH2           -22.9738666405      -16.0998222861       29.4597803535  W2        24746           0.0000000000
     72143     24048  TIP3      H1            -22.8977066405      -16.0046622861       28.5103803535  W2        24746           0.0000000000
     72144     24048  TIP3      H2            -23.2489466405      -17.0075322861       29.5886903535  W2        24746           0.0000000000
     72145     24049  TIP3      OH2           -21.6206066405      -16.0740422861       25.1522803535  W2        24747           0.0000000000
     72146     24049  TIP3      H1            -22.3234966405      -15.4591222861       24.9424203535  W2        24747           0.0000000000
     72147     24049  TIP3      H2            -22.0654666405      -16.9113722861       25.2833703535  W2        24747           0.0000000000
     72148     24050  TIP3      OH2           -34.3726766405       -0.3104822861       24.6984203535  W2        24748           0.0000000000
     72149     24050  TIP3      H1            -35.0576866405       -0.3485922861       24.0309303535  W2        24748           0.0000000000
     72150     24050  TIP3      H2            -34.3689566405        0.6022777139       24.9866303535  W2        24748           0.0000000000
     72151     24051  TIP3      OH2           -32.4127166405      -14.3425522861       22.2433203535  W2        24749           0.0000000000
     72152     24051  TIP3      H1            -31.9213766405      -14.9723122861       21.7158703535  W2        24749           0.0000000000
     72153     24051  TIP3      H2            -31.7890866405      -14.0466122861       22.9064403535  W2        24749           0.0000000000
     72154     24052  TIP3      OH2           -27.3867066405      -14.0494022861       24.7003703535  W2        24750           0.0000000000
     72155     24052  TIP3      H1            -27.2085766405      -14.6960822861       25.3832303535  W2        24750           0.0000000000
     72156     24052  TIP3      H2            -27.4400866405      -13.2156322861       25.1674803535  W2        24750           0.0000000000
     72157     24053  TIP3      OH2           -25.5083266405        0.8990077139       23.0960403535  W2        24751           0.0000000000
     72158     24053  TIP3      H1            -24.6423066405        1.2657477139       22.9178603535  W2        24751           0.0000000000
     72159     24053  TIP3      H2            -25.7550466405        0.4598077139       22.2821203535  W2        24751           0.0000000000
     72160     24054  TIP3      OH2           -18.7993666405        0.4620377139       25.7751503535  W2        24752           0.0000000000
     72161     24054  TIP3      H1            -18.9936566405       -0.2857522861       25.2101103535  W2        24752           0.0000000000
     72162     24054  TIP3      H2            -18.8383566405        1.2200477139       25.1919403535  W2        24752           0.0000000000
     72163     24055  TIP3      OH2           -32.5545566405        0.6095977139       21.7236303535  W2        24755           0.0000000000
     72164     24055  TIP3      H1            -32.8220966405        0.8958877139       22.5969403535  W2        24755           0.0000000000
     72165     24055  TIP3      H2            -31.7832966405        0.0635177139       21.8758803535  W2        24755           0.0000000000
     72166     24056  TIP3      OH2            -5.1757066405       -6.9002822861       27.9560503535  W2        24758           0.0000000000
     72167     24056  TIP3      H1             -5.0865966405       -5.9564622861       27.8237603535  W2        24758           0.0000000000
     72168     24056  TIP3      H2             -5.8139466405       -7.1756422861       27.2979903535  W2        24758           0.0000000000
     72169     24057  TIP3      OH2            -6.2425766405       -7.6452122861       31.3748703535  W2        24759           0.0000000000
     72170     24057  TIP3      H1             -6.2808266405       -8.2915822861       32.0798303535  W2        24759           0.0000000000
     72171     24057  TIP3      H2             -6.5649266405       -8.1117722861       30.6037403535  W2        24759           0.0000000000
     72172     24058  TIP3      OH2           -13.8740766405       -8.0310022861       32.9678603535  W2        24760           0.0000000000
     72173     24058  TIP3      H1            -13.8328666405       -8.6566722861       33.6911003535  W2        24760           0.0000000000
     72174     24058  TIP3      H2            -13.1713066405       -7.4071422861       33.1499003535  W2        24760           0.0000000000
     72175     24059  TIP3      OH2            -2.5365566405       -4.7061722861       29.6763803535  W2        24761           0.0000000000
     72176     24059  TIP3      H1             -2.9772866405       -5.4265722861       30.1269403535  W2        24761           0.0000000000
     72177     24059  TIP3      H2             -2.5495866405       -3.9854522861       30.3061503535  W2        24761           0.0000000000
     72178     24060  TIP3      OH2           -12.9507666405       -3.5811122861       31.5027703535  W2        24762           0.0000000000
     72179     24060  TIP3      H1            -13.3202466405       -4.3830622861       31.1332003535  W2        24762           0.0000000000
     72180     24060  TIP3      H2            -12.0096566405       -3.7496222861       31.5491103535  W2        24762           0.0000000000
     72181     24061  TIP3      OH2           -16.3407166405       -9.9208522861       26.8956503535  W2        24763           0.0000000000
     72182     24061  TIP3      H1            -16.7883766405       -9.0749822861       26.8773003535  W2        24763           0.0000000000
     72183     24061  TIP3      H2            -16.9015966405      -10.5004322861       26.3801603535  W2        24763           0.0000000000
     72184     24062  TIP3      OH2           -15.6301066405       -7.7588922861       29.0214503535  W2        24764           0.0000000000
     72185     24062  TIP3      H1            -15.4167566405       -8.5287322861       29.5487503535  W2        24764           0.0000000000
     72186     24062  TIP3      H2            -14.8923466405       -7.6692222861       28.4182103535  W2        24764           0.0000000000
     72187     24063  TIP3      OH2            -5.4250066405        0.3979977139       29.8884203535  W2        24765           0.0000000000
     72188     24063  TIP3      H1             -4.8053666405       -0.2785322861       29.6153403535  W2        24765           0.0000000000
     72189     24063  TIP3      H2             -5.6332666405        0.1800777139       30.7969103535  W2        24765           0.0000000000
     72190     24064  TIP3      OH2            -7.8531366405       -5.2130722861       31.7809703535  W2        24766           0.0000000000
     72191     24064  TIP3      H1             -7.5493466405       -5.8989322861       31.1863803535  W2        24766           0.0000000000
     72192     24064  TIP3      H2             -7.1317366405       -5.0942022861       32.3987703535  W2        24766           0.0000000000
     72193     24065  TIP3      OH2             0.8098433595      -13.6115422861       32.6415903535  W2        24767           0.0000000000
     72194     24065  TIP3      H1              0.8590633595      -13.0014222861       33.3775003535  W2        24767           0.0000000000
     72195     24065  TIP3      H2              1.2353533595      -13.1504522861       31.9187003535  W2        24767           0.0000000000
     72196     24066  TIP3      OH2            -4.7124366405      -10.8188322861       32.1084503535  W2        24768           0.0000000000
     72197     24066  TIP3      H1             -4.5698466405      -11.7651322861       32.1286103535  W2        24768           0.0000000000
     72198     24066  TIP3      H2             -4.8185366405      -10.6118522861       31.1799403535  W2        24768           0.0000000000
     72199     24067  TIP3      OH2           -11.5576066405      -12.7171922861       29.3809303535  W2        24769           0.0000000000
     72200     24067  TIP3      H1            -11.5144966405      -11.8573422861       28.9625603535  W2        24769           0.0000000000
     72201     24067  TIP3      H2            -12.0151966405      -13.2697222861       28.7472503535  W2        24769           0.0000000000
     72202     24068  TIP3      OH2            -3.8353366405      -12.5866322861       27.7817603535  W2        24770           0.0000000000
     72203     24068  TIP3      H1             -3.1889066405      -12.9153122861       28.4065203535  W2        24770           0.0000000000
     72204     24068  TIP3      H2             -3.3253966405      -12.0687322861       27.1589003535  W2        24770           0.0000000000
     72205     24069  TIP3      OH2           -14.9374566405      -10.3206122861       30.1430703535  W2        24771           0.0000000000
     72206     24069  TIP3      H1            -14.2837966405      -10.8704422861       30.5750803535  W2        24771           0.0000000000
     72207     24069  TIP3      H2            -14.9135266405      -10.5947122861       29.2262703535  W2        24771           0.0000000000
     72208     24070  TIP3      OH2            -9.7810066405       -8.7704822861       29.3582203535  W2        24772           0.0000000000
     72209     24070  TIP3      H1             -9.1649066405       -9.2969422861       29.8676203535  W2        24772           0.0000000000
     72210     24070  TIP3      H2            -10.3671266405       -9.4106122861       28.9545803535  W2        24772           0.0000000000
     72211     24071  TIP3      OH2             1.2013033595      -12.1336222861       34.8775703535  W2        24773           0.0000000000
     72212     24071  TIP3      H1              0.5127633595      -11.4755522861       34.7822303535  W2        24773           0.0000000000
     72213     24071  TIP3      H2              1.2167633595      -12.3308322861       35.8141103535  W2        24773           0.0000000000
     72214     24072  TIP3      OH2           -12.7474166405      -13.7993522861       33.4550103535  W2        24774           0.0000000000
     72215     24072  TIP3      H1            -12.9662466405      -13.2692922861       32.6886103535  W2        24774           0.0000000000
     72216     24072  TIP3      H2            -13.4153266405      -13.5728022861       34.1021503535  W2        24774           0.0000000000
     72217     24073  TIP3      OH2            -5.3784366405       -4.2992422861       26.9989203535  W2        24775           0.0000000000
     72218     24073  TIP3      H1             -5.6739266405       -4.6220122861       26.1476103535  W2        24775           0.0000000000
     72219     24073  TIP3      H2             -5.7026566405       -3.3995722861       27.0401803535  W2        24775           0.0000000000
     72220     24074  TIP3      OH2           -10.1782766405       -6.1237822861       33.7423803535  W2        24776           0.0000000000
     72221     24074  TIP3      H1            -10.9183666405       -5.5256322861       33.8459003535  W2        24776           0.0000000000
     72222     24074  TIP3      H2             -9.4643266405       -5.5698222861       33.4267403535  W2        24776           0.0000000000
     72223     24075  TIP3      OH2            -2.0714966405      -13.2957022861       29.7623503535  W2        24777           0.0000000000
     72224     24075  TIP3      H1             -2.2866966405      -14.0613622861       30.2949503535  W2        24777           0.0000000000
     72225     24075  TIP3      H2             -1.4157566405      -12.8232422861       30.2752003535  W2        24777           0.0000000000
     72226     24076  TIP3      OH2           -13.1536866405      -11.9071722861       31.4072303535  W2        24778           0.0000000000
     72227     24076  TIP3      H1            -12.5400566405      -11.2744122861       31.7804703535  W2        24778           0.0000000000
     72228     24076  TIP3      H2            -12.6416166405      -12.3796722861       30.7509203535  W2        24778           0.0000000000
     72229     24077  TIP3      OH2           -11.7708466405       -4.1594822861       34.5295303535  W2        24779           0.0000000000
     72230     24077  TIP3      H1            -11.7760866405       -3.2801322861       34.1514603535  W2        24779           0.0000000000
     72231     24077  TIP3      H2            -12.6244366405       -4.2430722861       34.9545203535  W2        24779           0.0000000000
     72232     24078  TIP3      OH2           -15.6497566405       -4.4886922861       25.3114603535  W2        24780           0.0000000000
     72233     24078  TIP3      H1            -15.9216666405       -4.2595922861       24.4227503535  W2        24780           0.0000000000
     72234     24078  TIP3      H2            -15.6041866405       -3.6508122861       25.7719903535  W2        24780           0.0000000000
     72235     24079  TIP3      OH2            -2.0247866405       -2.8671022861       32.0243103535  W2        24781           0.0000000000
     72236     24079  TIP3      H1             -2.9664166405       -2.8087122861       32.1860003535  W2        24781           0.0000000000
     72237     24079  TIP3      H2             -1.7481766405       -1.9610522861       31.8872803535  W2        24781           0.0000000000
     72238     24080  TIP3      OH2            -1.7240866405      -14.5805722861       33.4417003535  W2        24782           0.0000000000
     72239     24080  TIP3      H1             -2.4601666405      -13.9698622861       33.4038303535  W2        24782           0.0000000000
     72240     24080  TIP3      H2             -1.0406866405      -14.1656722861       32.9153403535  W2        24782           0.0000000000
     72241     24081  TIP3      OH2            -8.7209466405      -16.4938422861       30.9075003535  W2        24783           0.0000000000
     72242     24081  TIP3      H1             -8.8385266405      -17.4422422861       30.8533303535  W2        24783           0.0000000000
     72243     24081  TIP3      H2             -9.5759366405      -16.1612322861       31.1806103535  W2        24783           0.0000000000
     72244     24082  TIP3      OH2            -3.7726666405       -1.0857522861       28.6494703535  W2        24784           0.0000000000
     72245     24082  TIP3      H1             -3.3474366405       -1.7929622861       28.1644303535  W2        24784           0.0000000000
     72246     24082  TIP3      H2             -3.4556666405       -0.2844822861       28.2326903535  W2        24784           0.0000000000
     72247     24083  TIP3      OH2            -2.6130166405       -3.1849022861       27.1581303535  W2        24785           0.0000000000
     72248     24083  TIP3      H1             -2.8705366405       -3.8748922861       26.5467203535  W2        24785           0.0000000000
     72249     24083  TIP3      H2             -2.5419366405       -3.6277822861       28.0037203535  W2        24785           0.0000000000
     72250     24084  TIP3      OH2            -6.4544566405       -7.6562822861       25.4080803535  W2        24787           0.0000000000
     72251     24084  TIP3      H1             -7.1659066405       -7.1213122861       25.0561303535  W2        24787           0.0000000000
     72252     24084  TIP3      H2             -5.7634966405       -7.6010722861       24.7479703535  W2        24787           0.0000000000
     72253     24085  TIP3      OH2            -6.4005366405       -9.1988522861       22.4465803535  W2        24788           0.0000000000
     72254     24085  TIP3      H1             -5.6995466405       -9.1761622861       23.0979803535  W2        24788           0.0000000000
     72255     24085  TIP3      H2             -6.0982466405       -9.8268822861       21.7905103535  W2        24788           0.0000000000
     72256     24086  TIP3      OH2             0.9149333595       -8.2784322861       33.7015203535  W2        24789           0.0000000000
     72257     24086  TIP3      H1              0.2623433595       -7.5838722861       33.7906103535  W2        24789           0.0000000000
     72258     24086  TIP3      H2              1.3799633595       -8.0683422861       32.8916803535  W2        24789           0.0000000000
     72259     24087  TIP3      OH2            -3.0486866405       -7.4469522861       26.3596703535  W2        24790           0.0000000000
     72260     24087  TIP3      H1             -3.7805866405       -7.2185822861       26.9327303535  W2        24790           0.0000000000
     72261     24087  TIP3      H2             -2.6014666405       -8.1606822861       26.8144203535  W2        24790           0.0000000000
     72262     24088  TIP3      OH2            -3.1513366405       -9.2726922861       35.4273703535  W2        24791           0.0000000000
     72263     24088  TIP3      H1             -3.0714266405       -8.5092522861       35.9992203535  W2        24791           0.0000000000
     72264     24088  TIP3      H2             -3.7525666405       -8.9934522861       34.7368803535  W2        24791           0.0000000000
     72265     24089  TIP3      OH2           -11.4033166405       -6.8163322861       28.2421703535  W2        24792           0.0000000000
     72266     24089  TIP3      H1            -11.7337966405       -7.1869922861       27.4238703535  W2        24792           0.0000000000
     72267     24089  TIP3      H2            -10.8149066405       -7.4869322861       28.5890003535  W2        24792           0.0000000000
     72268     24090  TIP3      OH2           -10.0365666405       -3.3882722861       30.9233903535  W2        24793           0.0000000000
     72269     24090  TIP3      H1            -10.1314366405       -3.9669622861       30.1668503535  W2        24793           0.0000000000
     72270     24090  TIP3      H2             -9.3072066405       -3.7597022861       31.4196703535  W2        24793           0.0000000000
     72271     24091  TIP3      OH2           -11.0367666405       -8.0477722861       31.8756703535  W2        24794           0.0000000000
     72272     24091  TIP3      H1            -10.4715166405       -7.9263522861       31.1127903535  W2        24794           0.0000000000
     72273     24091  TIP3      H2            -10.7178766405       -7.4102722861       32.5145203535  W2        24794           0.0000000000
     72274     24092  TIP3      OH2            -4.7275466405       -2.5445822861       32.6097203535  W2        24795           0.0000000000
     72275     24092  TIP3      H1             -4.9678866405       -1.8822722861       33.2576403535  W2        24795           0.0000000000
     72276     24092  TIP3      H2             -4.9257266405       -3.3790622861       33.0346803535  W2        24795           0.0000000000
     72277     24093  TIP3      OH2            -4.1777366405       -8.2846622861       24.0447903535  W2        24797           0.0000000000
     72278     24093  TIP3      H1             -3.5981866405       -8.1346322861       24.7916803535  W2        24797           0.0000000000
     72279     24093  TIP3      H2             -3.7637366405       -7.8139222861       23.3214303535  W2        24797           0.0000000000
     72280     24094  TIP3      OH2            -6.4512466405       -1.5478122861       27.4801003535  W2        24799           0.0000000000
     72281     24094  TIP3      H1             -5.9774866405       -1.2521822861       28.2575203535  W2        24799           0.0000000000
     72282     24094  TIP3      H2             -7.0143166405       -0.8096522861       27.2470603535  W2        24799           0.0000000000
     72283     24095  TIP3      OH2            -0.4788966405      -16.5346222861       23.8577603535  W2        24801           0.0000000000
     72284     24095  TIP3      H1             -1.3788266405      -16.3957222861       24.1528203535  W2        24801           0.0000000000
     72285     24095  TIP3      H2             -0.2270566405      -15.7031622861       23.4559303535  W2        24801           0.0000000000
     72286     24096  TIP3      OH2           -12.4130466405       -7.7469022861       25.8314503535  W2        24802           0.0000000000
     72287     24096  TIP3      H1            -12.7049166405       -6.9787322861       25.3405803535  W2        24802           0.0000000000
     72288     24096  TIP3      H2            -13.0875266405       -8.4062822861       25.6685903535  W2        24802           0.0000000000
     72289     24097  TIP3      OH2             0.7102433595       -2.1683822861       22.2341503535  W2        24803           0.0000000000
     72290     24097  TIP3      H1              0.7835933595       -1.2293622861       22.4046803535  W2        24803           0.0000000000
     72291     24097  TIP3      H2              1.6157533595       -2.4735222861       22.1778803535  W2        24803           0.0000000000
     72292     24098  TIP3      OH2           -16.3200366405       -5.3839822861       34.6464303535  W2        24804           0.0000000000
     72293     24098  TIP3      H1            -16.8211966405       -5.4120422861       33.8314003535  W2        24804           0.0000000000
     72294     24098  TIP3      H2            -16.3146666405       -6.2896622861       34.9561603535  W2        24804           0.0000000000
     72295     24099  TIP3      OH2           -16.5697666405       -2.6036022861       31.5304503535  W2        24805           0.0000000000
     72296     24099  TIP3      H1            -15.6237066405       -2.7479022861       31.5114003535  W2        24805           0.0000000000
     72297     24099  TIP3      H2            -16.6821366405       -1.8193222861       32.0675703535  W2        24805           0.0000000000
     72298     24100  TIP3      OH2            -6.9789366405        1.4086577139       25.8950203535  W2        24808           0.0000000000
     72299     24100  TIP3      H1             -7.0543366405        1.2873777139       24.9485403535  W2        24808           0.0000000000
     72300     24100  TIP3      H2             -6.9460666405        2.3579277139       26.0134803535  W2        24808           0.0000000000
     72301     24101  TIP3      OH2           -13.3255566405        0.1973577139       27.6759203535  W2        24809           0.0000000000
     72302     24101  TIP3      H1            -13.1735166405       -0.1506022861       28.5545703535  W2        24809           0.0000000000
     72303     24101  TIP3      H2            -14.1765166405       -0.1589122861       27.4206403535  W2        24809           0.0000000000
     72304     24102  TIP3      OH2            -3.8773366405        0.5626777139       22.8972603535  W2        24810           0.0000000000
     72305     24102  TIP3      H1             -3.5024966405       -0.1817122861       22.4265203535  W2        24810           0.0000000000
     72306     24102  TIP3      H2             -3.8729666405        0.2927377139       23.8155903535  W2        24810           0.0000000000
     72307     24103  TIP3      OH2            -4.2085266405        0.4883877139       25.6464803535  W2        24811           0.0000000000
     72308     24103  TIP3      H1             -5.1435466405        0.5885777139       25.8251803535  W2        24811           0.0000000000
     72309     24103  TIP3      H2             -3.9283366405       -0.2210122861       26.2248003535  W2        24811           0.0000000000
     72310     24104  TIP3      OH2           -11.4521866405      -15.5903922861       31.6851303535  W2        24814           0.0000000000
     72311     24104  TIP3      H1            -12.3138166405      -15.6775722861       31.2774203535  W2        24814           0.0000000000
     72312     24104  TIP3      H2            -11.4746166405      -14.7343822861       32.1128903535  W2        24814           0.0000000000
     72313     24105  TIP3      OH2            -6.7894066405      -15.8683522861       35.0598303535  W2        24815           0.0000000000
     72314     24105  TIP3      H1             -6.3690966405      -16.2836422861       35.8128903535  W2        24815           0.0000000000
     72315     24105  TIP3      H2             -7.7224466405      -16.0470222861       35.1770303535  W2        24815           0.0000000000
     72316     24106  TIP3      OH2            -2.7004266405       -7.2518322861       21.6745803535  W2        24817           0.0000000000
     72317     24106  TIP3      H1             -2.6583466405       -7.4744422861       20.7445803535  W2        24817           0.0000000000
     72318     24106  TIP3      H2             -1.8512166405       -6.8531222861       21.8645703535  W2        24817           0.0000000000
     72319     24107  TIP3      OH2            -7.1276766405      -13.3760122861       22.3449103535  W2        24818           0.0000000000
     72320     24107  TIP3      H1             -7.3811966405      -13.3568522861       23.2677203535  W2        24818           0.0000000000
     72321     24107  TIP3      H2             -7.3844666405      -14.2474722861       22.0435303535  W2        24818           0.0000000000
     72322     24108  TIP3      OH2           -11.3611766405      -10.6249422861       32.7801503535  W2        24819           0.0000000000
     72323     24108  TIP3      H1            -12.0029666405      -10.6652122861       33.4891603535  W2        24819           0.0000000000
     72324     24108  TIP3      H2            -11.3239766405       -9.6984722861       32.5424503535  W2        24819           0.0000000000
     72325     24109  TIP3      OH2           -11.3642666405      -10.4039322861       27.6921503535  W2        24820           0.0000000000
     72326     24109  TIP3      H1            -12.2569766405      -10.7443222861       27.6335303535  W2        24820           0.0000000000
     72327     24109  TIP3      H2            -10.9136066405      -10.7808422861       26.9364703535  W2        24820           0.0000000000
     72328     24110  TIP3      OH2            -5.8287166405       -9.9879022861       26.5092303535  W2        24821           0.0000000000
     72329     24110  TIP3      H1             -6.2376866405       -9.1730422861       26.2177103535  W2        24821           0.0000000000
     72330     24110  TIP3      H2             -5.1080966405      -10.1278922861       25.8949403535  W2        24821           0.0000000000
     72331     24111  TIP3      OH2            -4.8239466405      -10.5418622861       29.3232003535  W2        24823           0.0000000000
     72332     24111  TIP3      H1             -5.0194966405       -9.9361822861       28.6082603535  W2        24823           0.0000000000
     72333     24111  TIP3      H2             -4.6426866405      -11.3753422861       28.8888303535  W2        24823           0.0000000000
     72334     24112  TIP3      OH2           -13.6111266405      -10.3045922861       34.6473503535  W2        24824           0.0000000000
     72335     24112  TIP3      H1            -13.6491866405       -9.9044322861       35.5160603535  W2        24824           0.0000000000
     72336     24112  TIP3      H2            -14.1020166405      -11.1213522861       34.7376403535  W2        24824           0.0000000000
     72337     24113  TIP3      OH2           -10.2453866405      -12.9303622861       21.4459503535  W2        24825           0.0000000000
     72338     24113  TIP3      H1            -10.6763166405      -13.3753522861       22.1756903535  W2        24825           0.0000000000
     72339     24113  TIP3      H2            -10.9635166405      -12.5587322861       20.9337003535  W2        24825           0.0000000000
     72340     24114  TIP3      OH2           -17.0030466405      -13.1884122861       28.4978203535  W2        24826           0.0000000000
     72341     24114  TIP3      H1            -16.3722766405      -13.2172022861       29.2172103535  W2        24826           0.0000000000
     72342     24114  TIP3      H2            -16.5536166405      -13.6135422861       27.7674103535  W2        24826           0.0000000000
     72343     24115  TIP3      OH2           -15.7288366405      -12.4422122861       23.9218603535  W2        24827           0.0000000000
     72344     24115  TIP3      H1            -15.2546666405      -11.8512222861       23.3369503535  W2        24827           0.0000000000
     72345     24115  TIP3      H2            -16.4461966405      -11.9119222861       24.2688703535  W2        24827           0.0000000000
     72346     24116  TIP3      OH2            -5.5600266405       -8.9037322861       33.9944403535  W2        24828           0.0000000000
     72347     24116  TIP3      H1             -5.2365466405       -9.5347622861       33.3514903535  W2        24828           0.0000000000
     72348     24116  TIP3      H2             -6.0000966405       -9.4385122861       34.6551803535  W2        24828           0.0000000000
     72349     24117  TIP3      OH2            -8.7827366405      -12.9761822861       28.7785603535  W2        24829           0.0000000000
     72350     24117  TIP3      H1             -9.6936266405      -12.9195022861       29.0671603535  W2        24829           0.0000000000
     72351     24117  TIP3      H2             -8.2774466405      -13.0366322861       29.5892803535  W2        24829           0.0000000000
     72352     24118  TIP3      OH2           -13.9543966405      -11.3475522861       27.6053203535  W2        24830           0.0000000000
     72353     24118  TIP3      H1            -14.8435966405      -11.2480022861       27.2652803535  W2        24830           0.0000000000
     72354     24118  TIP3      H2            -13.6579066405      -12.1892522861       27.2591103535  W2        24830           0.0000000000
     72355     24119  TIP3      OH2           -10.3012166405      -11.3472922861       25.2617803535  W2        24831           0.0000000000
     72356     24119  TIP3      H1             -9.3696666405      -11.2182922861       25.4400903535  W2        24831           0.0000000000
     72357     24119  TIP3      H2            -10.5161866405      -10.6778622861       24.6122503535  W2        24831           0.0000000000
     72358     24120  TIP3      OH2            -4.3775466405      -13.7415522861       32.0427403535  W2        24832           0.0000000000
     72359     24120  TIP3      H1             -5.0543866405      -13.6102422861       32.7067103535  W2        24832           0.0000000000
     72360     24120  TIP3      H2             -4.8630566405      -13.8966022861       31.2325103535  W2        24832           0.0000000000
     72361     24121  TIP3      OH2           -11.6271966405      -10.1530722861       22.8283903535  W2        24833           0.0000000000
     72362     24121  TIP3      H1            -12.1696866405      -10.5326922861       22.1371503535  W2        24833           0.0000000000
     72363     24121  TIP3      H2            -10.7937066405       -9.9586022861       22.3998003535  W2        24833           0.0000000000
     72364     24122  TIP3      OH2            -7.4627666405      -10.1888822861       30.6655203535  W2        24836           0.0000000000
     72365     24122  TIP3      H1             -6.8984266405      -10.7352222861       30.1184803535  W2        24836           0.0000000000
     72366     24122  TIP3      H2             -7.6104266405      -10.7106922861       31.4542803535  W2        24836           0.0000000000
     72367     24123  TIP3      OH2           -12.4607966405      -14.0522722861       27.0840003535  W2        24837           0.0000000000
     72368     24123  TIP3      H1            -12.7778466405      -14.9547422861       27.0485403535  W2        24837           0.0000000000
     72369     24123  TIP3      H2            -11.6793866405      -14.0505322861       26.5311603535  W2        24837           0.0000000000
     72370     24124  TIP3      OH2            -8.8361766405      -11.8002722861       33.0795603535  W2        24838           0.0000000000
     72371     24124  TIP3      H1             -9.6716466405      -11.3463222861       33.1898003535  W2        24838           0.0000000000
     72372     24124  TIP3      H2             -8.3121166405      -11.5244222861       33.8315503535  W2        24838           0.0000000000
     72373     24125  TIP3      OH2            -8.2919166405       -5.5875022861       24.7642003535  W2        24839           0.0000000000
     72374     24125  TIP3      H1             -9.0368166405       -6.0949722861       24.4419903535  W2        24839           0.0000000000
     72375     24125  TIP3      H2             -8.4261966405       -5.5387022861       25.7106803535  W2        24839           0.0000000000
     72376     24126  TIP3      OH2            -1.1420266405       -6.4546822861       33.5509603535  W2        24840           0.0000000000
     72377     24126  TIP3      H1             -0.5001466405       -5.9980522861       33.0071803535  W2        24840           0.0000000000
     72378     24126  TIP3      H2             -1.9723366405       -6.3414422861       33.0883703535  W2        24840           0.0000000000
     72379     24127  TIP3      OH2            -4.3942366405      -12.7735122861       22.9634603535  W2        24841           0.0000000000
     72380     24127  TIP3      H1             -5.3328166405      -12.6619522861       22.8123403535  W2        24841           0.0000000000
     72381     24127  TIP3      H2             -4.0970266405      -11.9168222861       23.2700303535  W2        24841           0.0000000000
     72382     24128  TIP3      OH2            -3.6758866405      -10.9062422861       24.6242003535  W2        24843           0.0000000000
     72383     24128  TIP3      H1             -2.7839866405      -11.0437422861       24.9433203535  W2        24843           0.0000000000
     72384     24128  TIP3      H2             -3.6195266405      -10.1156322861       24.0875503535  W2        24843           0.0000000000
     72385     24129  TIP3      OH2           -13.1670866405       -6.2925022861       30.5339903535  W2        24844           0.0000000000
     72386     24129  TIP3      H1            -12.4223666405       -6.2949322861       29.9326403535  W2        24844           0.0000000000
     72387     24129  TIP3      H2            -13.0894266405       -7.1161222861       31.0155003535  W2        24844           0.0000000000
     72388     24130  TIP3      OH2            -6.1665066405       -4.1290722861       23.7896603535  W2        24845           0.0000000000
     72389     24130  TIP3      H1             -6.4616666405       -3.3022822861       24.1711403535  W2        24845           0.0000000000
     72390     24130  TIP3      H2             -6.8695066405       -4.7483822861       23.9858003535  W2        24845           0.0000000000
     72391     24131  TIP3      OH2             1.2089833595      -10.6968322861       24.3188703535  W2        24849           0.0000000000
     72392     24131  TIP3      H1              0.6546133595      -11.0930322861       23.6466203535  W2        24849           0.0000000000
     72393     24131  TIP3      H2              1.3093433595       -9.7863122861       24.0412003535  W2        24849           0.0000000000
     72394     24132  TIP3      OH2            -0.4958466405       -1.9107922861       24.7840803535  W2        24851           0.0000000000
     72395     24132  TIP3      H1             -0.8687366405       -2.7364122861       25.0931403535  W2        24851           0.0000000000
     72396     24132  TIP3      H2             -0.2184966405       -2.0938522861       23.8864203535  W2        24851           0.0000000000
     72397     24133  TIP3      OH2            -3.3354566405       -7.1028422861       31.8052703535  W2        24852           0.0000000000
     72398     24133  TIP3      H1             -4.2637666405       -7.3346522861       31.7782003535  W2        24852           0.0000000000
     72399     24133  TIP3      H2             -2.8843466405       -7.8798622861       31.4751503535  W2        24852           0.0000000000
     72400     24134  TIP3      OH2           -10.7921466405       -2.7746822861       27.9381403535  W2        24853           0.0000000000
     72401     24134  TIP3      H1            -10.2649266405       -2.0012422861       27.7380203535  W2        24853           0.0000000000
     72402     24134  TIP3      H2            -11.6722966405       -2.5497622861       27.6365403535  W2        24853           0.0000000000
     72403     24135  TIP3      OH2           -15.0373766405       -7.9122722861       22.5253803535  W2        24854           0.0000000000
     72404     24135  TIP3      H1            -14.4213866405       -7.2855522861       22.9048603535  W2        24854           0.0000000000
     72405     24135  TIP3      H2            -15.8991166405       -7.5962922861       22.7970303535  W2        24854           0.0000000000
     72406     24136  TIP3      OH2            -9.3649166405       -5.1116922861       27.5145703535  W2        24855           0.0000000000
     72407     24136  TIP3      H1             -9.6059166405       -4.1862522861       27.5561003535  W2        24855           0.0000000000
     72408     24136  TIP3      H2            -10.1055566405       -5.5705622861       27.9109603535  W2        24855           0.0000000000
     72409     24137  TIP3      OH2            -8.8502566405       -0.9623322861       33.8296803535  W2        24856           0.0000000000
     72410     24137  TIP3      H1             -8.4877866405       -0.1077722861       33.5961203535  W2        24856           0.0000000000
     72411     24137  TIP3      H2             -8.3187366405       -1.2541722861       34.5703103535  W2        24856           0.0000000000
     72412     24138  TIP3      OH2           -10.6818366405       -0.0899322861       27.0597903535  W2        24857           0.0000000000
     72413     24138  TIP3      H1            -11.6317866405        0.0158077139       27.1111203535  W2        24857           0.0000000000
     72414     24138  TIP3      H2            -10.3300266405        0.7308077139       27.4045403535  W2        24857           0.0000000000
     72415     24139  TIP3      OH2            -5.3061766405       -4.8632622861       33.5302403535  W2        24858           0.0000000000
     72416     24139  TIP3      H1             -5.7320466405       -5.0910922861       34.3566403535  W2        24858           0.0000000000
     72417     24139  TIP3      H2             -4.7255966405       -5.6020822861       33.3477703535  W2        24858           0.0000000000
     72418     24140  TIP3      OH2            -3.1032866405       -3.9342122861       22.6041403535  W2        24859           0.0000000000
     72419     24140  TIP3      H1             -2.7499766405       -4.3142322861       23.4084903535  W2        24859           0.0000000000
     72420     24140  TIP3      H2             -4.0519366405       -4.0277322861       22.6910703535  W2        24859           0.0000000000
     72421     24141  TIP3      OH2             1.4001533595        0.5450377139       22.8051603535  W2        24861           0.0000000000
     72422     24141  TIP3      H1              2.1439433595        1.1310877139       22.6653203535  W2        24861           0.0000000000
     72423     24141  TIP3      H2              0.7059633595        1.1136177139       23.1384003535  W2        24861           0.0000000000
     72424     24142  TIP3      OH2           -14.5251666405      -13.0785422861       35.4069803535  W2        24862           0.0000000000
     72425     24142  TIP3      H1            -15.4179366405      -12.7400022861       35.3393803535  W2        24862           0.0000000000
     72426     24142  TIP3      H2            -14.6238866405      -13.9339322861       35.8250603535  W2        24862           0.0000000000
     72427     24143  TIP3      OH2            -2.2373566405       -5.2620122861       24.8309303535  W2        24863           0.0000000000
     72428     24143  TIP3      H1             -2.5145966405       -5.9900822861       25.3870403535  W2        24863           0.0000000000
     72429     24143  TIP3      H2             -1.3100566405       -5.1428122861       25.0361903535  W2        24863           0.0000000000
     72430     24144  TIP3      OH2           -14.8739666405       -1.2741022861       33.8419203535  W2        24864           0.0000000000
     72431     24144  TIP3      H1            -14.6569366405       -2.2058622861       33.8108903535  W2        24864           0.0000000000
     72432     24144  TIP3      H2            -14.6276166405       -0.9996022861       34.7252003535  W2        24864           0.0000000000
     72433     24145  TIP3      OH2            -9.0125066405       -2.8226022861       21.0511403535  W2        24865           0.0000000000
     72434     24145  TIP3      H1             -8.7735266405       -3.5707922861       20.5040303535  W2        24865           0.0000000000
     72435     24145  TIP3      H2             -9.2813766405       -3.2104322861       21.8839203535  W2        24865           0.0000000000
     72436     24146  TIP3      OH2           -10.0754466405       -3.2522222861       23.5074003535  W2        24866           0.0000000000
     72437     24146  TIP3      H1             -9.9286466405       -3.7722422861       24.2974903535  W2        24866           0.0000000000
     72438     24146  TIP3      H2            -10.0782766405       -2.3454622861       23.8139903535  W2        24866           0.0000000000
     72439     24147  TIP3      OH2           -13.6223366405       -5.9998922861       24.0179403535  W2        24867           0.0000000000
     72440     24147  TIP3      H1            -14.3084066405       -5.6476422861       24.5849103535  W2        24867           0.0000000000
     72441     24147  TIP3      H2            -13.0995466405       -5.2369322861       23.7713703535  W2        24867           0.0000000000
     72442     24148  TIP3      OH2            -5.7908266405      -13.3375122861       34.2968403535  W2        24868           0.0000000000
     72443     24148  TIP3      H1             -5.0920366405      -13.2636422861       34.9468103535  W2        24868           0.0000000000
     72444     24148  TIP3      H2             -6.1716866405      -14.2020122861       34.4511303535  W2        24868           0.0000000000
     72445     24149  TIP3      OH2            -5.0063366405      -13.6853422861       25.3940703535  W2        24869           0.0000000000
     72446     24149  TIP3      H1             -4.7865066405      -13.2138022861       24.5906103535  W2        24869           0.0000000000
     72447     24149  TIP3      H2             -4.4479366405      -13.2910822861       26.0641303535  W2        24869           0.0000000000
     72448     24150  TIP3      OH2            -7.3377266405       -1.5548622861       24.2568203535  W2        24870           0.0000000000
     72449     24150  TIP3      H1             -8.1541166405       -1.0578922861       24.3092503535  W2        24870           0.0000000000
     72450     24150  TIP3      H2             -6.8080966405       -1.0795122861       23.6167003535  W2        24870           0.0000000000
     72451     24151  TIP3      OH2            -7.8063466405      -11.9574622861       26.2289103535  W2        24871           0.0000000000
     72452     24151  TIP3      H1             -6.9940866405      -11.4531422861       26.2750803535  W2        24871           0.0000000000
     72453     24151  TIP3      H2             -8.0510466405      -12.1024922861       27.1428703535  W2        24871           0.0000000000
     72454     24152  TIP3      OH2            -7.2707066405      -10.9711922861       35.4135703535  W2        24872           0.0000000000
     72455     24152  TIP3      H1             -7.1516766405      -10.3976522861       36.1706103535  W2        24872           0.0000000000
     72456     24152  TIP3      H2             -6.6152466405      -11.6592522861       35.5283503535  W2        24872           0.0000000000
     72457     24153  TIP3      OH2            -6.9226766405      -14.8761622861       27.1670203535  W2        24873           0.0000000000
     72458     24153  TIP3      H1             -7.2693266405      -14.2591022861       27.8114503535  W2        24873           0.0000000000
     72459     24153  TIP3      H2             -6.2639866405      -14.3755922861       26.6855703535  W2        24873           0.0000000000
     72460     24154  TIP3      OH2            -9.9994166405       -0.5111422861       24.2385103535  W2        24874           0.0000000000
     72461     24154  TIP3      H1             -9.8385466405        0.2886077139       23.7377703535  W2        24874           0.0000000000
     72462     24154  TIP3      H2            -10.1966366405       -0.2045422861       25.1235703535  W2        24874           0.0000000000
     72463     24155  TIP3      OH2           -11.2649766405      -13.8132222861       23.8542703535  W2        24875           0.0000000000
     72464     24155  TIP3      H1            -11.3484966405      -12.9249122861       24.2009103535  W2        24875           0.0000000000
     72465     24155  TIP3      H2            -10.3749466405      -14.0785522861       24.0859503535  W2        24875           0.0000000000
     72466     24156  TIP3      OH2            -2.4640266405       -9.3140622861       30.3442703535  W2        24877           0.0000000000
     72467     24156  TIP3      H1             -3.2615866405       -9.7290422861       30.0157703535  W2        24877           0.0000000000
     72468     24156  TIP3      H2             -2.0189166405      -10.0046922861       30.8353203535  W2        24877           0.0000000000
     72469     24157  TIP3      OH2           -13.0064466405       -3.3860022861       22.9147203535  W2        24878           0.0000000000
     72470     24157  TIP3      H1            -12.4142966405       -2.6865222861       23.1909603535  W2        24878           0.0000000000
     72471     24157  TIP3      H2            -12.5471466405       -3.8190522861       22.1951803535  W2        24878           0.0000000000
     72472     24158  TIP3      OH2           -14.6905266405      -10.7217022861       22.0306603535  W2        24879           0.0000000000
     72473     24158  TIP3      H1            -14.7352666405       -9.7823922861       22.2093603535  W2        24879           0.0000000000
     72474     24158  TIP3      H2            -15.5782066405      -10.9572122861       21.7608703535  W2        24879           0.0000000000
     72475     24159  TIP3      OH2            -1.3775666405       -0.0578122861       31.9666203535  W2        24880           0.0000000000
     72476     24159  TIP3      H1             -1.5331366405        0.6206277139       31.3095503535  W2        24880           0.0000000000
     72477     24159  TIP3      H2             -0.4449266405        0.0141177139       32.1696803535  W2        24880           0.0000000000
     72478     24160  TIP3      OH2           -13.8823266405      -15.9400422861       30.7037603535  W2        24881           0.0000000000
     72479     24160  TIP3      H1            -14.1113466405      -15.8807922861       29.7762603535  W2        24881           0.0000000000
     72480     24160  TIP3      H2            -14.3249866405      -16.7314922861       31.0101703535  W2        24881           0.0000000000
     72481     24161  TIP3      OH2           -14.9519966405       -1.9993322861       26.8643403535  W2        24882           0.0000000000
     72482     24161  TIP3      H1            -15.7841366405       -1.5270622861       26.8914803535  W2        24882           0.0000000000
     72483     24161  TIP3      H2            -14.4061666405       -1.4895722861       26.2656503535  W2        24882           0.0000000000
     72484     24162  TIP3      OH2            -6.9743266405       -0.9594622861       21.1897403535  W2        24885           0.0000000000
     72485     24162  TIP3      H1             -7.6182266405       -1.5906022861       21.5111103535  W2        24885           0.0000000000
     72486     24162  TIP3      H2             -6.2124966405       -1.4906622861       20.9580903535  W2        24885           0.0000000000
     72487     24163  TIP3      OH2            -2.3700366405       -1.1424722861       21.4235403535  W2        24887           0.0000000000
     72488     24163  TIP3      H1             -2.0869966405       -1.9369522861       21.8762303535  W2        24887           0.0000000000
     72489     24163  TIP3      H2             -1.6302466405       -0.9093722861       20.8626503535  W2        24887           0.0000000000
     72490     24164  TIP3      OH2           -11.4153066405       -5.2329822861       21.2810303535  W2        24889           0.0000000000
     72491     24164  TIP3      H1            -11.3508966405       -6.0270222861       21.8116703535  W2        24889           0.0000000000
     72492     24164  TIP3      H2            -10.7623866405       -5.3517022861       20.5912303535  W2        24889           0.0000000000
     72493     24165  TIP3      OH2            -6.0629666405       -4.1858122861       21.0168303535  W2        24891           0.0000000000
     72494     24165  TIP3      H1             -6.3315566405       -4.0056022861       21.9177203535  W2        24891           0.0000000000
     72495     24165  TIP3      H2             -6.2694066405       -5.1111922861       20.8854103535  W2        24891           0.0000000000
     72496     24166  TIP3      OH2           -10.2659266405       -7.2603622861       23.5868303535  W2        24894           0.0000000000
     72497     24166  TIP3      H1            -10.7257266405       -7.7445322861       24.2726803535  W2        24894           0.0000000000
     72498     24166  TIP3      H2            -10.0110566405       -7.9288222861       22.9508803535  W2        24894           0.0000000000
     72499     24167  TIP3      OH2            -9.1948866405       -9.0171822861       21.8491503535  W2        24896           0.0000000000
     72500     24167  TIP3      H1             -9.3753866405       -9.1720622861       20.9219803535  W2        24896           0.0000000000
     72501     24167  TIP3      H2             -8.2448366405       -8.9093122861       21.8939403535  W2        24896           0.0000000000
     72502     24168  TIP3      OH2             0.1949433595       -6.6627622861       21.2949603535  W2        24898           0.0000000000
     72503     24168  TIP3      H1             -0.0785766405       -7.0872122861       20.4817903535  W2        24898           0.0000000000
     72504     24168  TIP3      H2              0.2343533595       -5.7313122861       21.0780003535  W2        24898           0.0000000000
     72505     24169  TIP3      OH2           -10.2250566405      -13.6429922861       34.5178403535  W2        24900           0.0000000000
     72506     24169  TIP3      H1             -9.6893066405      -13.1913222861       33.8657703535  W2        24900           0.0000000000
     72507     24169  TIP3      H2            -11.0770966405      -13.7510122861       34.0952503535  W2        24900           0.0000000000
     72508     24170  TIP3      OH2            -8.6432166405       -8.2033722861       34.7573603535  W2        24901           0.0000000000
     72509     24170  TIP3      H1             -7.8927366405       -8.3596222861       34.1841403535  W2        24901           0.0000000000
     72510     24170  TIP3      H2             -8.9823866405       -7.3517122861       34.4819103535  W2        24901           0.0000000000
     72511     24171  TIP3      OH2            -9.4195066405      -16.1864222861       34.9492003535  W2        24905           0.0000000000
     72512     24171  TIP3      H1             -9.5175466405      -15.2401022861       34.8438203535  W2        24905           0.0000000000
     72513     24171  TIP3      H2            -10.1618866405      -16.5590422861       34.4735503535  W2        24905           0.0000000000
     72514     24172  TIP3      OH2            -9.2977166405        1.6731877139       22.8505103535  W2        24912           0.0000000000
     72515     24172  TIP3      H1             -8.3646466405        1.8310577139       22.9943503535  W2        24912           0.0000000000
     72516     24172  TIP3      H2             -9.5618366405        2.3484877139       22.2256603535  W2        24912           0.0000000000
     72517     24173  TIP3      OH2           -15.7292266405       -3.6904322861       22.3333203535  W2        24913           0.0000000000
     72518     24173  TIP3      H1            -14.8153066405       -3.6115422861       22.6067103535  W2        24913           0.0000000000
     72519     24173  TIP3      H2            -15.7219166405       -4.3774722861       21.6668803535  W2        24913           0.0000000000
     72520     24174  TIP3      OH2           -17.0801666405        1.7024177139       27.4107103535  W2        24914           0.0000000000
     72521     24174  TIP3      H1            -17.7274566405        1.2405877139       26.8778303535  W2        24914           0.0000000000
     72522     24174  TIP3      H2            -16.7257066405        1.0307477139       27.9933303535  W2        24914           0.0000000000
     72523     24175  TIP3      OH2           -16.2102466405       -0.2168822861       29.2153303535  W2        24915           0.0000000000
     72524     24175  TIP3      H1            -16.5445666405       -1.0971522861       29.3873503535  W2        24915           0.0000000000
     72525     24175  TIP3      H2            -15.9880066405        0.1286177139       30.0798903535  W2        24915           0.0000000000
     72526     24176  TIP3      OH2             1.3382333595        0.5927577139       32.1958103535  W2        24916           0.0000000000
     72527     24176  TIP3      H1              1.3169033595        0.7775977139       33.1347503535  W2        24916           0.0000000000
     72528     24176  TIP3      H2              2.0288533595        1.1611577139       31.8549503535  W2        24916           0.0000000000
     72529     24177  TIP3      OH2             0.9015233595        0.1598677139       35.1177203535  W2        24917           0.0000000000
     72530     24177  TIP3      H1              0.4143933595       -0.5757222861       34.7464603535  W2        24917           0.0000000000
     72531     24177  TIP3      H2              1.4507933595       -0.2337422861       35.7956603535  W2        24917           0.0000000000
     72532     24178  TIP3      OH2             0.6532233595       -5.7939522861       25.2700003535  W2        24919           0.0000000000
     72533     24178  TIP3      H1              1.5033633595       -5.3728622861       25.3971603535  W2        24919           0.0000000000
     72534     24178  TIP3      H2              0.6587333595       -6.5339422861       25.8771403535  W2        24919           0.0000000000
     72535     24179  TIP3      OH2             1.0477833595       -7.7402122861       27.0935703535  W2        24920           0.0000000000
     72536     24179  TIP3      H1              0.3212433595       -8.2199522861       27.4913303535  W2        24920           0.0000000000
     72537     24179  TIP3      H2              1.6291133595       -7.5347422861       27.8257303535  W2        24920           0.0000000000
     72538     24180  TIP3      OH2             0.8069033595       -4.9554622861       32.0413303535  W2        24921           0.0000000000
     72539     24180  TIP3      H1              1.6403233595       -5.3334622861       31.7606903535  W2        24921           0.0000000000
     72540     24180  TIP3      H2              0.9189333595       -4.0123422861       31.9222403535  W2        24921           0.0000000000
     72541     24181  TIP3      OH2            -0.7068666405       -2.0777122861       34.3481703535  W2        24922           0.0000000000
     72542     24181  TIP3      H1             -1.3543366405       -1.7525622861       34.9736903535  W2        24922           0.0000000000
     72543     24181  TIP3      H2             -1.2244666405       -2.5179422861       33.6740003535  W2        24922           0.0000000000
     72544     24182  TIP3      OH2             1.3160933595       -7.8393622861       23.4847003535  W2        24923           0.0000000000
     72545     24182  TIP3      H1              0.7942033595       -7.4829522861       22.7657903535  W2        24923           0.0000000000
     72546     24182  TIP3      H2              1.2830133595       -7.1645822861       24.1627903535  W2        24923           0.0000000000
     72547     24183  TIP3      OH2            -0.3350066405      -10.5998022861       22.0354103535  W2        24924           0.0000000000
     72548     24183  TIP3      H1             -0.2385666405       -9.9331022861       21.3553803535  W2        24924           0.0000000000
     72549     24183  TIP3      H2             -0.4750466405      -11.4151722861       21.5539603535  W2        24924           0.0000000000
     72550     24184  TIP3      OH2            -1.1655366405       -9.2195622861       27.6564403535  W2        24925           0.0000000000
     72551     24184  TIP3      H1             -1.3156566405      -10.1647022861       27.6362203535  W2        24925           0.0000000000
     72552     24184  TIP3      H2             -1.5190866405       -8.9384222861       28.5003503535  W2        24925           0.0000000000
     72553     24185  TIP3      OH2           -16.1302966405       -7.1413422861       31.6668203535  W2        24926           0.0000000000
     72554     24185  TIP3      H1            -15.9460066405       -7.2231722861       30.7311103535  W2        24926           0.0000000000
     72555     24185  TIP3      H2            -15.2810066405       -7.2656422861       32.0904603535  W2        24926           0.0000000000
     72556     24186  TIP3      OH2            -1.0876266405      -13.1918222861       21.1529603535  W2        24929           0.0000000000
     72557     24186  TIP3      H1             -0.4770466405      -13.5631422861       21.7897803535  W2        24929           0.0000000000
     72558     24186  TIP3      H2             -1.9244766405      -13.6131322861       21.3489603535  W2        24929           0.0000000000
     72559     24187  TIP3      OH2            -1.4550566405      -11.6369822861       26.1189503535  W2        24930           0.0000000000
     72560     24187  TIP3      H1             -1.1753466405      -12.5439422861       26.2431203535  W2        24930           0.0000000000
     72561     24187  TIP3      H2             -0.6958866405      -11.2028322861       25.7298703535  W2        24930           0.0000000000
     72562     24188  TIP3      OH2            -0.8432266405      -11.0552422861       31.5548403535  W2        24931           0.0000000000
     72563     24188  TIP3      H1              0.0895733595      -10.8432522861       31.5204403535  W2        24931           0.0000000000
     72564     24188  TIP3      H2             -1.0784766405      -10.9540322861       32.4771403535  W2        24931           0.0000000000
     72565     24189  TIP3      OH2            -0.8140366405      -10.3187122861       34.3307803535  W2        24932           0.0000000000
     72566     24189  TIP3      H1             -1.6569066405      -10.0506722861       34.6967603535  W2        24932           0.0000000000
     72567     24189  TIP3      H2             -0.3716066405       -9.4965222861       34.1198903535  W2        24932           0.0000000000
     72568     24190  TIP3      OH2            -0.8415766405      -14.3740522861       26.1671503535  W2        24935           0.0000000000
     72569     24190  TIP3      H1             -0.6590766405      -14.8229022861       26.9926503535  W2        24935           0.0000000000
     72570     24190  TIP3      H2             -1.4412866405      -14.9586122861       25.7036103535  W2        24935           0.0000000000
     72571     24191  TIP3      OH2           -15.3115666405      -13.5586822861       30.6989903535  W2        24936           0.0000000000
     72572     24191  TIP3      H1            -14.8664066405      -14.3504322861       31.0009603535  W2        24936           0.0000000000
     72573     24191  TIP3      H2            -14.8452666405      -12.8421622861       31.1295503535  W2        24936           0.0000000000
     72574     24192  TIP3      OH2           -17.0075366405      -10.5593822861       31.7680103535  W2        24937           0.0000000000
     72575     24192  TIP3      H1            -16.5155566405      -10.7803322861       30.9772103535  W2        24937           0.0000000000
     72576     24192  TIP3      H2            -16.6454466405       -9.7190422861       32.0489603535  W2        24937           0.0000000000
     72577     24193  TIP3      OH2             1.0250433595      -14.3062422861       22.6951803535  W2        24939           0.0000000000
     72578     24193  TIP3      H1              1.4373033595      -15.0276722861       22.2199803535  W2        24939           0.0000000000
     72579     24193  TIP3      H2              1.7066933595      -13.6367822861       22.7536103535  W2        24939           0.0000000000
     72580     24194  TIP3      OH2           -16.6938866405      -14.3014722861       25.8222503535  W2        24940           0.0000000000
     72581     24194  TIP3      H1            -17.6190466405      -14.0928122861       25.6928003535  W2        24940           0.0000000000
     72582     24194  TIP3      H2            -16.2398966405      -13.8173922861       25.1324803535  W2        24940           0.0000000000
     72583     24195  TIP3      OH2            -1.9231666405        0.6826977139       27.7679903535  W2        24941           0.0000000000
     72584     24195  TIP3      H1             -1.2708766405        0.3349077139       27.1599003535  W2        24941           0.0000000000
     72585     24195  TIP3      H2             -1.4127866405        1.1710177139       28.4139603535  W2        24941           0.0000000000
     72586     24196  TIP3      OH2           -16.7303466405      -15.5635722861       34.1665003535  W2        24942           0.0000000000
     72587     24196  TIP3      H1            -17.3952966405      -15.8095422861       34.8095903535  W2        24942           0.0000000000
     72588     24196  TIP3      H2            -17.1732166405      -14.9415322861       33.5893003535  W2        24942           0.0000000000
     72589     24197  TIP3      OH2           -11.5841266405       -1.4140422861       34.5694803535  W2        24944           0.0000000000
     72590     24197  TIP3      H1            -12.0090166405       -0.6041922861       34.2869403535  W2        24944           0.0000000000
     72591     24197  TIP3      H2            -10.6798466405       -1.3286322861       34.2674603535  W2        24944           0.0000000000
     72592     24198  TIP3      OH2           -14.1824566405        1.8423477139       34.6170103535  W2        24948           0.0000000000
     72593     24198  TIP3      H1            -14.9028166405        2.2824477139       34.1657803535  W2        24948           0.0000000000
     72594     24198  TIP3      H2            -14.5480566405        1.5918177139       35.4654103535  W2        24948           0.0000000000
     72595     24199  TIP3      OH2           -11.7151966405        1.4427377139       33.6467303535  W2        24949           0.0000000000
     72596     24199  TIP3      H1            -12.5799766405        1.5145877139       34.0507403535  W2        24949           0.0000000000
     72597     24199  TIP3      H2            -11.7702966405        1.9894677139       32.8629803535  W2        24949           0.0000000000
     72598     24200  TIP3      OH2            -7.0046366405        1.3306277139       32.8223303535  W2        24950           0.0000000000
     72599     24200  TIP3      H1             -7.4612366405        1.8595977139       32.1681703535  W2        24950           0.0000000000
     72600     24200  TIP3      H2             -6.8418366405        1.9337677139       33.5475603535  W2        24950           0.0000000000
     72601     24201  TIP3      OH2            -4.6770066405        0.2085877139       33.7673603535  W2        24951           0.0000000000
     72602     24201  TIP3      H1             -5.5816366405        0.3736077139       33.5015703535  W2        24951           0.0000000000
     72603     24201  TIP3      H2             -4.2481466405        1.0618077139       33.7017003535  W2        24951           0.0000000000
     72604     24202  TIP3      OH2            -2.0728166405        1.7784977139       34.0621403535  W2        24952           0.0000000000
     72605     24202  TIP3      H1             -2.2546166405        2.6943877139       33.8516303535  W2        24952           0.0000000000
     72606     24202  TIP3      H2             -1.8960366405        1.3682077139       33.2156003535  W2        24952           0.0000000000
     72607     24203  TIP3      OH2           -14.7676466405        0.4655977139       31.5271903535  W2        24953           0.0000000000
     72608     24203  TIP3      H1            -14.7860466405        0.0401077139       32.3844203535  W2        24953           0.0000000000
     72609     24203  TIP3      H2            -13.9628566405        0.1470977139       31.1184103535  W2        24953           0.0000000000
     72610     24204  TIP3      OH2           -12.6263366405       -0.8245322861       30.1821803535  W2        24954           0.0000000000
     72611     24204  TIP3      H1            -12.8452666405       -1.7407922861       30.3517803535  W2        24954           0.0000000000
     72612     24204  TIP3      H2            -11.8021166405       -0.6844922861       30.6483203535  W2        24954           0.0000000000
     72613     24205  TIP3      OH2           -10.0890866405       -0.3546022861       31.0309803535  W2        24955           0.0000000000
     72614     24205  TIP3      H1             -9.8765166405       -1.2427022861       30.7440703535  W2        24955           0.0000000000
     72615     24205  TIP3      H2            -10.0245766405       -0.3888322861       31.9853803535  W2        24955           0.0000000000
     72616     24206  TIP3      OH2            -6.5807166405      -14.6905422861       30.1753103535  W2        24956           0.0000000000
     72617     24206  TIP3      H1             -7.2550366405      -15.3199822861       30.4308903535  W2        24956           0.0000000000
     72618     24206  TIP3      H2             -6.0167966405      -15.1746522861       29.5721003535  W2        24956           0.0000000000
     72619     24207  TIP3      OH2            -1.4379966405      -16.5831422861       30.2880203535  W2        24957           0.0000000000
     72620     24207  TIP3      H1             -0.8342366405      -16.0356022861       29.7861203535  W2        24957           0.0000000000
     72621     24207  TIP3      H2             -2.3077966405      -16.2641022861       30.0474303535  W2        24957           0.0000000000
     72622     24208  TIP3      OH2             0.2890433595      -15.4442722861       28.6211103535  W2        24958           0.0000000000
     72623     24208  TIP3      H1              0.9007933595      -15.9587022861       28.0944703535  W2        24958           0.0000000000
     72624     24208  TIP3      H2              0.6713833595      -14.5670622861       28.6445503535  W2        24958           0.0000000000
     72625     24209  TIP3      OH2           -14.2539666405      -16.0565122861       27.9973003535  W2        24959           0.0000000000
     72626     24209  TIP3      H1            -15.0309866405      -16.2910222861       27.4898903535  W2        24959           0.0000000000
     72627     24209  TIP3      H2            -13.7236066405      -16.8533022861       28.0061003535  W2        24959           0.0000000000
     72628     24210  TIP3      OH2           -15.4176266405      -16.2587022861       23.8009103535  W2        24960           0.0000000000
     72629     24210  TIP3      H1            -14.9785566405      -15.6476522861       23.2092603535  W2        24960           0.0000000000
     72630     24210  TIP3      H2            -16.0513866405      -15.7202922861       24.2749103535  W2        24960           0.0000000000
     72631     24211  TIP3      OH2            -9.6747066405      -16.1298022861       27.8106103535  W2        24961           0.0000000000
     72632     24211  TIP3      H1             -8.8003666405      -15.7413722861       27.7810403535  W2        24961           0.0000000000
     72633     24211  TIP3      H2             -9.8106266405      -16.3450222861       28.7333303535  W2        24961           0.0000000000
     72634     24212  TIP3      OH2            -4.1178666405      -16.0998222861       29.4597803535  W2        24962           0.0000000000
     72635     24212  TIP3      H1             -4.0417066405      -16.0046622861       28.5103803535  W2        24962           0.0000000000
     72636     24212  TIP3      H2             -4.3929466405      -17.0075322861       29.5886903535  W2        24962           0.0000000000
     72637     24213  TIP3      OH2            -2.7646066405      -16.0740422861       25.1522803535  W2        24963           0.0000000000
     72638     24213  TIP3      H1             -3.4674966405      -15.4591222861       24.9424203535  W2        24963           0.0000000000
     72639     24213  TIP3      H2             -3.2094666405      -16.9113722861       25.2833703535  W2        24963           0.0000000000
     72640     24214  TIP3      OH2           -15.5166766405       -0.3104822861       24.6984203535  W2        24964           0.0000000000
     72641     24214  TIP3      H1            -16.2016866405       -0.3485922861       24.0309303535  W2        24964           0.0000000000
     72642     24214  TIP3      H2            -15.5129566405        0.6022777139       24.9866303535  W2        24964           0.0000000000
     72643     24215  TIP3      OH2           -13.5567166405      -14.3425522861       22.2433203535  W2        24965           0.0000000000
     72644     24215  TIP3      H1            -13.0653766405      -14.9723122861       21.7158703535  W2        24965           0.0000000000
     72645     24215  TIP3      H2            -12.9330866405      -14.0466122861       22.9064403535  W2        24965           0.0000000000
     72646     24216  TIP3      OH2            -8.5307066405      -14.0494022861       24.7003703535  W2        24966           0.0000000000
     72647     24216  TIP3      H1             -8.3525766405      -14.6960822861       25.3832303535  W2        24966           0.0000000000
     72648     24216  TIP3      H2             -8.5840866405      -13.2156322861       25.1674803535  W2        24966           0.0000000000
     72649     24217  TIP3      OH2            -6.6523266405        0.8990077139       23.0960403535  W2        24967           0.0000000000
     72650     24217  TIP3      H1             -5.7863066405        1.2657477139       22.9178603535  W2        24967           0.0000000000
     72651     24217  TIP3      H2             -6.8990466405        0.4598077139       22.2821203535  W2        24967           0.0000000000
     72652     24218  TIP3      OH2             0.0566333595        0.4620377139       25.7751503535  W2        24968           0.0000000000
     72653     24218  TIP3      H1             -0.1376566405       -0.2857522861       25.2101103535  W2        24968           0.0000000000
     72654     24218  TIP3      H2              0.0176433595        1.2200477139       25.1919403535  W2        24968           0.0000000000
     72655     24219  TIP3      OH2           -13.6985566405        0.6095977139       21.7236303535  W2        24971           0.0000000000
     72656     24219  TIP3      H1            -13.9660966405        0.8958877139       22.5969403535  W2        24971           0.0000000000
     72657     24219  TIP3      H2            -12.9272966405        0.0635177139       21.8758803535  W2        24971           0.0000000000
     72658     24220  TIP3      OH2            13.6802933595       -6.9002822861       27.9560503535  W2        24974           0.0000000000
     72659     24220  TIP3      H1             13.7694033595       -5.9564622861       27.8237603535  W2        24974           0.0000000000
     72660     24220  TIP3      H2             13.0420533595       -7.1756422861       27.2979903535  W2        24974           0.0000000000
     72661     24221  TIP3      OH2            12.6134233595       -7.6452122861       31.3748703535  W2        24975           0.0000000000
     72662     24221  TIP3      H1             12.5751733595       -8.2915822861       32.0798303535  W2        24975           0.0000000000
     72663     24221  TIP3      H2             12.2910733595       -8.1117722861       30.6037403535  W2        24975           0.0000000000
     72664     24222  TIP3      OH2             4.9819233595       -8.0310022861       32.9678603535  W2        24976           0.0000000000
     72665     24222  TIP3      H1              5.0231333595       -8.6566722861       33.6911003535  W2        24976           0.0000000000
     72666     24222  TIP3      H2              5.6846933595       -7.4071422861       33.1499003535  W2        24976           0.0000000000
     72667     24223  TIP3      OH2            16.3194433595       -4.7061722861       29.6763803535  W2        24977           0.0000000000
     72668     24223  TIP3      H1             15.8787133595       -5.4265722861       30.1269403535  W2        24977           0.0000000000
     72669     24223  TIP3      H2             16.3064133595       -3.9854522861       30.3061503535  W2        24977           0.0000000000
     72670     24224  TIP3      OH2             5.9052333595       -3.5811122861       31.5027703535  W2        24978           0.0000000000
     72671     24224  TIP3      H1              5.5357533595       -4.3830622861       31.1332003535  W2        24978           0.0000000000
     72672     24224  TIP3      H2              6.8463433595       -3.7496222861       31.5491103535  W2        24978           0.0000000000
     72673     24225  TIP3      OH2             2.5152833595       -9.9208522861       26.8956503535  W2        24979           0.0000000000
     72674     24225  TIP3      H1              2.0676233595       -9.0749822861       26.8773003535  W2        24979           0.0000000000
     72675     24225  TIP3      H2              1.9544033595      -10.5004322861       26.3801603535  W2        24979           0.0000000000
     72676     24226  TIP3      OH2             3.2258933595       -7.7588922861       29.0214503535  W2        24980           0.0000000000
     72677     24226  TIP3      H1              3.4392433595       -8.5287322861       29.5487503535  W2        24980           0.0000000000
     72678     24226  TIP3      H2              3.9636533595       -7.6692222861       28.4182103535  W2        24980           0.0000000000
     72679     24227  TIP3      OH2            13.4309933595        0.3979977139       29.8884203535  W2        24981           0.0000000000
     72680     24227  TIP3      H1             14.0506333595       -0.2785322861       29.6153403535  W2        24981           0.0000000000
     72681     24227  TIP3      H2             13.2227333595        0.1800777139       30.7969103535  W2        24981           0.0000000000
     72682     24228  TIP3      OH2            11.0028633595       -5.2130722861       31.7809703535  W2        24982           0.0000000000
     72683     24228  TIP3      H1             11.3066533595       -5.8989322861       31.1863803535  W2        24982           0.0000000000
     72684     24228  TIP3      H2             11.7242633595       -5.0942022861       32.3987703535  W2        24982           0.0000000000
     72685     24229  TIP3      OH2            19.6658433595      -13.6115422861       32.6415903535  W2        24983           0.0000000000
     72686     24229  TIP3      H1             19.7150633595      -13.0014222861       33.3775003535  W2        24983           0.0000000000
     72687     24229  TIP3      H2             20.0913533595      -13.1504522861       31.9187003535  W2        24983           0.0000000000
     72688     24230  TIP3      OH2            14.1435633595      -10.8188322861       32.1084503535  W2        24984           0.0000000000
     72689     24230  TIP3      H1             14.2861533595      -11.7651322861       32.1286103535  W2        24984           0.0000000000
     72690     24230  TIP3      H2             14.0374633595      -10.6118522861       31.1799403535  W2        24984           0.0000000000
     72691     24231  TIP3      OH2             7.2983933595      -12.7171922861       29.3809303535  W2        24985           0.0000000000
     72692     24231  TIP3      H1              7.3415033595      -11.8573422861       28.9625603535  W2        24985           0.0000000000
     72693     24231  TIP3      H2              6.8408033595      -13.2697222861       28.7472503535  W2        24985           0.0000000000
     72694     24232  TIP3      OH2            15.0206633595      -12.5866322861       27.7817603535  W2        24986           0.0000000000
     72695     24232  TIP3      H1             15.6670933595      -12.9153122861       28.4065203535  W2        24986           0.0000000000
     72696     24232  TIP3      H2             15.5306033595      -12.0687322861       27.1589003535  W2        24986           0.0000000000
     72697     24233  TIP3      OH2             3.9185433595      -10.3206122861       30.1430703535  W2        24987           0.0000000000
     72698     24233  TIP3      H1              4.5722033595      -10.8704422861       30.5750803535  W2        24987           0.0000000000
     72699     24233  TIP3      H2              3.9424733595      -10.5947122861       29.2262703535  W2        24987           0.0000000000
     72700     24234  TIP3      OH2             9.0749933595       -8.7704822861       29.3582203535  W2        24988           0.0000000000
     72701     24234  TIP3      H1              9.6910933595       -9.2969422861       29.8676203535  W2        24988           0.0000000000
     72702     24234  TIP3      H2              8.4888733595       -9.4106122861       28.9545803535  W2        24988           0.0000000000
     72703     24235  TIP3      OH2            20.0573033595      -12.1336222861       34.8775703535  W2        24989           0.0000000000
     72704     24235  TIP3      H1             19.3687633595      -11.4755522861       34.7822303535  W2        24989           0.0000000000
     72705     24235  TIP3      H2             20.0727633595      -12.3308322861       35.8141103535  W2        24989           0.0000000000
     72706     24236  TIP3      OH2             6.1085833595      -13.7993522861       33.4550103535  W2        24990           0.0000000000
     72707     24236  TIP3      H1              5.8897533595      -13.2692922861       32.6886103535  W2        24990           0.0000000000
     72708     24236  TIP3      H2              5.4406733595      -13.5728022861       34.1021503535  W2        24990           0.0000000000
     72709     24237  TIP3      OH2            13.4775633595       -4.2992422861       26.9989203535  W2        24991           0.0000000000
     72710     24237  TIP3      H1             13.1820733595       -4.6220122861       26.1476103535  W2        24991           0.0000000000
     72711     24237  TIP3      H2             13.1533433595       -3.3995722861       27.0401803535  W2        24991           0.0000000000
     72712     24238  TIP3      OH2             8.6777233595       -6.1237822861       33.7423803535  W2        24992           0.0000000000
     72713     24238  TIP3      H1              7.9376333595       -5.5256322861       33.8459003535  W2        24992           0.0000000000
     72714     24238  TIP3      H2              9.3916733595       -5.5698222861       33.4267403535  W2        24992           0.0000000000
     72715     24239  TIP3      OH2            16.7845033595      -13.2957022861       29.7623503535  W2        24993           0.0000000000
     72716     24239  TIP3      H1             16.5693033595      -14.0613622861       30.2949503535  W2        24993           0.0000000000
     72717     24239  TIP3      H2             17.4402433595      -12.8232422861       30.2752003535  W2        24993           0.0000000000
     72718     24240  TIP3      OH2             5.7023133595      -11.9071722861       31.4072303535  W2        24994           0.0000000000
     72719     24240  TIP3      H1              6.3159433595      -11.2744122861       31.7804703535  W2        24994           0.0000000000
     72720     24240  TIP3      H2              6.2143833595      -12.3796722861       30.7509203535  W2        24994           0.0000000000
     72721     24241  TIP3      OH2             7.0851533595       -4.1594822861       34.5295303535  W2        24995           0.0000000000
     72722     24241  TIP3      H1              7.0799133595       -3.2801322861       34.1514603535  W2        24995           0.0000000000
     72723     24241  TIP3      H2              6.2315633595       -4.2430722861       34.9545203535  W2        24995           0.0000000000
     72724     24242  TIP3      OH2             3.2062433595       -4.4886922861       25.3114603535  W2        24996           0.0000000000
     72725     24242  TIP3      H1              2.9343333595       -4.2595922861       24.4227503535  W2        24996           0.0000000000
     72726     24242  TIP3      H2              3.2518133595       -3.6508122861       25.7719903535  W2        24996           0.0000000000
     72727     24243  TIP3      OH2            16.8312133595       -2.8671022861       32.0243103535  W2        24997           0.0000000000
     72728     24243  TIP3      H1             15.8895833595       -2.8087122861       32.1860003535  W2        24997           0.0000000000
     72729     24243  TIP3      H2             17.1078233595       -1.9610522861       31.8872803535  W2        24997           0.0000000000
     72730     24244  TIP3      OH2            17.1319133595      -14.5805722861       33.4417003535  W2        24998           0.0000000000
     72731     24244  TIP3      H1             16.3958333595      -13.9698622861       33.4038303535  W2        24998           0.0000000000
     72732     24244  TIP3      H2             17.8153133595      -14.1656722861       32.9153403535  W2        24998           0.0000000000
     72733     24245  TIP3      OH2            10.1350533595      -16.4938422861       30.9075003535  W2        24999           0.0000000000
     72734     24245  TIP3      H1             10.0174733595      -17.4422422861       30.8533303535  W2        24999           0.0000000000
     72735     24245  TIP3      H2              9.2800633595      -16.1612322861       31.1806103535  W2        24999           0.0000000000
     72736     24246  TIP3      OH2            15.0833333595       -1.0857522861       28.6494703535  W2        25000           0.0000000000
     72737     24246  TIP3      H1             15.5085633595       -1.7929622861       28.1644303535  W2        25000           0.0000000000
     72738     24246  TIP3      H2             15.4003333595       -0.2844822861       28.2326903535  W2        25000           0.0000000000
     72739     24247  TIP3      OH2            16.2429833595       -3.1849022861       27.1581303535  W2        25001           0.0000000000
     72740     24247  TIP3      H1             15.9854633595       -3.8748922861       26.5467203535  W2        25001           0.0000000000
     72741     24247  TIP3      H2             16.3140633595       -3.6277822861       28.0037203535  W2        25001           0.0000000000
     72742     24248  TIP3      OH2            12.4015433595       -7.6562822861       25.4080803535  W2        25003           0.0000000000
     72743     24248  TIP3      H1             11.6900933595       -7.1213122861       25.0561303535  W2        25003           0.0000000000
     72744     24248  TIP3      H2             13.0925033595       -7.6010722861       24.7479703535  W2        25003           0.0000000000
     72745     24249  TIP3      OH2            12.4554633595       -9.1988522861       22.4465803535  W2        25004           0.0000000000
     72746     24249  TIP3      H1             13.1564533595       -9.1761622861       23.0979803535  W2        25004           0.0000000000
     72747     24249  TIP3      H2             12.7577533595       -9.8268822861       21.7905103535  W2        25004           0.0000000000
     72748     24250  TIP3      OH2            19.7709333595       -8.2784322861       33.7015203535  W2        25005           0.0000000000
     72749     24250  TIP3      H1             19.1183433595       -7.5838722861       33.7906103535  W2        25005           0.0000000000
     72750     24250  TIP3      H2             20.2359633595       -8.0683422861       32.8916803535  W2        25005           0.0000000000
     72751     24251  TIP3      OH2            15.8073133595       -7.4469522861       26.3596703535  W2        25006           0.0000000000
     72752     24251  TIP3      H1             15.0754133595       -7.2185822861       26.9327303535  W2        25006           0.0000000000
     72753     24251  TIP3      H2             16.2545333595       -8.1606822861       26.8144203535  W2        25006           0.0000000000
     72754     24252  TIP3      OH2            15.7046633595       -9.2726922861       35.4273703535  W2        25007           0.0000000000
     72755     24252  TIP3      H1             15.7845733595       -8.5092522861       35.9992203535  W2        25007           0.0000000000
     72756     24252  TIP3      H2             15.1034333595       -8.9934522861       34.7368803535  W2        25007           0.0000000000
     72757     24253  TIP3      OH2             7.4526833595       -6.8163322861       28.2421703535  W2        25008           0.0000000000
     72758     24253  TIP3      H1              7.1222033595       -7.1869922861       27.4238703535  W2        25008           0.0000000000
     72759     24253  TIP3      H2              8.0410933595       -7.4869322861       28.5890003535  W2        25008           0.0000000000
     72760     24254  TIP3      OH2             8.8194333595       -3.3882722861       30.9233903535  W2        25009           0.0000000000
     72761     24254  TIP3      H1              8.7245633595       -3.9669622861       30.1668503535  W2        25009           0.0000000000
     72762     24254  TIP3      H2              9.5487933595       -3.7597022861       31.4196703535  W2        25009           0.0000000000
     72763     24255  TIP3      OH2             7.8192333595       -8.0477722861       31.8756703535  W2        25010           0.0000000000
     72764     24255  TIP3      H1              8.3844833595       -7.9263522861       31.1127903535  W2        25010           0.0000000000
     72765     24255  TIP3      H2              8.1381233595       -7.4102722861       32.5145203535  W2        25010           0.0000000000
     72766     24256  TIP3      OH2            14.1284533595       -2.5445822861       32.6097203535  W2        25011           0.0000000000
     72767     24256  TIP3      H1             13.8881133595       -1.8822722861       33.2576403535  W2        25011           0.0000000000
     72768     24256  TIP3      H2             13.9302733595       -3.3790622861       33.0346803535  W2        25011           0.0000000000
     72769     24257  TIP3      OH2            14.6782633595       -8.2846622861       24.0447903535  W2        25013           0.0000000000
     72770     24257  TIP3      H1             15.2578133595       -8.1346322861       24.7916803535  W2        25013           0.0000000000
     72771     24257  TIP3      H2             15.0922633595       -7.8139222861       23.3214303535  W2        25013           0.0000000000
     72772     24258  TIP3      OH2            12.4047533595       -1.5478122861       27.4801003535  W2        25015           0.0000000000
     72773     24258  TIP3      H1             12.8785133595       -1.2521822861       28.2575203535  W2        25015           0.0000000000
     72774     24258  TIP3      H2             11.8416833595       -0.8096522861       27.2470603535  W2        25015           0.0000000000
     72775     24259  TIP3      OH2            18.3771033595      -16.5346222861       23.8577603535  W2        25017           0.0000000000
     72776     24259  TIP3      H1             17.4771733595      -16.3957222861       24.1528203535  W2        25017           0.0000000000
     72777     24259  TIP3      H2             18.6289433595      -15.7031622861       23.4559303535  W2        25017           0.0000000000
     72778     24260  TIP3      OH2             6.4429533595       -7.7469022861       25.8314503535  W2        25018           0.0000000000
     72779     24260  TIP3      H1              6.1510833595       -6.9787322861       25.3405803535  W2        25018           0.0000000000
     72780     24260  TIP3      H2              5.7684733595       -8.4062822861       25.6685903535  W2        25018           0.0000000000
     72781     24261  TIP3      OH2            19.5662433595       -2.1683822861       22.2341503535  W2        25019           0.0000000000
     72782     24261  TIP3      H1             19.6395933595       -1.2293622861       22.4046803535  W2        25019           0.0000000000
     72783     24261  TIP3      H2             20.4717533595       -2.4735222861       22.1778803535  W2        25019           0.0000000000
     72784     24262  TIP3      OH2             2.5359633595       -5.3839822861       34.6464303535  W2        25020           0.0000000000
     72785     24262  TIP3      H1              2.0348033595       -5.4120422861       33.8314003535  W2        25020           0.0000000000
     72786     24262  TIP3      H2              2.5413333595       -6.2896622861       34.9561603535  W2        25020           0.0000000000
     72787     24263  TIP3      OH2             2.2862333595       -2.6036022861       31.5304503535  W2        25021           0.0000000000
     72788     24263  TIP3      H1              3.2322933595       -2.7479022861       31.5114003535  W2        25021           0.0000000000
     72789     24263  TIP3      H2              2.1738633595       -1.8193222861       32.0675703535  W2        25021           0.0000000000
     72790     24264  TIP3      OH2            11.8770633595        1.4086577139       25.8950203535  W2        25024           0.0000000000
     72791     24264  TIP3      H1             11.8016633595        1.2873777139       24.9485403535  W2        25024           0.0000000000
     72792     24264  TIP3      H2             11.9099333595        2.3579277139       26.0134803535  W2        25024           0.0000000000
     72793     24265  TIP3      OH2             5.5304433595        0.1973577139       27.6759203535  W2        25025           0.0000000000
     72794     24265  TIP3      H1              5.6824833595       -0.1506022861       28.5545703535  W2        25025           0.0000000000
     72795     24265  TIP3      H2              4.6794833595       -0.1589122861       27.4206403535  W2        25025           0.0000000000
     72796     24266  TIP3      OH2            14.9786633595        0.5626777139       22.8972603535  W2        25026           0.0000000000
     72797     24266  TIP3      H1             15.3535033595       -0.1817122861       22.4265203535  W2        25026           0.0000000000
     72798     24266  TIP3      H2             14.9830333595        0.2927377139       23.8155903535  W2        25026           0.0000000000
     72799     24267  TIP3      OH2            14.6474733595        0.4883877139       25.6464803535  W2        25027           0.0000000000
     72800     24267  TIP3      H1             13.7124533595        0.5885777139       25.8251803535  W2        25027           0.0000000000
     72801     24267  TIP3      H2             14.9276633595       -0.2210122861       26.2248003535  W2        25027           0.0000000000
     72802     24268  TIP3      OH2             7.4038133595      -15.5903922861       31.6851303535  W2        25030           0.0000000000
     72803     24268  TIP3      H1              6.5421833595      -15.6775722861       31.2774203535  W2        25030           0.0000000000
     72804     24268  TIP3      H2              7.3813833595      -14.7343822861       32.1128903535  W2        25030           0.0000000000
     72805     24269  TIP3      OH2            12.0665933595      -15.8683522861       35.0598303535  W2        25031           0.0000000000
     72806     24269  TIP3      H1             12.4869033595      -16.2836422861       35.8128903535  W2        25031           0.0000000000
     72807     24269  TIP3      H2             11.1335533595      -16.0470222861       35.1770303535  W2        25031           0.0000000000
     72808     24270  TIP3      OH2            16.1555733595       -7.2518322861       21.6745803535  W2        25033           0.0000000000
     72809     24270  TIP3      H1             16.1976533595       -7.4744422861       20.7445803535  W2        25033           0.0000000000
     72810     24270  TIP3      H2             17.0047833595       -6.8531222861       21.8645703535  W2        25033           0.0000000000
     72811     24271  TIP3      OH2            11.7283233595      -13.3760122861       22.3449103535  W2        25034           0.0000000000
     72812     24271  TIP3      H1             11.4748033595      -13.3568522861       23.2677203535  W2        25034           0.0000000000
     72813     24271  TIP3      H2             11.4715333595      -14.2474722861       22.0435303535  W2        25034           0.0000000000
     72814     24272  TIP3      OH2             7.4948233595      -10.6249422861       32.7801503535  W2        25035           0.0000000000
     72815     24272  TIP3      H1              6.8530333595      -10.6652122861       33.4891603535  W2        25035           0.0000000000
     72816     24272  TIP3      H2              7.5320233595       -9.6984722861       32.5424503535  W2        25035           0.0000000000
     72817     24273  TIP3      OH2             7.4917333595      -10.4039322861       27.6921503535  W2        25036           0.0000000000
     72818     24273  TIP3      H1              6.5990233595      -10.7443222861       27.6335303535  W2        25036           0.0000000000
     72819     24273  TIP3      H2              7.9423933595      -10.7808422861       26.9364703535  W2        25036           0.0000000000
     72820     24274  TIP3      OH2            13.0272833595       -9.9879022861       26.5092303535  W2        25037           0.0000000000
     72821     24274  TIP3      H1             12.6183133595       -9.1730422861       26.2177103535  W2        25037           0.0000000000
     72822     24274  TIP3      H2             13.7479033595      -10.1278922861       25.8949403535  W2        25037           0.0000000000
     72823     24275  TIP3      OH2            14.0320533595      -10.5418622861       29.3232003535  W2        25039           0.0000000000
     72824     24275  TIP3      H1             13.8365033595       -9.9361822861       28.6082603535  W2        25039           0.0000000000
     72825     24275  TIP3      H2             14.2133133595      -11.3753422861       28.8888303535  W2        25039           0.0000000000
     72826     24276  TIP3      OH2             5.2448733595      -10.3045922861       34.6473503535  W2        25040           0.0000000000
     72827     24276  TIP3      H1              5.2068133595       -9.9044322861       35.5160603535  W2        25040           0.0000000000
     72828     24276  TIP3      H2              4.7539833595      -11.1213522861       34.7376403535  W2        25040           0.0000000000
     72829     24277  TIP3      OH2             8.6106133595      -12.9303622861       21.4459503535  W2        25041           0.0000000000
     72830     24277  TIP3      H1              8.1796833595      -13.3753522861       22.1756903535  W2        25041           0.0000000000
     72831     24277  TIP3      H2              7.8924833595      -12.5587322861       20.9337003535  W2        25041           0.0000000000
     72832     24278  TIP3      OH2             1.8529533595      -13.1884122861       28.4978203535  W2        25042           0.0000000000
     72833     24278  TIP3      H1              2.4837233595      -13.2172022861       29.2172103535  W2        25042           0.0000000000
     72834     24278  TIP3      H2              2.3023833595      -13.6135422861       27.7674103535  W2        25042           0.0000000000
     72835     24279  TIP3      OH2             3.1271633595      -12.4422122861       23.9218603535  W2        25043           0.0000000000
     72836     24279  TIP3      H1              3.6013333595      -11.8512222861       23.3369503535  W2        25043           0.0000000000
     72837     24279  TIP3      H2              2.4098033595      -11.9119222861       24.2688703535  W2        25043           0.0000000000
     72838     24280  TIP3      OH2            13.2959733595       -8.9037322861       33.9944403535  W2        25044           0.0000000000
     72839     24280  TIP3      H1             13.6194533595       -9.5347622861       33.3514903535  W2        25044           0.0000000000
     72840     24280  TIP3      H2             12.8559033595       -9.4385122861       34.6551803535  W2        25044           0.0000000000
     72841     24281  TIP3      OH2            10.0732633595      -12.9761822861       28.7785603535  W2        25045           0.0000000000
     72842     24281  TIP3      H1              9.1623733595      -12.9195022861       29.0671603535  W2        25045           0.0000000000
     72843     24281  TIP3      H2             10.5785533595      -13.0366322861       29.5892803535  W2        25045           0.0000000000
     72844     24282  TIP3      OH2             4.9016033595      -11.3475522861       27.6053203535  W2        25046           0.0000000000
     72845     24282  TIP3      H1              4.0124033595      -11.2480022861       27.2652803535  W2        25046           0.0000000000
     72846     24282  TIP3      H2              5.1980933595      -12.1892522861       27.2591103535  W2        25046           0.0000000000
     72847     24283  TIP3      OH2             8.5547833595      -11.3472922861       25.2617803535  W2        25047           0.0000000000
     72848     24283  TIP3      H1              9.4863333595      -11.2182922861       25.4400903535  W2        25047           0.0000000000
     72849     24283  TIP3      H2              8.3398133595      -10.6778622861       24.6122503535  W2        25047           0.0000000000
     72850     24284  TIP3      OH2            14.4784533595      -13.7415522861       32.0427403535  W2        25048           0.0000000000
     72851     24284  TIP3      H1             13.8016133595      -13.6102422861       32.7067103535  W2        25048           0.0000000000
     72852     24284  TIP3      H2             13.9929433595      -13.8966022861       31.2325103535  W2        25048           0.0000000000
     72853     24285  TIP3      OH2             7.2288033595      -10.1530722861       22.8283903535  W2        25049           0.0000000000
     72854     24285  TIP3      H1              6.6863133595      -10.5326922861       22.1371503535  W2        25049           0.0000000000
     72855     24285  TIP3      H2              8.0622933595       -9.9586022861       22.3998003535  W2        25049           0.0000000000
     72856     24286  TIP3      OH2            11.3932333595      -10.1888822861       30.6655203535  W2        25052           0.0000000000
     72857     24286  TIP3      H1             11.9575733595      -10.7352222861       30.1184803535  W2        25052           0.0000000000
     72858     24286  TIP3      H2             11.2455733595      -10.7106922861       31.4542803535  W2        25052           0.0000000000
     72859     24287  TIP3      OH2             6.3952033595      -14.0522722861       27.0840003535  W2        25053           0.0000000000
     72860     24287  TIP3      H1              6.0781533595      -14.9547422861       27.0485403535  W2        25053           0.0000000000
     72861     24287  TIP3      H2              7.1766133595      -14.0505322861       26.5311603535  W2        25053           0.0000000000
     72862     24288  TIP3      OH2            10.0198233595      -11.8002722861       33.0795603535  W2        25054           0.0000000000
     72863     24288  TIP3      H1              9.1843533595      -11.3463222861       33.1898003535  W2        25054           0.0000000000
     72864     24288  TIP3      H2             10.5438833595      -11.5244222861       33.8315503535  W2        25054           0.0000000000
     72865     24289  TIP3      OH2            10.5640833595       -5.5875022861       24.7642003535  W2        25055           0.0000000000
     72866     24289  TIP3      H1              9.8191833595       -6.0949722861       24.4419903535  W2        25055           0.0000000000
     72867     24289  TIP3      H2             10.4298033595       -5.5387022861       25.7106803535  W2        25055           0.0000000000
     72868     24290  TIP3      OH2            17.7139733595       -6.4546822861       33.5509603535  W2        25056           0.0000000000
     72869     24290  TIP3      H1             18.3558533595       -5.9980522861       33.0071803535  W2        25056           0.0000000000
     72870     24290  TIP3      H2             16.8836633595       -6.3414422861       33.0883703535  W2        25056           0.0000000000
     72871     24291  TIP3      OH2            14.4617633595      -12.7735122861       22.9634603535  W2        25057           0.0000000000
     72872     24291  TIP3      H1             13.5231833595      -12.6619522861       22.8123403535  W2        25057           0.0000000000
     72873     24291  TIP3      H2             14.7589733595      -11.9168222861       23.2700303535  W2        25057           0.0000000000
     72874     24292  TIP3      OH2            15.1801133595      -10.9062422861       24.6242003535  W2        25059           0.0000000000
     72875     24292  TIP3      H1             16.0720133595      -11.0437422861       24.9433203535  W2        25059           0.0000000000
     72876     24292  TIP3      H2             15.2364733595      -10.1156322861       24.0875503535  W2        25059           0.0000000000
     72877     24293  TIP3      OH2             5.6889133595       -6.2925022861       30.5339903535  W2        25060           0.0000000000
     72878     24293  TIP3      H1              6.4336333595       -6.2949322861       29.9326403535  W2        25060           0.0000000000
     72879     24293  TIP3      H2              5.7665733595       -7.1161222861       31.0155003535  W2        25060           0.0000000000
     72880     24294  TIP3      OH2            12.6894933595       -4.1290722861       23.7896603535  W2        25061           0.0000000000
     72881     24294  TIP3      H1             12.3943333595       -3.3022822861       24.1711403535  W2        25061           0.0000000000
     72882     24294  TIP3      H2             11.9864933595       -4.7483822861       23.9858003535  W2        25061           0.0000000000
     72883     24295  TIP3      OH2            20.0649833595      -10.6968322861       24.3188703535  W2        25065           0.0000000000
     72884     24295  TIP3      H1             19.5106133595      -11.0930322861       23.6466203535  W2        25065           0.0000000000
     72885     24295  TIP3      H2             20.1653433595       -9.7863122861       24.0412003535  W2        25065           0.0000000000
     72886     24296  TIP3      OH2            18.3601533595       -1.9107922861       24.7840803535  W2        25067           0.0000000000
     72887     24296  TIP3      H1             17.9872633595       -2.7364122861       25.0931403535  W2        25067           0.0000000000
     72888     24296  TIP3      H2             18.6375033595       -2.0938522861       23.8864203535  W2        25067           0.0000000000
     72889     24297  TIP3      OH2            15.5205433595       -7.1028422861       31.8052703535  W2        25068           0.0000000000
     72890     24297  TIP3      H1             14.5922333595       -7.3346522861       31.7782003535  W2        25068           0.0000000000
     72891     24297  TIP3      H2             15.9716533595       -7.8798622861       31.4751503535  W2        25068           0.0000000000
     72892     24298  TIP3      OH2             8.0638533595       -2.7746822861       27.9381403535  W2        25069           0.0000000000
     72893     24298  TIP3      H1              8.5910733595       -2.0012422861       27.7380203535  W2        25069           0.0000000000
     72894     24298  TIP3      H2              7.1837033595       -2.5497622861       27.6365403535  W2        25069           0.0000000000
     72895     24299  TIP3      OH2             3.8186233595       -7.9122722861       22.5253803535  W2        25070           0.0000000000
     72896     24299  TIP3      H1              4.4346133595       -7.2855522861       22.9048603535  W2        25070           0.0000000000
     72897     24299  TIP3      H2              2.9568833595       -7.5962922861       22.7970303535  W2        25070           0.0000000000
     72898     24300  TIP3      OH2             9.4910833595       -5.1116922861       27.5145703535  W2        25071           0.0000000000
     72899     24300  TIP3      H1              9.2500833595       -4.1862522861       27.5561003535  W2        25071           0.0000000000
     72900     24300  TIP3      H2              8.7504433595       -5.5705622861       27.9109603535  W2        25071           0.0000000000
     72901     24301  TIP3      OH2            10.0057433595       -0.9623322861       33.8296803535  W2        25072           0.0000000000
     72902     24301  TIP3      H1             10.3682133595       -0.1077722861       33.5961203535  W2        25072           0.0000000000
     72903     24301  TIP3      H2             10.5372633595       -1.2541722861       34.5703103535  W2        25072           0.0000000000
     72904     24302  TIP3      OH2             8.1741633595       -0.0899322861       27.0597903535  W2        25073           0.0000000000
     72905     24302  TIP3      H1              7.2242133595        0.0158077139       27.1111203535  W2        25073           0.0000000000
     72906     24302  TIP3      H2              8.5259733595        0.7308077139       27.4045403535  W2        25073           0.0000000000
     72907     24303  TIP3      OH2            13.5498233595       -4.8632622861       33.5302403535  W2        25074           0.0000000000
     72908     24303  TIP3      H1             13.1239533595       -5.0910922861       34.3566403535  W2        25074           0.0000000000
     72909     24303  TIP3      H2             14.1304033595       -5.6020822861       33.3477703535  W2        25074           0.0000000000
     72910     24304  TIP3      OH2            15.7527133595       -3.9342122861       22.6041403535  W2        25075           0.0000000000
     72911     24304  TIP3      H1             16.1060233595       -4.3142322861       23.4084903535  W2        25075           0.0000000000
     72912     24304  TIP3      H2             14.8040633595       -4.0277322861       22.6910703535  W2        25075           0.0000000000
     72913     24305  TIP3      OH2            20.2561533595        0.5450377139       22.8051603535  W2        25077           0.0000000000
     72914     24305  TIP3      H1             20.9999433595        1.1310877139       22.6653203535  W2        25077           0.0000000000
     72915     24305  TIP3      H2             19.5619633595        1.1136177139       23.1384003535  W2        25077           0.0000000000
     72916     24306  TIP3      OH2             4.3308333595      -13.0785422861       35.4069803535  W2        25078           0.0000000000
     72917     24306  TIP3      H1              3.4380633595      -12.7400022861       35.3393803535  W2        25078           0.0000000000
     72918     24306  TIP3      H2              4.2321133595      -13.9339322861       35.8250603535  W2        25078           0.0000000000
     72919     24307  TIP3      OH2            16.6186433595       -5.2620122861       24.8309303535  W2        25079           0.0000000000
     72920     24307  TIP3      H1             16.3414033595       -5.9900822861       25.3870403535  W2        25079           0.0000000000
     72921     24307  TIP3      H2             17.5459433595       -5.1428122861       25.0361903535  W2        25079           0.0000000000
     72922     24308  TIP3      OH2             3.9820333595       -1.2741022861       33.8419203535  W2        25080           0.0000000000
     72923     24308  TIP3      H1              4.1990633595       -2.2058622861       33.8108903535  W2        25080           0.0000000000
     72924     24308  TIP3      H2              4.2283833595       -0.9996022861       34.7252003535  W2        25080           0.0000000000
     72925     24309  TIP3      OH2             9.8434933595       -2.8226022861       21.0511403535  W2        25081           0.0000000000
     72926     24309  TIP3      H1             10.0824733595       -3.5707922861       20.5040303535  W2        25081           0.0000000000
     72927     24309  TIP3      H2              9.5746233595       -3.2104322861       21.8839203535  W2        25081           0.0000000000
     72928     24310  TIP3      OH2             8.7805533595       -3.2522222861       23.5074003535  W2        25082           0.0000000000
     72929     24310  TIP3      H1              8.9273533595       -3.7722422861       24.2974903535  W2        25082           0.0000000000
     72930     24310  TIP3      H2              8.7777233595       -2.3454622861       23.8139903535  W2        25082           0.0000000000
     72931     24311  TIP3      OH2             5.2336633595       -5.9998922861       24.0179403535  W2        25083           0.0000000000
     72932     24311  TIP3      H1              4.5475933595       -5.6476422861       24.5849103535  W2        25083           0.0000000000
     72933     24311  TIP3      H2              5.7564533595       -5.2369322861       23.7713703535  W2        25083           0.0000000000
     72934     24312  TIP3      OH2            13.0651733595      -13.3375122861       34.2968403535  W2        25084           0.0000000000
     72935     24312  TIP3      H1             13.7639633595      -13.2636422861       34.9468103535  W2        25084           0.0000000000
     72936     24312  TIP3      H2             12.6843133595      -14.2020122861       34.4511303535  W2        25084           0.0000000000
     72937     24313  TIP3      OH2            13.8496633595      -13.6853422861       25.3940703535  W2        25085           0.0000000000
     72938     24313  TIP3      H1             14.0694933595      -13.2138022861       24.5906103535  W2        25085           0.0000000000
     72939     24313  TIP3      H2             14.4080633595      -13.2910822861       26.0641303535  W2        25085           0.0000000000
     72940     24314  TIP3      OH2            11.5182733595       -1.5548622861       24.2568203535  W2        25086           0.0000000000
     72941     24314  TIP3      H1             10.7018833595       -1.0578922861       24.3092503535  W2        25086           0.0000000000
     72942     24314  TIP3      H2             12.0479033595       -1.0795122861       23.6167003535  W2        25086           0.0000000000
     72943     24315  TIP3      OH2            11.0496533595      -11.9574622861       26.2289103535  W2        25087           0.0000000000
     72944     24315  TIP3      H1             11.8619133595      -11.4531422861       26.2750803535  W2        25087           0.0000000000
     72945     24315  TIP3      H2             10.8049533595      -12.1024922861       27.1428703535  W2        25087           0.0000000000
     72946     24316  TIP3      OH2            11.5852933595      -10.9711922861       35.4135703535  W2        25088           0.0000000000
     72947     24316  TIP3      H1             11.7043233595      -10.3976522861       36.1706103535  W2        25088           0.0000000000
     72948     24316  TIP3      H2             12.2407533595      -11.6592522861       35.5283503535  W2        25088           0.0000000000
     72949     24317  TIP3      OH2            11.9333233595      -14.8761622861       27.1670203535  W2        25089           0.0000000000
     72950     24317  TIP3      H1             11.5866733595      -14.2591022861       27.8114503535  W2        25089           0.0000000000
     72951     24317  TIP3      H2             12.5920133595      -14.3755922861       26.6855703535  W2        25089           0.0000000000
     72952     24318  TIP3      OH2             8.8565833595       -0.5111422861       24.2385103535  W2        25090           0.0000000000
     72953     24318  TIP3      H1              9.0174533595        0.2886077139       23.7377703535  W2        25090           0.0000000000
     72954     24318  TIP3      H2              8.6593633595       -0.2045422861       25.1235703535  W2        25090           0.0000000000
     72955     24319  TIP3      OH2             7.5910233595      -13.8132222861       23.8542703535  W2        25091           0.0000000000
     72956     24319  TIP3      H1              7.5075033595      -12.9249122861       24.2009103535  W2        25091           0.0000000000
     72957     24319  TIP3      H2              8.4810533595      -14.0785522861       24.0859503535  W2        25091           0.0000000000
     72958     24320  TIP3      OH2            16.3919733595       -9.3140622861       30.3442703535  W2        25093           0.0000000000
     72959     24320  TIP3      H1             15.5944133595       -9.7290422861       30.0157703535  W2        25093           0.0000000000
     72960     24320  TIP3      H2             16.8370833595      -10.0046922861       30.8353203535  W2        25093           0.0000000000
     72961     24321  TIP3      OH2             5.8495533595       -3.3860022861       22.9147203535  W2        25094           0.0000000000
     72962     24321  TIP3      H1              6.4417033595       -2.6865222861       23.1909603535  W2        25094           0.0000000000
     72963     24321  TIP3      H2              6.3088533595       -3.8190522861       22.1951803535  W2        25094           0.0000000000
     72964     24322  TIP3      OH2             4.1654733595      -10.7217022861       22.0306603535  W2        25095           0.0000000000
     72965     24322  TIP3      H1              4.1207333595       -9.7823922861       22.2093603535  W2        25095           0.0000000000
     72966     24322  TIP3      H2              3.2777933595      -10.9572122861       21.7608703535  W2        25095           0.0000000000
     72967     24323  TIP3      OH2            17.4784333595       -0.0578122861       31.9666203535  W2        25096           0.0000000000
     72968     24323  TIP3      H1             17.3228633595        0.6206277139       31.3095503535  W2        25096           0.0000000000
     72969     24323  TIP3      H2             18.4110733595        0.0141177139       32.1696803535  W2        25096           0.0000000000
     72970     24324  TIP3      OH2             4.9736733595      -15.9400422861       30.7037603535  W2        25097           0.0000000000
     72971     24324  TIP3      H1              4.7446533595      -15.8807922861       29.7762603535  W2        25097           0.0000000000
     72972     24324  TIP3      H2              4.5310133595      -16.7314922861       31.0101703535  W2        25097           0.0000000000
     72973     24325  TIP3      OH2             3.9040033595       -1.9993322861       26.8643403535  W2        25098           0.0000000000
     72974     24325  TIP3      H1              3.0718633595       -1.5270622861       26.8914803535  W2        25098           0.0000000000
     72975     24325  TIP3      H2              4.4498333595       -1.4895722861       26.2656503535  W2        25098           0.0000000000
     72976     24326  TIP3      OH2            11.8816733595       -0.9594622861       21.1897403535  W2        25101           0.0000000000
     72977     24326  TIP3      H1             11.2377733595       -1.5906022861       21.5111103535  W2        25101           0.0000000000
     72978     24326  TIP3      H2             12.6435033595       -1.4906622861       20.9580903535  W2        25101           0.0000000000
     72979     24327  TIP3      OH2            16.4859633595       -1.1424722861       21.4235403535  W2        25103           0.0000000000
     72980     24327  TIP3      H1             16.7690033595       -1.9369522861       21.8762303535  W2        25103           0.0000000000
     72981     24327  TIP3      H2             17.2257533595       -0.9093722861       20.8626503535  W2        25103           0.0000000000
     72982     24328  TIP3      OH2             7.4406933595       -5.2329822861       21.2810303535  W2        25105           0.0000000000
     72983     24328  TIP3      H1              7.5051033595       -6.0270222861       21.8116703535  W2        25105           0.0000000000
     72984     24328  TIP3      H2              8.0936133595       -5.3517022861       20.5912303535  W2        25105           0.0000000000
     72985     24329  TIP3      OH2            12.7930333595       -4.1858122861       21.0168303535  W2        25107           0.0000000000
     72986     24329  TIP3      H1             12.5244433595       -4.0056022861       21.9177203535  W2        25107           0.0000000000
     72987     24329  TIP3      H2             12.5865933595       -5.1111922861       20.8854103535  W2        25107           0.0000000000
     72988     24330  TIP3      OH2             8.5900733595       -7.2603622861       23.5868303535  W2        25110           0.0000000000
     72989     24330  TIP3      H1              8.1302733595       -7.7445322861       24.2726803535  W2        25110           0.0000000000
     72990     24330  TIP3      H2              8.8449433595       -7.9288222861       22.9508803535  W2        25110           0.0000000000
     72991     24331  TIP3      OH2             9.6611133595       -9.0171822861       21.8491503535  W2        25112           0.0000000000
     72992     24331  TIP3      H1              9.4806133595       -9.1720622861       20.9219803535  W2        25112           0.0000000000
     72993     24331  TIP3      H2             10.6111633595       -8.9093122861       21.8939403535  W2        25112           0.0000000000
     72994     24332  TIP3      OH2            19.0509433595       -6.6627622861       21.2949603535  W2        25114           0.0000000000
     72995     24332  TIP3      H1             18.7774233595       -7.0872122861       20.4817903535  W2        25114           0.0000000000
     72996     24332  TIP3      H2             19.0903533595       -5.7313122861       21.0780003535  W2        25114           0.0000000000
     72997     24333  TIP3      OH2             8.6309433595      -13.6429922861       34.5178403535  W2        25116           0.0000000000
     72998     24333  TIP3      H1              9.1666933595      -13.1913222861       33.8657703535  W2        25116           0.0000000000
     72999     24333  TIP3      H2              7.7789033595      -13.7510122861       34.0952503535  W2        25116           0.0000000000
     73000     24334  TIP3      OH2            10.2127833595       -8.2033722861       34.7573603535  W2        25117           0.0000000000
     73001     24334  TIP3      H1             10.9632633595       -8.3596222861       34.1841403535  W2        25117           0.0000000000
     73002     24334  TIP3      H2              9.8736133595       -7.3517122861       34.4819103535  W2        25117           0.0000000000
     73003     24335  TIP3      OH2             9.4364933595      -16.1864222861       34.9492003535  W2        25121           0.0000000000
     73004     24335  TIP3      H1              9.3384533595      -15.2401022861       34.8438203535  W2        25121           0.0000000000
     73005     24335  TIP3      H2              8.6941133595      -16.5590422861       34.4735503535  W2        25121           0.0000000000
     73006     24336  TIP3      OH2             9.5582833595        1.6731877139       22.8505103535  W2        25128           0.0000000000
     73007     24336  TIP3      H1             10.4913533595        1.8310577139       22.9943503535  W2        25128           0.0000000000
     73008     24336  TIP3      H2              9.2941633595        2.3484877139       22.2256603535  W2        25128           0.0000000000
     73009     24337  TIP3      OH2             3.1267733595       -3.6904322861       22.3333203535  W2        25129           0.0000000000
     73010     24337  TIP3      H1              4.0406933595       -3.6115422861       22.6067103535  W2        25129           0.0000000000
     73011     24337  TIP3      H2              3.1340833595       -4.3774722861       21.6668803535  W2        25129           0.0000000000
     73012     24338  TIP3      OH2             1.7758333595        1.7024177139       27.4107103535  W2        25130           0.0000000000
     73013     24338  TIP3      H1              1.1285433595        1.2405877139       26.8778303535  W2        25130           0.0000000000
     73014     24338  TIP3      H2              2.1302933595        1.0307477139       27.9933303535  W2        25130           0.0000000000
     73015     24339  TIP3      OH2             2.6457533595       -0.2168822861       29.2153303535  W2        25131           0.0000000000
     73016     24339  TIP3      H1              2.3114333595       -1.0971522861       29.3873503535  W2        25131           0.0000000000
     73017     24339  TIP3      H2              2.8679933595        0.1286177139       30.0798903535  W2        25131           0.0000000000
     73018     24340  TIP3      OH2            20.1942333595        0.5927577139       32.1958103535  W2        25132           0.0000000000
     73019     24340  TIP3      H1             20.1729033595        0.7775977139       33.1347503535  W2        25132           0.0000000000
     73020     24340  TIP3      H2             20.8848533595        1.1611577139       31.8549503535  W2        25132           0.0000000000
     73021     24341  TIP3      OH2            19.7575233595        0.1598677139       35.1177203535  W2        25133           0.0000000000
     73022     24341  TIP3      H1             19.2703933595       -0.5757222861       34.7464603535  W2        25133           0.0000000000
     73023     24341  TIP3      H2             20.3067933595       -0.2337422861       35.7956603535  W2        25133           0.0000000000
     73024     24342  TIP3      OH2            19.5092233595       -5.7939522861       25.2700003535  W2        25135           0.0000000000
     73025     24342  TIP3      H1             20.3593633595       -5.3728622861       25.3971603535  W2        25135           0.0000000000
     73026     24342  TIP3      H2             19.5147333595       -6.5339422861       25.8771403535  W2        25135           0.0000000000
     73027     24343  TIP3      OH2            19.9037833595       -7.7402122861       27.0935703535  W2        25136           0.0000000000
     73028     24343  TIP3      H1             19.1772433595       -8.2199522861       27.4913303535  W2        25136           0.0000000000
     73029     24343  TIP3      H2             20.4851133595       -7.5347422861       27.8257303535  W2        25136           0.0000000000
     73030     24344  TIP3      OH2            19.6629033595       -4.9554622861       32.0413303535  W2        25137           0.0000000000
     73031     24344  TIP3      H1             20.4963233595       -5.3334622861       31.7606903535  W2        25137           0.0000000000
     73032     24344  TIP3      H2             19.7749333595       -4.0123422861       31.9222403535  W2        25137           0.0000000000
     73033     24345  TIP3      OH2            18.1491333595       -2.0777122861       34.3481703535  W2        25138           0.0000000000
     73034     24345  TIP3      H1             17.5016633595       -1.7525622861       34.9736903535  W2        25138           0.0000000000
     73035     24345  TIP3      H2             17.6315333595       -2.5179422861       33.6740003535  W2        25138           0.0000000000
     73036     24346  TIP3      OH2            20.1720933595       -7.8393622861       23.4847003535  W2        25139           0.0000000000
     73037     24346  TIP3      H1             19.6502033595       -7.4829522861       22.7657903535  W2        25139           0.0000000000
     73038     24346  TIP3      H2             20.1390133595       -7.1645822861       24.1627903535  W2        25139           0.0000000000
     73039     24347  TIP3      OH2            18.5209933595      -10.5998022861       22.0354103535  W2        25140           0.0000000000
     73040     24347  TIP3      H1             18.6174333595       -9.9331022861       21.3553803535  W2        25140           0.0000000000
     73041     24347  TIP3      H2             18.3809533595      -11.4151722861       21.5539603535  W2        25140           0.0000000000
     73042     24348  TIP3      OH2            17.6904633595       -9.2195622861       27.6564403535  W2        25141           0.0000000000
     73043     24348  TIP3      H1             17.5403433595      -10.1647022861       27.6362203535  W2        25141           0.0000000000
     73044     24348  TIP3      H2             17.3369133595       -8.9384222861       28.5003503535  W2        25141           0.0000000000
     73045     24349  TIP3      OH2             2.7257033595       -7.1413422861       31.6668203535  W2        25142           0.0000000000
     73046     24349  TIP3      H1              2.9099933595       -7.2231722861       30.7311103535  W2        25142           0.0000000000
     73047     24349  TIP3      H2              3.5749933595       -7.2656422861       32.0904603535  W2        25142           0.0000000000
     73048     24350  TIP3      OH2            17.7683733595      -13.1918222861       21.1529603535  W2        25145           0.0000000000
     73049     24350  TIP3      H1             18.3789533595      -13.5631422861       21.7897803535  W2        25145           0.0000000000
     73050     24350  TIP3      H2             16.9315233595      -13.6131322861       21.3489603535  W2        25145           0.0000000000
     73051     24351  TIP3      OH2            17.4009433595      -11.6369822861       26.1189503535  W2        25146           0.0000000000
     73052     24351  TIP3      H1             17.6806533595      -12.5439422861       26.2431203535  W2        25146           0.0000000000
     73053     24351  TIP3      H2             18.1601133595      -11.2028322861       25.7298703535  W2        25146           0.0000000000
     73054     24352  TIP3      OH2            18.0127733595      -11.0552422861       31.5548403535  W2        25147           0.0000000000
     73055     24352  TIP3      H1             18.9455733595      -10.8432522861       31.5204403535  W2        25147           0.0000000000
     73056     24352  TIP3      H2             17.7775233595      -10.9540322861       32.4771403535  W2        25147           0.0000000000
     73057     24353  TIP3      OH2            18.0419633595      -10.3187122861       34.3307803535  W2        25148           0.0000000000
     73058     24353  TIP3      H1             17.1990933595      -10.0506722861       34.6967603535  W2        25148           0.0000000000
     73059     24353  TIP3      H2             18.4843933595       -9.4965222861       34.1198903535  W2        25148           0.0000000000
     73060     24354  TIP3      OH2            18.0144233595      -14.3740522861       26.1671503535  W2        25151           0.0000000000
     73061     24354  TIP3      H1             18.1969233595      -14.8229022861       26.9926503535  W2        25151           0.0000000000
     73062     24354  TIP3      H2             17.4147133595      -14.9586122861       25.7036103535  W2        25151           0.0000000000
     73063     24355  TIP3      OH2             3.5444333595      -13.5586822861       30.6989903535  W2        25152           0.0000000000
     73064     24355  TIP3      H1              3.9895933595      -14.3504322861       31.0009603535  W2        25152           0.0000000000
     73065     24355  TIP3      H2              4.0107333595      -12.8421622861       31.1295503535  W2        25152           0.0000000000
     73066     24356  TIP3      OH2             1.8484633595      -10.5593822861       31.7680103535  W2        25153           0.0000000000
     73067     24356  TIP3      H1              2.3404433595      -10.7803322861       30.9772103535  W2        25153           0.0000000000
     73068     24356  TIP3      H2              2.2105533595       -9.7190422861       32.0489603535  W2        25153           0.0000000000
     73069     24357  TIP3      OH2            19.8810433595      -14.3062422861       22.6951803535  W2        25155           0.0000000000
     73070     24357  TIP3      H1             20.2933033595      -15.0276722861       22.2199803535  W2        25155           0.0000000000
     73071     24357  TIP3      H2             20.5626933595      -13.6367822861       22.7536103535  W2        25155           0.0000000000
     73072     24358  TIP3      OH2             2.1621133595      -14.3014722861       25.8222503535  W2        25156           0.0000000000
     73073     24358  TIP3      H1              1.2369533595      -14.0928122861       25.6928003535  W2        25156           0.0000000000
     73074     24358  TIP3      H2              2.6161033595      -13.8173922861       25.1324803535  W2        25156           0.0000000000
     73075     24359  TIP3      OH2            16.9328333595        0.6826977139       27.7679903535  W2        25157           0.0000000000
     73076     24359  TIP3      H1             17.5851233595        0.3349077139       27.1599003535  W2        25157           0.0000000000
     73077     24359  TIP3      H2             17.4432133595        1.1710177139       28.4139603535  W2        25157           0.0000000000
     73078     24360  TIP3      OH2             2.1256533595      -15.5635722861       34.1665003535  W2        25158           0.0000000000
     73079     24360  TIP3      H1              1.4607033595      -15.8095422861       34.8095903535  W2        25158           0.0000000000
     73080     24360  TIP3      H2              1.6827833595      -14.9415322861       33.5893003535  W2        25158           0.0000000000
     73081     24361  TIP3      OH2             7.2718733595       -1.4140422861       34.5694803535  W2        25160           0.0000000000
     73082     24361  TIP3      H1              6.8469833595       -0.6041922861       34.2869403535  W2        25160           0.0000000000
     73083     24361  TIP3      H2              8.1761533595       -1.3286322861       34.2674603535  W2        25160           0.0000000000
     73084     24362  TIP3      OH2             4.6735433595        1.8423477139       34.6170103535  W2        25164           0.0000000000
     73085     24362  TIP3      H1              3.9531833595        2.2824477139       34.1657803535  W2        25164           0.0000000000
     73086     24362  TIP3      H2              4.3079433595        1.5918177139       35.4654103535  W2        25164           0.0000000000
     73087     24363  TIP3      OH2             7.1408033595        1.4427377139       33.6467303535  W2        25165           0.0000000000
     73088     24363  TIP3      H1              6.2760233595        1.5145877139       34.0507403535  W2        25165           0.0000000000
     73089     24363  TIP3      H2              7.0857033595        1.9894677139       32.8629803535  W2        25165           0.0000000000
     73090     24364  TIP3      OH2            11.8513633595        1.3306277139       32.8223303535  W2        25166           0.0000000000
     73091     24364  TIP3      H1             11.3947633595        1.8595977139       32.1681703535  W2        25166           0.0000000000
     73092     24364  TIP3      H2             12.0141633595        1.9337677139       33.5475603535  W2        25166           0.0000000000
     73093     24365  TIP3      OH2            14.1789933595        0.2085877139       33.7673603535  W2        25167           0.0000000000
     73094     24365  TIP3      H1             13.2743633595        0.3736077139       33.5015703535  W2        25167           0.0000000000
     73095     24365  TIP3      H2             14.6078533595        1.0618077139       33.7017003535  W2        25167           0.0000000000
     73096     24366  TIP3      OH2            16.7831833595        1.7784977139       34.0621403535  W2        25168           0.0000000000
     73097     24366  TIP3      H1             16.6013833595        2.6943877139       33.8516303535  W2        25168           0.0000000000
     73098     24366  TIP3      H2             16.9599633595        1.3682077139       33.2156003535  W2        25168           0.0000000000
     73099     24367  TIP3      OH2             4.0883533595        0.4655977139       31.5271903535  W2        25169           0.0000000000
     73100     24367  TIP3      H1              4.0699533595        0.0401077139       32.3844203535  W2        25169           0.0000000000
     73101     24367  TIP3      H2              4.8931433595        0.1470977139       31.1184103535  W2        25169           0.0000000000
     73102     24368  TIP3      OH2             6.2296633595       -0.8245322861       30.1821803535  W2        25170           0.0000000000
     73103     24368  TIP3      H1              6.0107333595       -1.7407922861       30.3517803535  W2        25170           0.0000000000
     73104     24368  TIP3      H2              7.0538833595       -0.6844922861       30.6483203535  W2        25170           0.0000000000
     73105     24369  TIP3      OH2             8.7669133595       -0.3546022861       31.0309803535  W2        25171           0.0000000000
     73106     24369  TIP3      H1              8.9794833595       -1.2427022861       30.7440703535  W2        25171           0.0000000000
     73107     24369  TIP3      H2              8.8314233595       -0.3888322861       31.9853803535  W2        25171           0.0000000000
     73108     24370  TIP3      OH2            12.2752833595      -14.6905422861       30.1753103535  W2        25172           0.0000000000
     73109     24370  TIP3      H1             11.6009633595      -15.3199822861       30.4308903535  W2        25172           0.0000000000
     73110     24370  TIP3      H2             12.8392033595      -15.1746522861       29.5721003535  W2        25172           0.0000000000
     73111     24371  TIP3      OH2            17.4180033595      -16.5831422861       30.2880203535  W2        25173           0.0000000000
     73112     24371  TIP3      H1             18.0217633595      -16.0356022861       29.7861203535  W2        25173           0.0000000000
     73113     24371  TIP3      H2             16.5482033595      -16.2641022861       30.0474303535  W2        25173           0.0000000000
     73114     24372  TIP3      OH2            19.1450433595      -15.4442722861       28.6211103535  W2        25174           0.0000000000
     73115     24372  TIP3      H1             19.7567933595      -15.9587022861       28.0944703535  W2        25174           0.0000000000
     73116     24372  TIP3      H2             19.5273833595      -14.5670622861       28.6445503535  W2        25174           0.0000000000
     73117     24373  TIP3      OH2             4.6020333595      -16.0565122861       27.9973003535  W2        25175           0.0000000000
     73118     24373  TIP3      H1              3.8250133595      -16.2910222861       27.4898903535  W2        25175           0.0000000000
     73119     24373  TIP3      H2              5.1323933595      -16.8533022861       28.0061003535  W2        25175           0.0000000000
     73120     24374  TIP3      OH2             3.4383733595      -16.2587022861       23.8009103535  W2        25176           0.0000000000
     73121     24374  TIP3      H1              3.8774433595      -15.6476522861       23.2092603535  W2        25176           0.0000000000
     73122     24374  TIP3      H2              2.8046133595      -15.7202922861       24.2749103535  W2        25176           0.0000000000
     73123     24375  TIP3      OH2             9.1812933595      -16.1298022861       27.8106103535  W2        25177           0.0000000000
     73124     24375  TIP3      H1             10.0556333595      -15.7413722861       27.7810403535  W2        25177           0.0000000000
     73125     24375  TIP3      H2              9.0453733595      -16.3450222861       28.7333303535  W2        25177           0.0000000000
     73126     24376  TIP3      OH2            14.7381333595      -16.0998222861       29.4597803535  W2        25178           0.0000000000
     73127     24376  TIP3      H1             14.8142933595      -16.0046622861       28.5103803535  W2        25178           0.0000000000
     73128     24376  TIP3      H2             14.4630533595      -17.0075322861       29.5886903535  W2        25178           0.0000000000
     73129     24377  TIP3      OH2            16.0913933595      -16.0740422861       25.1522803535  W2        25179           0.0000000000
     73130     24377  TIP3      H1             15.3885033595      -15.4591222861       24.9424203535  W2        25179           0.0000000000
     73131     24377  TIP3      H2             15.6465333595      -16.9113722861       25.2833703535  W2        25179           0.0000000000
     73132     24378  TIP3      OH2             3.3393233595       -0.3104822861       24.6984203535  W2        25180           0.0000000000
     73133     24378  TIP3      H1              2.6543133595       -0.3485922861       24.0309303535  W2        25180           0.0000000000
     73134     24378  TIP3      H2              3.3430433595        0.6022777139       24.9866303535  W2        25180           0.0000000000
     73135     24379  TIP3      OH2             5.2992833595      -14.3425522861       22.2433203535  W2        25181           0.0000000000
     73136     24379  TIP3      H1              5.7906233595      -14.9723122861       21.7158703535  W2        25181           0.0000000000
     73137     24379  TIP3      H2              5.9229133595      -14.0466122861       22.9064403535  W2        25181           0.0000000000
     73138     24380  TIP3      OH2            10.3252933595      -14.0494022861       24.7003703535  W2        25182           0.0000000000
     73139     24380  TIP3      H1             10.5034233595      -14.6960822861       25.3832303535  W2        25182           0.0000000000
     73140     24380  TIP3      H2             10.2719133595      -13.2156322861       25.1674803535  W2        25182           0.0000000000
     73141     24381  TIP3      OH2            12.2036733595        0.8990077139       23.0960403535  W2        25183           0.0000000000
     73142     24381  TIP3      H1             13.0696933595        1.2657477139       22.9178603535  W2        25183           0.0000000000
     73143     24381  TIP3      H2             11.9569533595        0.4598077139       22.2821203535  W2        25183           0.0000000000
     73144     24382  TIP3      OH2            18.9126333595        0.4620377139       25.7751503535  W2        25184           0.0000000000
     73145     24382  TIP3      H1             18.7183433595       -0.2857522861       25.2101103535  W2        25184           0.0000000000
     73146     24382  TIP3      H2             18.8736433595        1.2200477139       25.1919403535  W2        25184           0.0000000000
     73147     24383  TIP3      OH2             5.1574433595        0.6095977139       21.7236303535  W2        25187           0.0000000000
     73148     24383  TIP3      H1              4.8899033595        0.8958877139       22.5969403535  W2        25187           0.0000000000
     73149     24383  TIP3      H2              5.9287033595        0.0635177139       21.8758803535  W2        25187           0.0000000000
     73150     24384  TIP3      OH2            32.5362933595       -6.9002822861       27.9560503535  W2        25190           0.0000000000
     73151     24384  TIP3      H1             32.6254033595       -5.9564622861       27.8237603535  W2        25190           0.0000000000
     73152     24384  TIP3      H2             31.8980533595       -7.1756422861       27.2979903535  W2        25190           0.0000000000
     73153     24385  TIP3      OH2            31.4694233595       -7.6452122861       31.3748703535  W2        25191           0.0000000000
     73154     24385  TIP3      H1             31.4311733595       -8.2915822861       32.0798303535  W2        25191           0.0000000000
     73155     24385  TIP3      H2             31.1470733595       -8.1117722861       30.6037403535  W2        25191           0.0000000000
     73156     24386  TIP3      OH2            23.8379233595       -8.0310022861       32.9678603535  W2        25192           0.0000000000
     73157     24386  TIP3      H1             23.8791333595       -8.6566722861       33.6911003535  W2        25192           0.0000000000
     73158     24386  TIP3      H2             24.5406933595       -7.4071422861       33.1499003535  W2        25192           0.0000000000
     73159     24387  TIP3      OH2            35.1754433595       -4.7061722861       29.6763803535  W2        25193           0.0000000000
     73160     24387  TIP3      H1             34.7347133595       -5.4265722861       30.1269403535  W2        25193           0.0000000000
     73161     24387  TIP3      H2             35.1624133595       -3.9854522861       30.3061503535  W2        25193           0.0000000000
     73162     24388  TIP3      OH2            24.7612333595       -3.5811122861       31.5027703535  W2        25194           0.0000000000
     73163     24388  TIP3      H1             24.3917533595       -4.3830622861       31.1332003535  W2        25194           0.0000000000
     73164     24388  TIP3      H2             25.7023433595       -3.7496222861       31.5491103535  W2        25194           0.0000000000
     73165     24389  TIP3      OH2            21.3712833595       -9.9208522861       26.8956503535  W2        25195           0.0000000000
     73166     24389  TIP3      H1             20.9236233595       -9.0749822861       26.8773003535  W2        25195           0.0000000000
     73167     24389  TIP3      H2             20.8104033595      -10.5004322861       26.3801603535  W2        25195           0.0000000000
     73168     24390  TIP3      OH2            22.0818933595       -7.7588922861       29.0214503535  W2        25196           0.0000000000
     73169     24390  TIP3      H1             22.2952433595       -8.5287322861       29.5487503535  W2        25196           0.0000000000
     73170     24390  TIP3      H2             22.8196533595       -7.6692222861       28.4182103535  W2        25196           0.0000000000
     73171     24391  TIP3      OH2            32.2869933595        0.3979977139       29.8884203535  W2        25197           0.0000000000
     73172     24391  TIP3      H1             32.9066333595       -0.2785322861       29.6153403535  W2        25197           0.0000000000
     73173     24391  TIP3      H2             32.0787333595        0.1800777139       30.7969103535  W2        25197           0.0000000000
     73174     24392  TIP3      OH2            29.8588633595       -5.2130722861       31.7809703535  W2        25198           0.0000000000
     73175     24392  TIP3      H1             30.1626533595       -5.8989322861       31.1863803535  W2        25198           0.0000000000
     73176     24392  TIP3      H2             30.5802633595       -5.0942022861       32.3987703535  W2        25198           0.0000000000
     73177     24393  TIP3      OH2            38.5218433595      -13.6115422861       32.6415903535  W2        25199           0.0000000000
     73178     24393  TIP3      H1             38.5710633595      -13.0014222861       33.3775003535  W2        25199           0.0000000000
     73179     24393  TIP3      H2             38.9473533595      -13.1504522861       31.9187003535  W2        25199           0.0000000000
     73180     24394  TIP3      OH2            32.9995633595      -10.8188322861       32.1084503535  W2        25200           0.0000000000
     73181     24394  TIP3      H1             33.1421533595      -11.7651322861       32.1286103535  W2        25200           0.0000000000
     73182     24394  TIP3      H2             32.8934633595      -10.6118522861       31.1799403535  W2        25200           0.0000000000
     73183     24395  TIP3      OH2            26.1543933595      -12.7171922861       29.3809303535  W2        25201           0.0000000000
     73184     24395  TIP3      H1             26.1975033595      -11.8573422861       28.9625603535  W2        25201           0.0000000000
     73185     24395  TIP3      H2             25.6968033595      -13.2697222861       28.7472503535  W2        25201           0.0000000000
     73186     24396  TIP3      OH2            33.8766633595      -12.5866322861       27.7817603535  W2        25202           0.0000000000
     73187     24396  TIP3      H1             34.5230933595      -12.9153122861       28.4065203535  W2        25202           0.0000000000
     73188     24396  TIP3      H2             34.3866033595      -12.0687322861       27.1589003535  W2        25202           0.0000000000
     73189     24397  TIP3      OH2            22.7745433595      -10.3206122861       30.1430703535  W2        25203           0.0000000000
     73190     24397  TIP3      H1             23.4282033595      -10.8704422861       30.5750803535  W2        25203           0.0000000000
     73191     24397  TIP3      H2             22.7984733595      -10.5947122861       29.2262703535  W2        25203           0.0000000000
     73192     24398  TIP3      OH2            27.9309933595       -8.7704822861       29.3582203535  W2        25204           0.0000000000
     73193     24398  TIP3      H1             28.5470933595       -9.2969422861       29.8676203535  W2        25204           0.0000000000
     73194     24398  TIP3      H2             27.3448733595       -9.4106122861       28.9545803535  W2        25204           0.0000000000
     73195     24399  TIP3      OH2            38.9133033595      -12.1336222861       34.8775703535  W2        25205           0.0000000000
     73196     24399  TIP3      H1             38.2247633595      -11.4755522861       34.7822303535  W2        25205           0.0000000000
     73197     24399  TIP3      H2             38.9287633595      -12.3308322861       35.8141103535  W2        25205           0.0000000000
     73198     24400  TIP3      OH2            24.9645833595      -13.7993522861       33.4550103535  W2        25206           0.0000000000
     73199     24400  TIP3      H1             24.7457533595      -13.2692922861       32.6886103535  W2        25206           0.0000000000
     73200     24400  TIP3      H2             24.2966733595      -13.5728022861       34.1021503535  W2        25206           0.0000000000
     73201     24401  TIP3      OH2            32.3335633595       -4.2992422861       26.9989203535  W2        25207           0.0000000000
     73202     24401  TIP3      H1             32.0380733595       -4.6220122861       26.1476103535  W2        25207           0.0000000000
     73203     24401  TIP3      H2             32.0093433595       -3.3995722861       27.0401803535  W2        25207           0.0000000000
     73204     24402  TIP3      OH2            27.5337233595       -6.1237822861       33.7423803535  W2        25208           0.0000000000
     73205     24402  TIP3      H1             26.7936333595       -5.5256322861       33.8459003535  W2        25208           0.0000000000
     73206     24402  TIP3      H2             28.2476733595       -5.5698222861       33.4267403535  W2        25208           0.0000000000
     73207     24403  TIP3      OH2            35.6405033595      -13.2957022861       29.7623503535  W2        25209           0.0000000000
     73208     24403  TIP3      H1             35.4253033595      -14.0613622861       30.2949503535  W2        25209           0.0000000000
     73209     24403  TIP3      H2             36.2962433595      -12.8232422861       30.2752003535  W2        25209           0.0000000000
     73210     24404  TIP3      OH2            24.5583133595      -11.9071722861       31.4072303535  W2        25210           0.0000000000
     73211     24404  TIP3      H1             25.1719433595      -11.2744122861       31.7804703535  W2        25210           0.0000000000
     73212     24404  TIP3      H2             25.0703833595      -12.3796722861       30.7509203535  W2        25210           0.0000000000
     73213     24405  TIP3      OH2            25.9411533595       -4.1594822861       34.5295303535  W2        25211           0.0000000000
     73214     24405  TIP3      H1             25.9359133595       -3.2801322861       34.1514603535  W2        25211           0.0000000000
     73215     24405  TIP3      H2             25.0875633595       -4.2430722861       34.9545203535  W2        25211           0.0000000000
     73216     24406  TIP3      OH2            22.0622433595       -4.4886922861       25.3114603535  W2        25212           0.0000000000
     73217     24406  TIP3      H1             21.7903333595       -4.2595922861       24.4227503535  W2        25212           0.0000000000
     73218     24406  TIP3      H2             22.1078133595       -3.6508122861       25.7719903535  W2        25212           0.0000000000
     73219     24407  TIP3      OH2            35.6872133595       -2.8671022861       32.0243103535  W2        25213           0.0000000000
     73220     24407  TIP3      H1             34.7455833595       -2.8087122861       32.1860003535  W2        25213           0.0000000000
     73221     24407  TIP3      H2             35.9638233595       -1.9610522861       31.8872803535  W2        25213           0.0000000000
     73222     24408  TIP3      OH2            35.9879133595      -14.5805722861       33.4417003535  W2        25214           0.0000000000
     73223     24408  TIP3      H1             35.2518333595      -13.9698622861       33.4038303535  W2        25214           0.0000000000
     73224     24408  TIP3      H2             36.6713133595      -14.1656722861       32.9153403535  W2        25214           0.0000000000
     73225     24409  TIP3      OH2            28.9910533595      -16.4938422861       30.9075003535  W2        25215           0.0000000000
     73226     24409  TIP3      H1             28.8734733595      -17.4422422861       30.8533303535  W2        25215           0.0000000000
     73227     24409  TIP3      H2             28.1360633595      -16.1612322861       31.1806103535  W2        25215           0.0000000000
     73228     24410  TIP3      OH2            33.9393333595       -1.0857522861       28.6494703535  W2        25216           0.0000000000
     73229     24410  TIP3      H1             34.3645633595       -1.7929622861       28.1644303535  W2        25216           0.0000000000
     73230     24410  TIP3      H2             34.2563333595       -0.2844822861       28.2326903535  W2        25216           0.0000000000
     73231     24411  TIP3      OH2            35.0989833595       -3.1849022861       27.1581303535  W2        25217           0.0000000000
     73232     24411  TIP3      H1             34.8414633595       -3.8748922861       26.5467203535  W2        25217           0.0000000000
     73233     24411  TIP3      H2             35.1700633595       -3.6277822861       28.0037203535  W2        25217           0.0000000000
     73234     24412  TIP3      OH2            31.2575433595       -7.6562822861       25.4080803535  W2        25219           0.0000000000
     73235     24412  TIP3      H1             30.5460933595       -7.1213122861       25.0561303535  W2        25219           0.0000000000
     73236     24412  TIP3      H2             31.9485033595       -7.6010722861       24.7479703535  W2        25219           0.0000000000
     73237     24413  TIP3      OH2            31.3114633595       -9.1988522861       22.4465803535  W2        25220           0.0000000000
     73238     24413  TIP3      H1             32.0124533595       -9.1761622861       23.0979803535  W2        25220           0.0000000000
     73239     24413  TIP3      H2             31.6137533595       -9.8268822861       21.7905103535  W2        25220           0.0000000000
     73240     24414  TIP3      OH2            38.6269333595       -8.2784322861       33.7015203535  W2        25221           0.0000000000
     73241     24414  TIP3      H1             37.9743433595       -7.5838722861       33.7906103535  W2        25221           0.0000000000
     73242     24414  TIP3      H2             39.0919633595       -8.0683422861       32.8916803535  W2        25221           0.0000000000
     73243     24415  TIP3      OH2            34.6633133595       -7.4469522861       26.3596703535  W2        25222           0.0000000000
     73244     24415  TIP3      H1             33.9314133595       -7.2185822861       26.9327303535  W2        25222           0.0000000000
     73245     24415  TIP3      H2             35.1105333595       -8.1606822861       26.8144203535  W2        25222           0.0000000000
     73246     24416  TIP3      OH2            34.5606633595       -9.2726922861       35.4273703535  W2        25223           0.0000000000
     73247     24416  TIP3      H1             34.6405733595       -8.5092522861       35.9992203535  W2        25223           0.0000000000
     73248     24416  TIP3      H2             33.9594333595       -8.9934522861       34.7368803535  W2        25223           0.0000000000
     73249     24417  TIP3      OH2            26.3086833595       -6.8163322861       28.2421703535  W2        25224           0.0000000000
     73250     24417  TIP3      H1             25.9782033595       -7.1869922861       27.4238703535  W2        25224           0.0000000000
     73251     24417  TIP3      H2             26.8970933595       -7.4869322861       28.5890003535  W2        25224           0.0000000000
     73252     24418  TIP3      OH2            27.6754333595       -3.3882722861       30.9233903535  W2        25225           0.0000000000
     73253     24418  TIP3      H1             27.5805633595       -3.9669622861       30.1668503535  W2        25225           0.0000000000
     73254     24418  TIP3      H2             28.4047933595       -3.7597022861       31.4196703535  W2        25225           0.0000000000
     73255     24419  TIP3      OH2            26.6752333595       -8.0477722861       31.8756703535  W2        25226           0.0000000000
     73256     24419  TIP3      H1             27.2404833595       -7.9263522861       31.1127903535  W2        25226           0.0000000000
     73257     24419  TIP3      H2             26.9941233595       -7.4102722861       32.5145203535  W2        25226           0.0000000000
     73258     24420  TIP3      OH2            32.9844533595       -2.5445822861       32.6097203535  W2        25227           0.0000000000
     73259     24420  TIP3      H1             32.7441133595       -1.8822722861       33.2576403535  W2        25227           0.0000000000
     73260     24420  TIP3      H2             32.7862733595       -3.3790622861       33.0346803535  W2        25227           0.0000000000
     73261     24421  TIP3      OH2            33.5342633595       -8.2846622861       24.0447903535  W2        25229           0.0000000000
     73262     24421  TIP3      H1             34.1138133595       -8.1346322861       24.7916803535  W2        25229           0.0000000000
     73263     24421  TIP3      H2             33.9482633595       -7.8139222861       23.3214303535  W2        25229           0.0000000000
     73264     24422  TIP3      OH2            31.2607533595       -1.5478122861       27.4801003535  W2        25231           0.0000000000
     73265     24422  TIP3      H1             31.7345133595       -1.2521822861       28.2575203535  W2        25231           0.0000000000
     73266     24422  TIP3      H2             30.6976833595       -0.8096522861       27.2470603535  W2        25231           0.0000000000
     73267     24423  TIP3      OH2            37.2331033595      -16.5346222861       23.8577603535  W2        25233           0.0000000000
     73268     24423  TIP3      H1             36.3331733595      -16.3957222861       24.1528203535  W2        25233           0.0000000000
     73269     24423  TIP3      H2             37.4849433595      -15.7031622861       23.4559303535  W2        25233           0.0000000000
     73270     24424  TIP3      OH2            25.2989533595       -7.7469022861       25.8314503535  W2        25234           0.0000000000
     73271     24424  TIP3      H1             25.0070833595       -6.9787322861       25.3405803535  W2        25234           0.0000000000
     73272     24424  TIP3      H2             24.6244733595       -8.4062822861       25.6685903535  W2        25234           0.0000000000
     73273     24425  TIP3      OH2            38.4222433595       -2.1683822861       22.2341503535  W2        25235           0.0000000000
     73274     24425  TIP3      H1             38.4955933595       -1.2293622861       22.4046803535  W2        25235           0.0000000000
     73275     24425  TIP3      H2             39.3277533595       -2.4735222861       22.1778803535  W2        25235           0.0000000000
     73276     24426  TIP3      OH2            21.3919633595       -5.3839822861       34.6464303535  W2        25236           0.0000000000
     73277     24426  TIP3      H1             20.8908033595       -5.4120422861       33.8314003535  W2        25236           0.0000000000
     73278     24426  TIP3      H2             21.3973333595       -6.2896622861       34.9561603535  W2        25236           0.0000000000
     73279     24427  TIP3      OH2            21.1422333595       -2.6036022861       31.5304503535  W2        25237           0.0000000000
     73280     24427  TIP3      H1             22.0882933595       -2.7479022861       31.5114003535  W2        25237           0.0000000000
     73281     24427  TIP3      H2             21.0298633595       -1.8193222861       32.0675703535  W2        25237           0.0000000000
     73282     24428  TIP3      OH2            30.7330633595        1.4086577139       25.8950203535  W2        25240           0.0000000000
     73283     24428  TIP3      H1             30.6576633595        1.2873777139       24.9485403535  W2        25240           0.0000000000
     73284     24428  TIP3      H2             30.7659333595        2.3579277139       26.0134803535  W2        25240           0.0000000000
     73285     24429  TIP3      OH2            24.3864433595        0.1973577139       27.6759203535  W2        25241           0.0000000000
     73286     24429  TIP3      H1             24.5384833595       -0.1506022861       28.5545703535  W2        25241           0.0000000000
     73287     24429  TIP3      H2             23.5354833595       -0.1589122861       27.4206403535  W2        25241           0.0000000000
     73288     24430  TIP3      OH2            33.8346633595        0.5626777139       22.8972603535  W2        25242           0.0000000000
     73289     24430  TIP3      H1             34.2095033595       -0.1817122861       22.4265203535  W2        25242           0.0000000000
     73290     24430  TIP3      H2             33.8390333595        0.2927377139       23.8155903535  W2        25242           0.0000000000
     73291     24431  TIP3      OH2            33.5034733595        0.4883877139       25.6464803535  W2        25243           0.0000000000
     73292     24431  TIP3      H1             32.5684533595        0.5885777139       25.8251803535  W2        25243           0.0000000000
     73293     24431  TIP3      H2             33.7836633595       -0.2210122861       26.2248003535  W2        25243           0.0000000000
     73294     24432  TIP3      OH2            26.2598133595      -15.5903922861       31.6851303535  W2        25246           0.0000000000
     73295     24432  TIP3      H1             25.3981833595      -15.6775722861       31.2774203535  W2        25246           0.0000000000
     73296     24432  TIP3      H2             26.2373833595      -14.7343822861       32.1128903535  W2        25246           0.0000000000
     73297     24433  TIP3      OH2            30.9225933595      -15.8683522861       35.0598303535  W2        25247           0.0000000000
     73298     24433  TIP3      H1             31.3429033595      -16.2836422861       35.8128903535  W2        25247           0.0000000000
     73299     24433  TIP3      H2             29.9895533595      -16.0470222861       35.1770303535  W2        25247           0.0000000000
     73300     24434  TIP3      OH2            35.0115733595       -7.2518322861       21.6745803535  W2        25249           0.0000000000
     73301     24434  TIP3      H1             35.0536533595       -7.4744422861       20.7445803535  W2        25249           0.0000000000
     73302     24434  TIP3      H2             35.8607833595       -6.8531222861       21.8645703535  W2        25249           0.0000000000
     73303     24435  TIP3      OH2            30.5843233595      -13.3760122861       22.3449103535  W2        25250           0.0000000000
     73304     24435  TIP3      H1             30.3308033595      -13.3568522861       23.2677203535  W2        25250           0.0000000000
     73305     24435  TIP3      H2             30.3275333595      -14.2474722861       22.0435303535  W2        25250           0.0000000000
     73306     24436  TIP3      OH2            26.3508233595      -10.6249422861       32.7801503535  W2        25251           0.0000000000
     73307     24436  TIP3      H1             25.7090333595      -10.6652122861       33.4891603535  W2        25251           0.0000000000
     73308     24436  TIP3      H2             26.3880233595       -9.6984722861       32.5424503535  W2        25251           0.0000000000
     73309     24437  TIP3      OH2            26.3477333595      -10.4039322861       27.6921503535  W2        25252           0.0000000000
     73310     24437  TIP3      H1             25.4550233595      -10.7443222861       27.6335303535  W2        25252           0.0000000000
     73311     24437  TIP3      H2             26.7983933595      -10.7808422861       26.9364703535  W2        25252           0.0000000000
     73312     24438  TIP3      OH2            31.8832833595       -9.9879022861       26.5092303535  W2        25253           0.0000000000
     73313     24438  TIP3      H1             31.4743133595       -9.1730422861       26.2177103535  W2        25253           0.0000000000
     73314     24438  TIP3      H2             32.6039033595      -10.1278922861       25.8949403535  W2        25253           0.0000000000
     73315     24439  TIP3      OH2            32.8880533595      -10.5418622861       29.3232003535  W2        25255           0.0000000000
     73316     24439  TIP3      H1             32.6925033595       -9.9361822861       28.6082603535  W2        25255           0.0000000000
     73317     24439  TIP3      H2             33.0693133595      -11.3753422861       28.8888303535  W2        25255           0.0000000000
     73318     24440  TIP3      OH2            24.1008733595      -10.3045922861       34.6473503535  W2        25256           0.0000000000
     73319     24440  TIP3      H1             24.0628133595       -9.9044322861       35.5160603535  W2        25256           0.0000000000
     73320     24440  TIP3      H2             23.6099833595      -11.1213522861       34.7376403535  W2        25256           0.0000000000
     73321     24441  TIP3      OH2            27.4666133595      -12.9303622861       21.4459503535  W2        25257           0.0000000000
     73322     24441  TIP3      H1             27.0356833595      -13.3753522861       22.1756903535  W2        25257           0.0000000000
     73323     24441  TIP3      H2             26.7484833595      -12.5587322861       20.9337003535  W2        25257           0.0000000000
     73324     24442  TIP3      OH2            20.7089533595      -13.1884122861       28.4978203535  W2        25258           0.0000000000
     73325     24442  TIP3      H1             21.3397233595      -13.2172022861       29.2172103535  W2        25258           0.0000000000
     73326     24442  TIP3      H2             21.1583833595      -13.6135422861       27.7674103535  W2        25258           0.0000000000
     73327     24443  TIP3      OH2            21.9831633595      -12.4422122861       23.9218603535  W2        25259           0.0000000000
     73328     24443  TIP3      H1             22.4573333595      -11.8512222861       23.3369503535  W2        25259           0.0000000000
     73329     24443  TIP3      H2             21.2658033595      -11.9119222861       24.2688703535  W2        25259           0.0000000000
     73330     24444  TIP3      OH2            32.1519733595       -8.9037322861       33.9944403535  W2        25260           0.0000000000
     73331     24444  TIP3      H1             32.4754533595       -9.5347622861       33.3514903535  W2        25260           0.0000000000
     73332     24444  TIP3      H2             31.7119033595       -9.4385122861       34.6551803535  W2        25260           0.0000000000
     73333     24445  TIP3      OH2            28.9292633595      -12.9761822861       28.7785603535  W2        25261           0.0000000000
     73334     24445  TIP3      H1             28.0183733595      -12.9195022861       29.0671603535  W2        25261           0.0000000000
     73335     24445  TIP3      H2             29.4345533595      -13.0366322861       29.5892803535  W2        25261           0.0000000000
     73336     24446  TIP3      OH2            23.7576033595      -11.3475522861       27.6053203535  W2        25262           0.0000000000
     73337     24446  TIP3      H1             22.8684033595      -11.2480022861       27.2652803535  W2        25262           0.0000000000
     73338     24446  TIP3      H2             24.0540933595      -12.1892522861       27.2591103535  W2        25262           0.0000000000
     73339     24447  TIP3      OH2            27.4107833595      -11.3472922861       25.2617803535  W2        25263           0.0000000000
     73340     24447  TIP3      H1             28.3423333595      -11.2182922861       25.4400903535  W2        25263           0.0000000000
     73341     24447  TIP3      H2             27.1958133595      -10.6778622861       24.6122503535  W2        25263           0.0000000000
     73342     24448  TIP3      OH2            33.3344533595      -13.7415522861       32.0427403535  W2        25264           0.0000000000
     73343     24448  TIP3      H1             32.6576133595      -13.6102422861       32.7067103535  W2        25264           0.0000000000
     73344     24448  TIP3      H2             32.8489433595      -13.8966022861       31.2325103535  W2        25264           0.0000000000
     73345     24449  TIP3      OH2            26.0848033595      -10.1530722861       22.8283903535  W2        25265           0.0000000000
     73346     24449  TIP3      H1             25.5423133595      -10.5326922861       22.1371503535  W2        25265           0.0000000000
     73347     24449  TIP3      H2             26.9182933595       -9.9586022861       22.3998003535  W2        25265           0.0000000000
     73348     24450  TIP3      OH2            30.2492333595      -10.1888822861       30.6655203535  W2        25268           0.0000000000
     73349     24450  TIP3      H1             30.8135733595      -10.7352222861       30.1184803535  W2        25268           0.0000000000
     73350     24450  TIP3      H2             30.1015733595      -10.7106922861       31.4542803535  W2        25268           0.0000000000
     73351     24451  TIP3      OH2            25.2512033595      -14.0522722861       27.0840003535  W2        25269           0.0000000000
     73352     24451  TIP3      H1             24.9341533595      -14.9547422861       27.0485403535  W2        25269           0.0000000000
     73353     24451  TIP3      H2             26.0326133595      -14.0505322861       26.5311603535  W2        25269           0.0000000000
     73354     24452  TIP3      OH2            28.8758233595      -11.8002722861       33.0795603535  W2        25270           0.0000000000
     73355     24452  TIP3      H1             28.0403533595      -11.3463222861       33.1898003535  W2        25270           0.0000000000
     73356     24452  TIP3      H2             29.3998833595      -11.5244222861       33.8315503535  W2        25270           0.0000000000
     73357     24453  TIP3      OH2            29.4200833595       -5.5875022861       24.7642003535  W2        25271           0.0000000000
     73358     24453  TIP3      H1             28.6751833595       -6.0949722861       24.4419903535  W2        25271           0.0000000000
     73359     24453  TIP3      H2             29.2858033595       -5.5387022861       25.7106803535  W2        25271           0.0000000000
     73360     24454  TIP3      OH2            36.5699733595       -6.4546822861       33.5509603535  W2        25272           0.0000000000
     73361     24454  TIP3      H1             37.2118533595       -5.9980522861       33.0071803535  W2        25272           0.0000000000
     73362     24454  TIP3      H2             35.7396633595       -6.3414422861       33.0883703535  W2        25272           0.0000000000
     73363     24455  TIP3      OH2            33.3177633595      -12.7735122861       22.9634603535  W2        25273           0.0000000000
     73364     24455  TIP3      H1             32.3791833595      -12.6619522861       22.8123403535  W2        25273           0.0000000000
     73365     24455  TIP3      H2             33.6149733595      -11.9168222861       23.2700303535  W2        25273           0.0000000000
     73366     24456  TIP3      OH2            34.0361133595      -10.9062422861       24.6242003535  W2        25275           0.0000000000
     73367     24456  TIP3      H1             34.9280133595      -11.0437422861       24.9433203535  W2        25275           0.0000000000
     73368     24456  TIP3      H2             34.0924733595      -10.1156322861       24.0875503535  W2        25275           0.0000000000
     73369     24457  TIP3      OH2            24.5449133595       -6.2925022861       30.5339903535  W2        25276           0.0000000000
     73370     24457  TIP3      H1             25.2896333595       -6.2949322861       29.9326403535  W2        25276           0.0000000000
     73371     24457  TIP3      H2             24.6225733595       -7.1161222861       31.0155003535  W2        25276           0.0000000000
     73372     24458  TIP3      OH2            31.5454933595       -4.1290722861       23.7896603535  W2        25277           0.0000000000
     73373     24458  TIP3      H1             31.2503333595       -3.3022822861       24.1711403535  W2        25277           0.0000000000
     73374     24458  TIP3      H2             30.8424933595       -4.7483822861       23.9858003535  W2        25277           0.0000000000
     73375     24459  TIP3      OH2            38.9209833595      -10.6968322861       24.3188703535  W2        25281           0.0000000000
     73376     24459  TIP3      H1             38.3666133595      -11.0930322861       23.6466203535  W2        25281           0.0000000000
     73377     24459  TIP3      H2             39.0213433595       -9.7863122861       24.0412003535  W2        25281           0.0000000000
     73378     24460  TIP3      OH2            37.2161533595       -1.9107922861       24.7840803535  W2        25283           0.0000000000
     73379     24460  TIP3      H1             36.8432633595       -2.7364122861       25.0931403535  W2        25283           0.0000000000
     73380     24460  TIP3      H2             37.4935033595       -2.0938522861       23.8864203535  W2        25283           0.0000000000
     73381     24461  TIP3      OH2            34.3765433595       -7.1028422861       31.8052703535  W2        25284           0.0000000000
     73382     24461  TIP3      H1             33.4482333595       -7.3346522861       31.7782003535  W2        25284           0.0000000000
     73383     24461  TIP3      H2             34.8276533595       -7.8798622861       31.4751503535  W2        25284           0.0000000000
     73384     24462  TIP3      OH2            26.9198533595       -2.7746822861       27.9381403535  W2        25285           0.0000000000
     73385     24462  TIP3      H1             27.4470733595       -2.0012422861       27.7380203535  W2        25285           0.0000000000
     73386     24462  TIP3      H2             26.0397033595       -2.5497622861       27.6365403535  W2        25285           0.0000000000
     73387     24463  TIP3      OH2            22.6746233595       -7.9122722861       22.5253803535  W2        25286           0.0000000000
     73388     24463  TIP3      H1             23.2906133595       -7.2855522861       22.9048603535  W2        25286           0.0000000000
     73389     24463  TIP3      H2             21.8128833595       -7.5962922861       22.7970303535  W2        25286           0.0000000000
     73390     24464  TIP3      OH2            28.3470833595       -5.1116922861       27.5145703535  W2        25287           0.0000000000
     73391     24464  TIP3      H1             28.1060833595       -4.1862522861       27.5561003535  W2        25287           0.0000000000
     73392     24464  TIP3      H2             27.6064433595       -5.5705622861       27.9109603535  W2        25287           0.0000000000
     73393     24465  TIP3      OH2            28.8617433595       -0.9623322861       33.8296803535  W2        25288           0.0000000000
     73394     24465  TIP3      H1             29.2242133595       -0.1077722861       33.5961203535  W2        25288           0.0000000000
     73395     24465  TIP3      H2             29.3932633595       -1.2541722861       34.5703103535  W2        25288           0.0000000000
     73396     24466  TIP3      OH2            27.0301633595       -0.0899322861       27.0597903535  W2        25289           0.0000000000
     73397     24466  TIP3      H1             26.0802133595        0.0158077139       27.1111203535  W2        25289           0.0000000000
     73398     24466  TIP3      H2             27.3819733595        0.7308077139       27.4045403535  W2        25289           0.0000000000
     73399     24467  TIP3      OH2            32.4058233595       -4.8632622861       33.5302403535  W2        25290           0.0000000000
     73400     24467  TIP3      H1             31.9799533595       -5.0910922861       34.3566403535  W2        25290           0.0000000000
     73401     24467  TIP3      H2             32.9864033595       -5.6020822861       33.3477703535  W2        25290           0.0000000000
     73402     24468  TIP3      OH2            34.6087133595       -3.9342122861       22.6041403535  W2        25291           0.0000000000
     73403     24468  TIP3      H1             34.9620233595       -4.3142322861       23.4084903535  W2        25291           0.0000000000
     73404     24468  TIP3      H2             33.6600633595       -4.0277322861       22.6910703535  W2        25291           0.0000000000
     73405     24469  TIP3      OH2            39.1121533595        0.5450377139       22.8051603535  W2        25293           0.0000000000
     73406     24469  TIP3      H1             39.8559433595        1.1310877139       22.6653203535  W2        25293           0.0000000000
     73407     24469  TIP3      H2             38.4179633595        1.1136177139       23.1384003535  W2        25293           0.0000000000
     73408     24470  TIP3      OH2            23.1868333595      -13.0785422861       35.4069803535  W2        25294           0.0000000000
     73409     24470  TIP3      H1             22.2940633595      -12.7400022861       35.3393803535  W2        25294           0.0000000000
     73410     24470  TIP3      H2             23.0881133595      -13.9339322861       35.8250603535  W2        25294           0.0000000000
     73411     24471  TIP3      OH2            35.4746433595       -5.2620122861       24.8309303535  W2        25295           0.0000000000
     73412     24471  TIP3      H1             35.1974033595       -5.9900822861       25.3870403535  W2        25295           0.0000000000
     73413     24471  TIP3      H2             36.4019433595       -5.1428122861       25.0361903535  W2        25295           0.0000000000
     73414     24472  TIP3      OH2            22.8380333595       -1.2741022861       33.8419203535  W2        25296           0.0000000000
     73415     24472  TIP3      H1             23.0550633595       -2.2058622861       33.8108903535  W2        25296           0.0000000000
     73416     24472  TIP3      H2             23.0843833595       -0.9996022861       34.7252003535  W2        25296           0.0000000000
     73417     24473  TIP3      OH2            28.6994933595       -2.8226022861       21.0511403535  W2        25297           0.0000000000
     73418     24473  TIP3      H1             28.9384733595       -3.5707922861       20.5040303535  W2        25297           0.0000000000
     73419     24473  TIP3      H2             28.4306233595       -3.2104322861       21.8839203535  W2        25297           0.0000000000
     73420     24474  TIP3      OH2            27.6365533595       -3.2522222861       23.5074003535  W2        25298           0.0000000000
     73421     24474  TIP3      H1             27.7833533595       -3.7722422861       24.2974903535  W2        25298           0.0000000000
     73422     24474  TIP3      H2             27.6337233595       -2.3454622861       23.8139903535  W2        25298           0.0000000000
     73423     24475  TIP3      OH2            24.0896633595       -5.9998922861       24.0179403535  W2        25299           0.0000000000
     73424     24475  TIP3      H1             23.4035933595       -5.6476422861       24.5849103535  W2        25299           0.0000000000
     73425     24475  TIP3      H2             24.6124533595       -5.2369322861       23.7713703535  W2        25299           0.0000000000
     73426     24476  TIP3      OH2            31.9211733595      -13.3375122861       34.2968403535  W2        25300           0.0000000000
     73427     24476  TIP3      H1             32.6199633595      -13.2636422861       34.9468103535  W2        25300           0.0000000000
     73428     24476  TIP3      H2             31.5403133595      -14.2020122861       34.4511303535  W2        25300           0.0000000000
     73429     24477  TIP3      OH2            32.7056633595      -13.6853422861       25.3940703535  W2        25301           0.0000000000
     73430     24477  TIP3      H1             32.9254933595      -13.2138022861       24.5906103535  W2        25301           0.0000000000
     73431     24477  TIP3      H2             33.2640633595      -13.2910822861       26.0641303535  W2        25301           0.0000000000
     73432     24478  TIP3      OH2            30.3742733595       -1.5548622861       24.2568203535  W2        25302           0.0000000000
     73433     24478  TIP3      H1             29.5578833595       -1.0578922861       24.3092503535  W2        25302           0.0000000000
     73434     24478  TIP3      H2             30.9039033595       -1.0795122861       23.6167003535  W2        25302           0.0000000000
     73435     24479  TIP3      OH2            29.9056533595      -11.9574622861       26.2289103535  W2        25303           0.0000000000
     73436     24479  TIP3      H1             30.7179133595      -11.4531422861       26.2750803535  W2        25303           0.0000000000
     73437     24479  TIP3      H2             29.6609533595      -12.1024922861       27.1428703535  W2        25303           0.0000000000
     73438     24480  TIP3      OH2            30.4412933595      -10.9711922861       35.4135703535  W2        25304           0.0000000000
     73439     24480  TIP3      H1             30.5603233595      -10.3976522861       36.1706103535  W2        25304           0.0000000000
     73440     24480  TIP3      H2             31.0967533595      -11.6592522861       35.5283503535  W2        25304           0.0000000000
     73441     24481  TIP3      OH2            30.7893233595      -14.8761622861       27.1670203535  W2        25305           0.0000000000
     73442     24481  TIP3      H1             30.4426733595      -14.2591022861       27.8114503535  W2        25305           0.0000000000
     73443     24481  TIP3      H2             31.4480133595      -14.3755922861       26.6855703535  W2        25305           0.0000000000
     73444     24482  TIP3      OH2            27.7125833595       -0.5111422861       24.2385103535  W2        25306           0.0000000000
     73445     24482  TIP3      H1             27.8734533595        0.2886077139       23.7377703535  W2        25306           0.0000000000
     73446     24482  TIP3      H2             27.5153633595       -0.2045422861       25.1235703535  W2        25306           0.0000000000
     73447     24483  TIP3      OH2            26.4470233595      -13.8132222861       23.8542703535  W2        25307           0.0000000000
     73448     24483  TIP3      H1             26.3635033595      -12.9249122861       24.2009103535  W2        25307           0.0000000000
     73449     24483  TIP3      H2             27.3370533595      -14.0785522861       24.0859503535  W2        25307           0.0000000000
     73450     24484  TIP3      OH2            35.2479733595       -9.3140622861       30.3442703535  W2        25309           0.0000000000
     73451     24484  TIP3      H1             34.4504133595       -9.7290422861       30.0157703535  W2        25309           0.0000000000
     73452     24484  TIP3      H2             35.6930833595      -10.0046922861       30.8353203535  W2        25309           0.0000000000
     73453     24485  TIP3      OH2            24.7055533595       -3.3860022861       22.9147203535  W2        25310           0.0000000000
     73454     24485  TIP3      H1             25.2977033595       -2.6865222861       23.1909603535  W2        25310           0.0000000000
     73455     24485  TIP3      H2             25.1648533595       -3.8190522861       22.1951803535  W2        25310           0.0000000000
     73456     24486  TIP3      OH2            23.0214733595      -10.7217022861       22.0306603535  W2        25311           0.0000000000
     73457     24486  TIP3      H1             22.9767333595       -9.7823922861       22.2093603535  W2        25311           0.0000000000
     73458     24486  TIP3      H2             22.1337933595      -10.9572122861       21.7608703535  W2        25311           0.0000000000
     73459     24487  TIP3      OH2            36.3344333595       -0.0578122861       31.9666203535  W2        25312           0.0000000000
     73460     24487  TIP3      H1             36.1788633595        0.6206277139       31.3095503535  W2        25312           0.0000000000
     73461     24487  TIP3      H2             37.2670733595        0.0141177139       32.1696803535  W2        25312           0.0000000000
     73462     24488  TIP3      OH2            23.8296733595      -15.9400422861       30.7037603535  W2        25313           0.0000000000
     73463     24488  TIP3      H1             23.6006533595      -15.8807922861       29.7762603535  W2        25313           0.0000000000
     73464     24488  TIP3      H2             23.3870133595      -16.7314922861       31.0101703535  W2        25313           0.0000000000
     73465     24489  TIP3      OH2            22.7600033595       -1.9993322861       26.8643403535  W2        25314           0.0000000000
     73466     24489  TIP3      H1             21.9278633595       -1.5270622861       26.8914803535  W2        25314           0.0000000000
     73467     24489  TIP3      H2             23.3058333595       -1.4895722861       26.2656503535  W2        25314           0.0000000000
     73468     24490  TIP3      OH2            30.7376733595       -0.9594622861       21.1897403535  W2        25317           0.0000000000
     73469     24490  TIP3      H1             30.0937733595       -1.5906022861       21.5111103535  W2        25317           0.0000000000
     73470     24490  TIP3      H2             31.4995033595       -1.4906622861       20.9580903535  W2        25317           0.0000000000
     73471     24491  TIP3      OH2            35.3419633595       -1.1424722861       21.4235403535  W2        25319           0.0000000000
     73472     24491  TIP3      H1             35.6250033595       -1.9369522861       21.8762303535  W2        25319           0.0000000000
     73473     24491  TIP3      H2             36.0817533595       -0.9093722861       20.8626503535  W2        25319           0.0000000000
     73474     24492  TIP3      OH2            26.2966933595       -5.2329822861       21.2810303535  W2        25321           0.0000000000
     73475     24492  TIP3      H1             26.3611033595       -6.0270222861       21.8116703535  W2        25321           0.0000000000
     73476     24492  TIP3      H2             26.9496133595       -5.3517022861       20.5912303535  W2        25321           0.0000000000
     73477     24493  TIP3      OH2            31.6490333595       -4.1858122861       21.0168303535  W2        25323           0.0000000000
     73478     24493  TIP3      H1             31.3804433595       -4.0056022861       21.9177203535  W2        25323           0.0000000000
     73479     24493  TIP3      H2             31.4425933595       -5.1111922861       20.8854103535  W2        25323           0.0000000000
     73480     24494  TIP3      OH2            27.4460733595       -7.2603622861       23.5868303535  W2        25326           0.0000000000
     73481     24494  TIP3      H1             26.9862733595       -7.7445322861       24.2726803535  W2        25326           0.0000000000
     73482     24494  TIP3      H2             27.7009433595       -7.9288222861       22.9508803535  W2        25326           0.0000000000
     73483     24495  TIP3      OH2            28.5171133595       -9.0171822861       21.8491503535  W2        25328           0.0000000000
     73484     24495  TIP3      H1             28.3366133595       -9.1720622861       20.9219803535  W2        25328           0.0000000000
     73485     24495  TIP3      H2             29.4671633595       -8.9093122861       21.8939403535  W2        25328           0.0000000000
     73486     24496  TIP3      OH2            37.9069433595       -6.6627622861       21.2949603535  W2        25330           0.0000000000
     73487     24496  TIP3      H1             37.6334233595       -7.0872122861       20.4817903535  W2        25330           0.0000000000
     73488     24496  TIP3      H2             37.9463533595       -5.7313122861       21.0780003535  W2        25330           0.0000000000
     73489     24497  TIP3      OH2            27.4869433595      -13.6429922861       34.5178403535  W2        25332           0.0000000000
     73490     24497  TIP3      H1             28.0226933595      -13.1913222861       33.8657703535  W2        25332           0.0000000000
     73491     24497  TIP3      H2             26.6349033595      -13.7510122861       34.0952503535  W2        25332           0.0000000000
     73492     24498  TIP3      OH2            29.0687833595       -8.2033722861       34.7573603535  W2        25333           0.0000000000
     73493     24498  TIP3      H1             29.8192633595       -8.3596222861       34.1841403535  W2        25333           0.0000000000
     73494     24498  TIP3      H2             28.7296133595       -7.3517122861       34.4819103535  W2        25333           0.0000000000
     73495     24499  TIP3      OH2            28.2924933595      -16.1864222861       34.9492003535  W2        25337           0.0000000000
     73496     24499  TIP3      H1             28.1944533595      -15.2401022861       34.8438203535  W2        25337           0.0000000000
     73497     24499  TIP3      H2             27.5501133595      -16.5590422861       34.4735503535  W2        25337           0.0000000000
     73498     24500  TIP3      OH2            28.4142833595        1.6731877139       22.8505103535  W2        25344           0.0000000000
     73499     24500  TIP3      H1             29.3473533595        1.8310577139       22.9943503535  W2        25344           0.0000000000
     73500     24500  TIP3      H2             28.1501633595        2.3484877139       22.2256603535  W2        25344           0.0000000000
     73501     24501  TIP3      OH2            21.9827733595       -3.6904322861       22.3333203535  W2        25345           0.0000000000
     73502     24501  TIP3      H1             22.8966933595       -3.6115422861       22.6067103535  W2        25345           0.0000000000
     73503     24501  TIP3      H2             21.9900833595       -4.3774722861       21.6668803535  W2        25345           0.0000000000
     73504     24502  TIP3      OH2            20.6318333595        1.7024177139       27.4107103535  W2        25346           0.0000000000
     73505     24502  TIP3      H1             19.9845433595        1.2405877139       26.8778303535  W2        25346           0.0000000000
     73506     24502  TIP3      H2             20.9862933595        1.0307477139       27.9933303535  W2        25346           0.0000000000
     73507     24503  TIP3      OH2            21.5017533595       -0.2168822861       29.2153303535  W2        25347           0.0000000000
     73508     24503  TIP3      H1             21.1674333595       -1.0971522861       29.3873503535  W2        25347           0.0000000000
     73509     24503  TIP3      H2             21.7239933595        0.1286177139       30.0798903535  W2        25347           0.0000000000
     73510     24504  TIP3      OH2            39.0502333595        0.5927577139       32.1958103535  W2        25348           0.0000000000
     73511     24504  TIP3      H1             39.0289033595        0.7775977139       33.1347503535  W2        25348           0.0000000000
     73512     24504  TIP3      H2             39.7408533595        1.1611577139       31.8549503535  W2        25348           0.0000000000
     73513     24505  TIP3      OH2            38.6135233595        0.1598677139       35.1177203535  W2        25349           0.0000000000
     73514     24505  TIP3      H1             38.1263933595       -0.5757222861       34.7464603535  W2        25349           0.0000000000
     73515     24505  TIP3      H2             39.1627933595       -0.2337422861       35.7956603535  W2        25349           0.0000000000
     73516     24506  TIP3      OH2            38.3652233595       -5.7939522861       25.2700003535  W2        25351           0.0000000000
     73517     24506  TIP3      H1             39.2153633595       -5.3728622861       25.3971603535  W2        25351           0.0000000000
     73518     24506  TIP3      H2             38.3707333595       -6.5339422861       25.8771403535  W2        25351           0.0000000000
     73519     24507  TIP3      OH2            38.7597833595       -7.7402122861       27.0935703535  W2        25352           0.0000000000
     73520     24507  TIP3      H1             38.0332433595       -8.2199522861       27.4913303535  W2        25352           0.0000000000
     73521     24507  TIP3      H2             39.3411133595       -7.5347422861       27.8257303535  W2        25352           0.0000000000
     73522     24508  TIP3      OH2            38.5189033595       -4.9554622861       32.0413303535  W2        25353           0.0000000000
     73523     24508  TIP3      H1             39.3523233595       -5.3334622861       31.7606903535  W2        25353           0.0000000000
     73524     24508  TIP3      H2             38.6309333595       -4.0123422861       31.9222403535  W2        25353           0.0000000000
     73525     24509  TIP3      OH2            37.0051333595       -2.0777122861       34.3481703535  W2        25354           0.0000000000
     73526     24509  TIP3      H1             36.3576633595       -1.7525622861       34.9736903535  W2        25354           0.0000000000
     73527     24509  TIP3      H2             36.4875333595       -2.5179422861       33.6740003535  W2        25354           0.0000000000
     73528     24510  TIP3      OH2            39.0280933595       -7.8393622861       23.4847003535  W2        25355           0.0000000000
     73529     24510  TIP3      H1             38.5062033595       -7.4829522861       22.7657903535  W2        25355           0.0000000000
     73530     24510  TIP3      H2             38.9950133595       -7.1645822861       24.1627903535  W2        25355           0.0000000000
     73531     24511  TIP3      OH2            37.3769933595      -10.5998022861       22.0354103535  W2        25356           0.0000000000
     73532     24511  TIP3      H1             37.4734333595       -9.9331022861       21.3553803535  W2        25356           0.0000000000
     73533     24511  TIP3      H2             37.2369533595      -11.4151722861       21.5539603535  W2        25356           0.0000000000
     73534     24512  TIP3      OH2            36.5464633595       -9.2195622861       27.6564403535  W2        25357           0.0000000000
     73535     24512  TIP3      H1             36.3963433595      -10.1647022861       27.6362203535  W2        25357           0.0000000000
     73536     24512  TIP3      H2             36.1929133595       -8.9384222861       28.5003503535  W2        25357           0.0000000000
     73537     24513  TIP3      OH2            21.5817033595       -7.1413422861       31.6668203535  W2        25358           0.0000000000
     73538     24513  TIP3      H1             21.7659933595       -7.2231722861       30.7311103535  W2        25358           0.0000000000
     73539     24513  TIP3      H2             22.4309933595       -7.2656422861       32.0904603535  W2        25358           0.0000000000
     73540     24514  TIP3      OH2            36.6243733595      -13.1918222861       21.1529603535  W2        25361           0.0000000000
     73541     24514  TIP3      H1             37.2349533595      -13.5631422861       21.7897803535  W2        25361           0.0000000000
     73542     24514  TIP3      H2             35.7875233595      -13.6131322861       21.3489603535  W2        25361           0.0000000000
     73543     24515  TIP3      OH2            36.2569433595      -11.6369822861       26.1189503535  W2        25362           0.0000000000
     73544     24515  TIP3      H1             36.5366533595      -12.5439422861       26.2431203535  W2        25362           0.0000000000
     73545     24515  TIP3      H2             37.0161133595      -11.2028322861       25.7298703535  W2        25362           0.0000000000
     73546     24516  TIP3      OH2            36.8687733595      -11.0552422861       31.5548403535  W2        25363           0.0000000000
     73547     24516  TIP3      H1             37.8015733595      -10.8432522861       31.5204403535  W2        25363           0.0000000000
     73548     24516  TIP3      H2             36.6335233595      -10.9540322861       32.4771403535  W2        25363           0.0000000000
     73549     24517  TIP3      OH2            36.8979633595      -10.3187122861       34.3307803535  W2        25364           0.0000000000
     73550     24517  TIP3      H1             36.0550933595      -10.0506722861       34.6967603535  W2        25364           0.0000000000
     73551     24517  TIP3      H2             37.3403933595       -9.4965222861       34.1198903535  W2        25364           0.0000000000
     73552     24518  TIP3      OH2            36.8704233595      -14.3740522861       26.1671503535  W2        25367           0.0000000000
     73553     24518  TIP3      H1             37.0529233595      -14.8229022861       26.9926503535  W2        25367           0.0000000000
     73554     24518  TIP3      H2             36.2707133595      -14.9586122861       25.7036103535  W2        25367           0.0000000000
     73555     24519  TIP3      OH2            22.4004333595      -13.5586822861       30.6989903535  W2        25368           0.0000000000
     73556     24519  TIP3      H1             22.8455933595      -14.3504322861       31.0009603535  W2        25368           0.0000000000
     73557     24519  TIP3      H2             22.8667333595      -12.8421622861       31.1295503535  W2        25368           0.0000000000
     73558     24520  TIP3      OH2            20.7044633595      -10.5593822861       31.7680103535  W2        25369           0.0000000000
     73559     24520  TIP3      H1             21.1964433595      -10.7803322861       30.9772103535  W2        25369           0.0000000000
     73560     24520  TIP3      H2             21.0665533595       -9.7190422861       32.0489603535  W2        25369           0.0000000000
     73561     24521  TIP3      OH2            38.7370433595      -14.3062422861       22.6951803535  W2        25371           0.0000000000
     73562     24521  TIP3      H1             39.1493033595      -15.0276722861       22.2199803535  W2        25371           0.0000000000
     73563     24521  TIP3      H2             39.4186933595      -13.6367822861       22.7536103535  W2        25371           0.0000000000
     73564     24522  TIP3      OH2            21.0181133595      -14.3014722861       25.8222503535  W2        25372           0.0000000000
     73565     24522  TIP3      H1             20.0929533595      -14.0928122861       25.6928003535  W2        25372           0.0000000000
     73566     24522  TIP3      H2             21.4721033595      -13.8173922861       25.1324803535  W2        25372           0.0000000000
     73567     24523  TIP3      OH2            35.7888333595        0.6826977139       27.7679903535  W2        25373           0.0000000000
     73568     24523  TIP3      H1             36.4411233595        0.3349077139       27.1599003535  W2        25373           0.0000000000
     73569     24523  TIP3      H2             36.2992133595        1.1710177139       28.4139603535  W2        25373           0.0000000000
     73570     24524  TIP3      OH2            20.9816533595      -15.5635722861       34.1665003535  W2        25374           0.0000000000
     73571     24524  TIP3      H1             20.3167033595      -15.8095422861       34.8095903535  W2        25374           0.0000000000
     73572     24524  TIP3      H2             20.5387833595      -14.9415322861       33.5893003535  W2        25374           0.0000000000
     73573     24525  TIP3      OH2            26.1278733595       -1.4140422861       34.5694803535  W2        25376           0.0000000000
     73574     24525  TIP3      H1             25.7029833595       -0.6041922861       34.2869403535  W2        25376           0.0000000000
     73575     24525  TIP3      H2             27.0321533595       -1.3286322861       34.2674603535  W2        25376           0.0000000000
     73576     24526  TIP3      OH2            23.5295433595        1.8423477139       34.6170103535  W2        25380           0.0000000000
     73577     24526  TIP3      H1             22.8091833595        2.2824477139       34.1657803535  W2        25380           0.0000000000
     73578     24526  TIP3      H2             23.1639433595        1.5918177139       35.4654103535  W2        25380           0.0000000000
     73579     24527  TIP3      OH2            25.9968033595        1.4427377139       33.6467303535  W2        25381           0.0000000000
     73580     24527  TIP3      H1             25.1320233595        1.5145877139       34.0507403535  W2        25381           0.0000000000
     73581     24527  TIP3      H2             25.9417033595        1.9894677139       32.8629803535  W2        25381           0.0000000000
     73582     24528  TIP3      OH2            30.7073633595        1.3306277139       32.8223303535  W2        25382           0.0000000000
     73583     24528  TIP3      H1             30.2507633595        1.8595977139       32.1681703535  W2        25382           0.0000000000
     73584     24528  TIP3      H2             30.8701633595        1.9337677139       33.5475603535  W2        25382           0.0000000000
     73585     24529  TIP3      OH2            33.0349933595        0.2085877139       33.7673603535  W2        25383           0.0000000000
     73586     24529  TIP3      H1             32.1303633595        0.3736077139       33.5015703535  W2        25383           0.0000000000
     73587     24529  TIP3      H2             33.4638533595        1.0618077139       33.7017003535  W2        25383           0.0000000000
     73588     24530  TIP3      OH2            35.6391833595        1.7784977139       34.0621403535  W2        25384           0.0000000000
     73589     24530  TIP3      H1             35.4573833595        2.6943877139       33.8516303535  W2        25384           0.0000000000
     73590     24530  TIP3      H2             35.8159633595        1.3682077139       33.2156003535  W2        25384           0.0000000000
     73591     24531  TIP3      OH2            22.9443533595        0.4655977139       31.5271903535  W2        25385           0.0000000000
     73592     24531  TIP3      H1             22.9259533595        0.0401077139       32.3844203535  W2        25385           0.0000000000
     73593     24531  TIP3      H2             23.7491433595        0.1470977139       31.1184103535  W2        25385           0.0000000000
     73594     24532  TIP3      OH2            25.0856633595       -0.8245322861       30.1821803535  W2        25386           0.0000000000
     73595     24532  TIP3      H1             24.8667333595       -1.7407922861       30.3517803535  W2        25386           0.0000000000
     73596     24532  TIP3      H2             25.9098833595       -0.6844922861       30.6483203535  W2        25386           0.0000000000
     73597     24533  TIP3      OH2            27.6229133595       -0.3546022861       31.0309803535  W2        25387           0.0000000000
     73598     24533  TIP3      H1             27.8354833595       -1.2427022861       30.7440703535  W2        25387           0.0000000000
     73599     24533  TIP3      H2             27.6874233595       -0.3888322861       31.9853803535  W2        25387           0.0000000000
     73600     24534  TIP3      OH2            31.1312833595      -14.6905422861       30.1753103535  W2        25388           0.0000000000
     73601     24534  TIP3      H1             30.4569633595      -15.3199822861       30.4308903535  W2        25388           0.0000000000
     73602     24534  TIP3      H2             31.6952033595      -15.1746522861       29.5721003535  W2        25388           0.0000000000
     73603     24535  TIP3      OH2            36.2740033595      -16.5831422861       30.2880203535  W2        25389           0.0000000000
     73604     24535  TIP3      H1             36.8777633595      -16.0356022861       29.7861203535  W2        25389           0.0000000000
     73605     24535  TIP3      H2             35.4042033595      -16.2641022861       30.0474303535  W2        25389           0.0000000000
     73606     24536  TIP3      OH2            38.0010433595      -15.4442722861       28.6211103535  W2        25390           0.0000000000
     73607     24536  TIP3      H1             38.6127933595      -15.9587022861       28.0944703535  W2        25390           0.0000000000
     73608     24536  TIP3      H2             38.3833833595      -14.5670622861       28.6445503535  W2        25390           0.0000000000
     73609     24537  TIP3      OH2            23.4580333595      -16.0565122861       27.9973003535  W2        25391           0.0000000000
     73610     24537  TIP3      H1             22.6810133595      -16.2910222861       27.4898903535  W2        25391           0.0000000000
     73611     24537  TIP3      H2             23.9883933595      -16.8533022861       28.0061003535  W2        25391           0.0000000000
     73612     24538  TIP3      OH2            22.2943733595      -16.2587022861       23.8009103535  W2        25392           0.0000000000
     73613     24538  TIP3      H1             22.7334433595      -15.6476522861       23.2092603535  W2        25392           0.0000000000
     73614     24538  TIP3      H2             21.6606133595      -15.7202922861       24.2749103535  W2        25392           0.0000000000
     73615     24539  TIP3      OH2            28.0372933595      -16.1298022861       27.8106103535  W2        25393           0.0000000000
     73616     24539  TIP3      H1             28.9116333595      -15.7413722861       27.7810403535  W2        25393           0.0000000000
     73617     24539  TIP3      H2             27.9013733595      -16.3450222861       28.7333303535  W2        25393           0.0000000000
     73618     24540  TIP3      OH2            33.5941333595      -16.0998222861       29.4597803535  W2        25394           0.0000000000
     73619     24540  TIP3      H1             33.6702933595      -16.0046622861       28.5103803535  W2        25394           0.0000000000
     73620     24540  TIP3      H2             33.3190533595      -17.0075322861       29.5886903535  W2        25394           0.0000000000
     73621     24541  TIP3      OH2            34.9473933595      -16.0740422861       25.1522803535  W2        25395           0.0000000000
     73622     24541  TIP3      H1             34.2445033595      -15.4591222861       24.9424203535  W2        25395           0.0000000000
     73623     24541  TIP3      H2             34.5025333595      -16.9113722861       25.2833703535  W2        25395           0.0000000000
     73624     24542  TIP3      OH2            22.1953233595       -0.3104822861       24.6984203535  W2        25396           0.0000000000
     73625     24542  TIP3      H1             21.5103133595       -0.3485922861       24.0309303535  W2        25396           0.0000000000
     73626     24542  TIP3      H2             22.1990433595        0.6022777139       24.9866303535  W2        25396           0.0000000000
     73627     24543  TIP3      OH2            24.1552833595      -14.3425522861       22.2433203535  W2        25397           0.0000000000
     73628     24543  TIP3      H1             24.6466233595      -14.9723122861       21.7158703535  W2        25397           0.0000000000
     73629     24543  TIP3      H2             24.7789133595      -14.0466122861       22.9064403535  W2        25397           0.0000000000
     73630     24544  TIP3      OH2            29.1812933595      -14.0494022861       24.7003703535  W2        25398           0.0000000000
     73631     24544  TIP3      H1             29.3594233595      -14.6960822861       25.3832303535  W2        25398           0.0000000000
     73632     24544  TIP3      H2             29.1279133595      -13.2156322861       25.1674803535  W2        25398           0.0000000000
     73633     24545  TIP3      OH2            31.0596733595        0.8990077139       23.0960403535  W2        25399           0.0000000000
     73634     24545  TIP3      H1             31.9256933595        1.2657477139       22.9178603535  W2        25399           0.0000000000
     73635     24545  TIP3      H2             30.8129533595        0.4598077139       22.2821203535  W2        25399           0.0000000000
     73636     24546  TIP3      OH2            37.7686333595        0.4620377139       25.7751503535  W2        25400           0.0000000000
     73637     24546  TIP3      H1             37.5743433595       -0.2857522861       25.2101103535  W2        25400           0.0000000000
     73638     24546  TIP3      H2             37.7296433595        1.2200477139       25.1919403535  W2        25400           0.0000000000
     73639     24547  TIP3      OH2            24.0134433595        0.6095977139       21.7236303535  W2        25403           0.0000000000
     73640     24547  TIP3      H1             23.7459033595        0.8958877139       22.5969403535  W2        25403           0.0000000000
     73641     24547  TIP3      H2             24.7847033595        0.0635177139       21.8758803535  W2        25403           0.0000000000
     73642     24548  TIP3      OH2            51.3922933595       -6.9002822861       27.9560503535  W2        25406           0.0000000000
     73643     24548  TIP3      H1             51.4814033595       -5.9564622861       27.8237603535  W2        25406           0.0000000000
     73644     24548  TIP3      H2             50.7540533595       -7.1756422861       27.2979903535  W2        25406           0.0000000000
     73645     24549  TIP3      OH2            50.3254233595       -7.6452122861       31.3748703535  W2        25407           0.0000000000
     73646     24549  TIP3      H1             50.2871733595       -8.2915822861       32.0798303535  W2        25407           0.0000000000
     73647     24549  TIP3      H2             50.0030733595       -8.1117722861       30.6037403535  W2        25407           0.0000000000
     73648     24550  TIP3      OH2            42.6939233595       -8.0310022861       32.9678603535  W2        25408           0.0000000000
     73649     24550  TIP3      H1             42.7351333595       -8.6566722861       33.6911003535  W2        25408           0.0000000000
     73650     24550  TIP3      H2             43.3966933595       -7.4071422861       33.1499003535  W2        25408           0.0000000000
     73651     24551  TIP3      OH2            54.0314433595       -4.7061722861       29.6763803535  W2        25409           0.0000000000
     73652     24551  TIP3      H1             53.5907133595       -5.4265722861       30.1269403535  W2        25409           0.0000000000
     73653     24551  TIP3      H2             54.0184133595       -3.9854522861       30.3061503535  W2        25409           0.0000000000
     73654     24552  TIP3      OH2            43.6172333595       -3.5811122861       31.5027703535  W2        25410           0.0000000000
     73655     24552  TIP3      H1             43.2477533595       -4.3830622861       31.1332003535  W2        25410           0.0000000000
     73656     24552  TIP3      H2             44.5583433595       -3.7496222861       31.5491103535  W2        25410           0.0000000000
     73657     24553  TIP3      OH2            40.2272833595       -9.9208522861       26.8956503535  W2        25411           0.0000000000
     73658     24553  TIP3      H1             39.7796233595       -9.0749822861       26.8773003535  W2        25411           0.0000000000
     73659     24553  TIP3      H2             39.6664033595      -10.5004322861       26.3801603535  W2        25411           0.0000000000
     73660     24554  TIP3      OH2            40.9378933595       -7.7588922861       29.0214503535  W2        25412           0.0000000000
     73661     24554  TIP3      H1             41.1512433595       -8.5287322861       29.5487503535  W2        25412           0.0000000000
     73662     24554  TIP3      H2             41.6756533595       -7.6692222861       28.4182103535  W2        25412           0.0000000000
     73663     24555  TIP3      OH2            51.1429933595        0.3979977139       29.8884203535  W2        25413           0.0000000000
     73664     24555  TIP3      H1             51.7626333595       -0.2785322861       29.6153403535  W2        25413           0.0000000000
     73665     24555  TIP3      H2             50.9347333595        0.1800777139       30.7969103535  W2        25413           0.0000000000
     73666     24556  TIP3      OH2            48.7148633595       -5.2130722861       31.7809703535  W2        25414           0.0000000000
     73667     24556  TIP3      H1             49.0186533595       -5.8989322861       31.1863803535  W2        25414           0.0000000000
     73668     24556  TIP3      H2             49.4362633595       -5.0942022861       32.3987703535  W2        25414           0.0000000000
     73669     24557  TIP3      OH2            51.8555633595      -10.8188322861       32.1084503535  W2        25415           0.0000000000
     73670     24557  TIP3      H1             51.9981533595      -11.7651322861       32.1286103535  W2        25415           0.0000000000
     73671     24557  TIP3      H2             51.7494633595      -10.6118522861       31.1799403535  W2        25415           0.0000000000
     73672     24558  TIP3      OH2            45.0103933595      -12.7171922861       29.3809303535  W2        25416           0.0000000000
     73673     24558  TIP3      H1             45.0535033595      -11.8573422861       28.9625603535  W2        25416           0.0000000000
     73674     24558  TIP3      H2             44.5528033595      -13.2697222861       28.7472503535  W2        25416           0.0000000000
     73675     24559  TIP3      OH2            52.7326633595      -12.5866322861       27.7817603535  W2        25417           0.0000000000
     73676     24559  TIP3      H1             53.3790933595      -12.9153122861       28.4065203535  W2        25417           0.0000000000
     73677     24559  TIP3      H2             53.2426033595      -12.0687322861       27.1589003535  W2        25417           0.0000000000
     73678     24560  TIP3      OH2            41.6305433595      -10.3206122861       30.1430703535  W2        25418           0.0000000000
     73679     24560  TIP3      H1             42.2842033595      -10.8704422861       30.5750803535  W2        25418           0.0000000000
     73680     24560  TIP3      H2             41.6544733595      -10.5947122861       29.2262703535  W2        25418           0.0000000000
     73681     24561  TIP3      OH2            46.7869933595       -8.7704822861       29.3582203535  W2        25419           0.0000000000
     73682     24561  TIP3      H1             47.4030933595       -9.2969422861       29.8676203535  W2        25419           0.0000000000
     73683     24561  TIP3      H2             46.2008733595       -9.4106122861       28.9545803535  W2        25419           0.0000000000
     73684     24562  TIP3      OH2            43.8205833595      -13.7993522861       33.4550103535  W2        25420           0.0000000000
     73685     24562  TIP3      H1             43.6017533595      -13.2692922861       32.6886103535  W2        25420           0.0000000000
     73686     24562  TIP3      H2             43.1526733595      -13.5728022861       34.1021503535  W2        25420           0.0000000000
     73687     24563  TIP3      OH2            51.1895633595       -4.2992422861       26.9989203535  W2        25421           0.0000000000
     73688     24563  TIP3      H1             50.8940733595       -4.6220122861       26.1476103535  W2        25421           0.0000000000
     73689     24563  TIP3      H2             50.8653433595       -3.3995722861       27.0401803535  W2        25421           0.0000000000
     73690     24564  TIP3      OH2            46.3897233595       -6.1237822861       33.7423803535  W2        25422           0.0000000000
     73691     24564  TIP3      H1             45.6496333595       -5.5256322861       33.8459003535  W2        25422           0.0000000000
     73692     24564  TIP3      H2             47.1036733595       -5.5698222861       33.4267403535  W2        25422           0.0000000000
     73693     24565  TIP3      OH2            54.4965033595      -13.2957022861       29.7623503535  W2        25423           0.0000000000
     73694     24565  TIP3      H1             54.2813033595      -14.0613622861       30.2949503535  W2        25423           0.0000000000
     73695     24565  TIP3      H2             55.1522433595      -12.8232422861       30.2752003535  W2        25423           0.0000000000
     73696     24566  TIP3      OH2            43.4143133595      -11.9071722861       31.4072303535  W2        25424           0.0000000000
     73697     24566  TIP3      H1             44.0279433595      -11.2744122861       31.7804703535  W2        25424           0.0000000000
     73698     24566  TIP3      H2             43.9263833595      -12.3796722861       30.7509203535  W2        25424           0.0000000000
     73699     24567  TIP3      OH2            44.7971533595       -4.1594822861       34.5295303535  W2        25425           0.0000000000
     73700     24567  TIP3      H1             44.7919133595       -3.2801322861       34.1514603535  W2        25425           0.0000000000
     73701     24567  TIP3      H2             43.9435633595       -4.2430722861       34.9545203535  W2        25425           0.0000000000
     73702     24568  TIP3      OH2            40.9182433595       -4.4886922861       25.3114603535  W2        25426           0.0000000000
     73703     24568  TIP3      H1             40.6463333595       -4.2595922861       24.4227503535  W2        25426           0.0000000000
     73704     24568  TIP3      H2             40.9638133595       -3.6508122861       25.7719903535  W2        25426           0.0000000000
     73705     24569  TIP3      OH2            54.5432133595       -2.8671022861       32.0243103535  W2        25427           0.0000000000
     73706     24569  TIP3      H1             53.6015833595       -2.8087122861       32.1860003535  W2        25427           0.0000000000
     73707     24569  TIP3      H2             54.8198233595       -1.9610522861       31.8872803535  W2        25427           0.0000000000
     73708     24570  TIP3      OH2            47.8470533595      -16.4938422861       30.9075003535  W2        25428           0.0000000000
     73709     24570  TIP3      H1             47.7294733595      -17.4422422861       30.8533303535  W2        25428           0.0000000000
     73710     24570  TIP3      H2             46.9920633595      -16.1612322861       31.1806103535  W2        25428           0.0000000000
     73711     24571  TIP3      OH2            52.7953333595       -1.0857522861       28.6494703535  W2        25429           0.0000000000
     73712     24571  TIP3      H1             53.2205633595       -1.7929622861       28.1644303535  W2        25429           0.0000000000
     73713     24571  TIP3      H2             53.1123333595       -0.2844822861       28.2326903535  W2        25429           0.0000000000
     73714     24572  TIP3      OH2            53.9549833595       -3.1849022861       27.1581303535  W2        25430           0.0000000000
     73715     24572  TIP3      H1             53.6974633595       -3.8748922861       26.5467203535  W2        25430           0.0000000000
     73716     24572  TIP3      H2             54.0260633595       -3.6277822861       28.0037203535  W2        25430           0.0000000000
     73717     24573  TIP3      OH2            50.1135433595       -7.6562822861       25.4080803535  W2        25431           0.0000000000
     73718     24573  TIP3      H1             49.4020933595       -7.1213122861       25.0561303535  W2        25431           0.0000000000
     73719     24573  TIP3      H2             50.8045033595       -7.6010722861       24.7479703535  W2        25431           0.0000000000
     73720     24574  TIP3      OH2            50.1674633595       -9.1988522861       22.4465803535  W2        25432           0.0000000000
     73721     24574  TIP3      H1             50.8684533595       -9.1761622861       23.0979803535  W2        25432           0.0000000000
     73722     24574  TIP3      H2             50.4697533595       -9.8268822861       21.7905103535  W2        25432           0.0000000000
     73723     24575  TIP3      OH2            53.5193133595       -7.4469522861       26.3596703535  W2        25433           0.0000000000
     73724     24575  TIP3      H1             52.7874133595       -7.2185822861       26.9327303535  W2        25433           0.0000000000
     73725     24575  TIP3      H2             53.9665333595       -8.1606822861       26.8144203535  W2        25433           0.0000000000
     73726     24576  TIP3      OH2            53.4166633595       -9.2726922861       35.4273703535  W2        25434           0.0000000000
     73727     24576  TIP3      H1             53.4965733595       -8.5092522861       35.9992203535  W2        25434           0.0000000000
     73728     24576  TIP3      H2             52.8154333595       -8.9934522861       34.7368803535  W2        25434           0.0000000000
     73729     24577  TIP3      OH2            45.1646833595       -6.8163322861       28.2421703535  W2        25435           0.0000000000
     73730     24577  TIP3      H1             44.8342033595       -7.1869922861       27.4238703535  W2        25435           0.0000000000
     73731     24577  TIP3      H2             45.7530933595       -7.4869322861       28.5890003535  W2        25435           0.0000000000
     73732     24578  TIP3      OH2            46.5314333595       -3.3882722861       30.9233903535  W2        25436           0.0000000000
     73733     24578  TIP3      H1             46.4365633595       -3.9669622861       30.1668503535  W2        25436           0.0000000000
     73734     24578  TIP3      H2             47.2607933595       -3.7597022861       31.4196703535  W2        25436           0.0000000000
     73735     24579  TIP3      OH2            45.5312333595       -8.0477722861       31.8756703535  W2        25437           0.0000000000
     73736     24579  TIP3      H1             46.0964833595       -7.9263522861       31.1127903535  W2        25437           0.0000000000
     73737     24579  TIP3      H2             45.8501233595       -7.4102722861       32.5145203535  W2        25437           0.0000000000
     73738     24580  TIP3      OH2            51.8404533595       -2.5445822861       32.6097203535  W2        25438           0.0000000000
     73739     24580  TIP3      H1             51.6001133595       -1.8822722861       33.2576403535  W2        25438           0.0000000000
     73740     24580  TIP3      H2             51.6422733595       -3.3790622861       33.0346803535  W2        25438           0.0000000000
     73741     24581  TIP3      OH2            52.3902633595       -8.2846622861       24.0447903535  W2        25440           0.0000000000
     73742     24581  TIP3      H1             52.9698133595       -8.1346322861       24.7916803535  W2        25440           0.0000000000
     73743     24581  TIP3      H2             52.8042633595       -7.8139222861       23.3214303535  W2        25440           0.0000000000
     73744     24582  TIP3      OH2            50.1167533595       -1.5478122861       27.4801003535  W2        25442           0.0000000000
     73745     24582  TIP3      H1             50.5905133595       -1.2521822861       28.2575203535  W2        25442           0.0000000000
     73746     24582  TIP3      H2             49.5536833595       -0.8096522861       27.2470603535  W2        25442           0.0000000000
     73747     24583  TIP3      OH2            44.1549533595       -7.7469022861       25.8314503535  W2        25444           0.0000000000
     73748     24583  TIP3      H1             43.8630833595       -6.9787322861       25.3405803535  W2        25444           0.0000000000
     73749     24583  TIP3      H2             43.4804733595       -8.4062822861       25.6685903535  W2        25444           0.0000000000
     73750     24584  TIP3      OH2            40.2479633595       -5.3839822861       34.6464303535  W2        25445           0.0000000000
     73751     24584  TIP3      H1             39.7468033595       -5.4120422861       33.8314003535  W2        25445           0.0000000000
     73752     24584  TIP3      H2             40.2533333595       -6.2896622861       34.9561603535  W2        25445           0.0000000000
     73753     24585  TIP3      OH2            39.9982333595       -2.6036022861       31.5304503535  W2        25446           0.0000000000
     73754     24585  TIP3      H1             40.9442933595       -2.7479022861       31.5114003535  W2        25446           0.0000000000
     73755     24585  TIP3      H2             39.8858633595       -1.8193222861       32.0675703535  W2        25446           0.0000000000
     73756     24586  TIP3      OH2            49.5890633595        1.4086577139       25.8950203535  W2        25448           0.0000000000
     73757     24586  TIP3      H1             49.5136633595        1.2873777139       24.9485403535  W2        25448           0.0000000000
     73758     24586  TIP3      H2             49.6219333595        2.3579277139       26.0134803535  W2        25448           0.0000000000
     73759     24587  TIP3      OH2            43.2424433595        0.1973577139       27.6759203535  W2        25449           0.0000000000
     73760     24587  TIP3      H1             43.3944833595       -0.1506022861       28.5545703535  W2        25449           0.0000000000
     73761     24587  TIP3      H2             42.3914833595       -0.1589122861       27.4206403535  W2        25449           0.0000000000
     73762     24588  TIP3      OH2            52.6906633595        0.5626777139       22.8972603535  W2        25450           0.0000000000
     73763     24588  TIP3      H1             53.0655033595       -0.1817122861       22.4265203535  W2        25450           0.0000000000
     73764     24588  TIP3      H2             52.6950333595        0.2927377139       23.8155903535  W2        25450           0.0000000000
     73765     24589  TIP3      OH2            52.3594733595        0.4883877139       25.6464803535  W2        25451           0.0000000000
     73766     24589  TIP3      H1             51.4244533595        0.5885777139       25.8251803535  W2        25451           0.0000000000
     73767     24589  TIP3      H2             52.6396633595       -0.2210122861       26.2248003535  W2        25451           0.0000000000
     73768     24590  TIP3      OH2            45.1158133595      -15.5903922861       31.6851303535  W2        25453           0.0000000000
     73769     24590  TIP3      H1             44.2541833595      -15.6775722861       31.2774203535  W2        25453           0.0000000000
     73770     24590  TIP3      H2             45.0933833595      -14.7343822861       32.1128903535  W2        25453           0.0000000000
     73771     24591  TIP3      OH2            49.7785933595      -15.8683522861       35.0598303535  W2        25454           0.0000000000
     73772     24591  TIP3      H1             50.1989033595      -16.2836422861       35.8128903535  W2        25454           0.0000000000
     73773     24591  TIP3      H2             48.8455533595      -16.0470222861       35.1770303535  W2        25454           0.0000000000
     73774     24592  TIP3      OH2            53.8675733595       -7.2518322861       21.6745803535  W2        25456           0.0000000000
     73775     24592  TIP3      H1             53.9096533595       -7.4744422861       20.7445803535  W2        25456           0.0000000000
     73776     24592  TIP3      H2             54.7167833595       -6.8531222861       21.8645703535  W2        25456           0.0000000000
     73777     24593  TIP3      OH2            49.4403233595      -13.3760122861       22.3449103535  W2        25457           0.0000000000
     73778     24593  TIP3      H1             49.1868033595      -13.3568522861       23.2677203535  W2        25457           0.0000000000
     73779     24593  TIP3      H2             49.1835333595      -14.2474722861       22.0435303535  W2        25457           0.0000000000
     73780     24594  TIP3      OH2            45.2068233595      -10.6249422861       32.7801503535  W2        25458           0.0000000000
     73781     24594  TIP3      H1             44.5650333595      -10.6652122861       33.4891603535  W2        25458           0.0000000000
     73782     24594  TIP3      H2             45.2440233595       -9.6984722861       32.5424503535  W2        25458           0.0000000000
     73783     24595  TIP3      OH2            45.2037333595      -10.4039322861       27.6921503535  W2        25459           0.0000000000
     73784     24595  TIP3      H1             44.3110233595      -10.7443222861       27.6335303535  W2        25459           0.0000000000
     73785     24595  TIP3      H2             45.6543933595      -10.7808422861       26.9364703535  W2        25459           0.0000000000
     73786     24596  TIP3      OH2            50.7392833595       -9.9879022861       26.5092303535  W2        25460           0.0000000000
     73787     24596  TIP3      H1             50.3303133595       -9.1730422861       26.2177103535  W2        25460           0.0000000000
     73788     24596  TIP3      H2             51.4599033595      -10.1278922861       25.8949403535  W2        25460           0.0000000000
     73789     24597  TIP3      OH2            51.7440533595      -10.5418622861       29.3232003535  W2        25462           0.0000000000
     73790     24597  TIP3      H1             51.5485033595       -9.9361822861       28.6082603535  W2        25462           0.0000000000
     73791     24597  TIP3      H2             51.9253133595      -11.3753422861       28.8888303535  W2        25462           0.0000000000
     73792     24598  TIP3      OH2            42.9568733595      -10.3045922861       34.6473503535  W2        25463           0.0000000000
     73793     24598  TIP3      H1             42.9188133595       -9.9044322861       35.5160603535  W2        25463           0.0000000000
     73794     24598  TIP3      H2             42.4659833595      -11.1213522861       34.7376403535  W2        25463           0.0000000000
     73795     24599  TIP3      OH2            46.3226133595      -12.9303622861       21.4459503535  W2        25464           0.0000000000
     73796     24599  TIP3      H1             45.8916833595      -13.3753522861       22.1756903535  W2        25464           0.0000000000
     73797     24599  TIP3      H2             45.6044833595      -12.5587322861       20.9337003535  W2        25464           0.0000000000
     73798     24600  TIP3      OH2            39.5649533595      -13.1884122861       28.4978203535  W2        25465           0.0000000000
     73799     24600  TIP3      H1             40.1957233595      -13.2172022861       29.2172103535  W2        25465           0.0000000000
     73800     24600  TIP3      H2             40.0143833595      -13.6135422861       27.7674103535  W2        25465           0.0000000000
     73801     24601  TIP3      OH2            40.8391633595      -12.4422122861       23.9218603535  W2        25466           0.0000000000
     73802     24601  TIP3      H1             41.3133333595      -11.8512222861       23.3369503535  W2        25466           0.0000000000
     73803     24601  TIP3      H2             40.1218033595      -11.9119222861       24.2688703535  W2        25466           0.0000000000
     73804     24602  TIP3      OH2            51.0079733595       -8.9037322861       33.9944403535  W2        25467           0.0000000000
     73805     24602  TIP3      H1             51.3314533595       -9.5347622861       33.3514903535  W2        25467           0.0000000000
     73806     24602  TIP3      H2             50.5679033595       -9.4385122861       34.6551803535  W2        25467           0.0000000000
     73807     24603  TIP3      OH2            47.7852633595      -12.9761822861       28.7785603535  W2        25468           0.0000000000
     73808     24603  TIP3      H1             46.8743733595      -12.9195022861       29.0671603535  W2        25468           0.0000000000
     73809     24603  TIP3      H2             48.2905533595      -13.0366322861       29.5892803535  W2        25468           0.0000000000
     73810     24604  TIP3      OH2            42.6136033595      -11.3475522861       27.6053203535  W2        25469           0.0000000000
     73811     24604  TIP3      H1             41.7244033595      -11.2480022861       27.2652803535  W2        25469           0.0000000000
     73812     24604  TIP3      H2             42.9100933595      -12.1892522861       27.2591103535  W2        25469           0.0000000000
     73813     24605  TIP3      OH2            46.2667833595      -11.3472922861       25.2617803535  W2        25470           0.0000000000
     73814     24605  TIP3      H1             47.1983333595      -11.2182922861       25.4400903535  W2        25470           0.0000000000
     73815     24605  TIP3      H2             46.0518133595      -10.6778622861       24.6122503535  W2        25470           0.0000000000
     73816     24606  TIP3      OH2            52.1904533595      -13.7415522861       32.0427403535  W2        25471           0.0000000000
     73817     24606  TIP3      H1             51.5136133595      -13.6102422861       32.7067103535  W2        25471           0.0000000000
     73818     24606  TIP3      H2             51.7049433595      -13.8966022861       31.2325103535  W2        25471           0.0000000000
     73819     24607  TIP3      OH2            44.9408033595      -10.1530722861       22.8283903535  W2        25472           0.0000000000
     73820     24607  TIP3      H1             44.3983133595      -10.5326922861       22.1371503535  W2        25472           0.0000000000
     73821     24607  TIP3      H2             45.7742933595       -9.9586022861       22.3998003535  W2        25472           0.0000000000
     73822     24608  TIP3      OH2            49.1052333595      -10.1888822861       30.6655203535  W2        25474           0.0000000000
     73823     24608  TIP3      H1             49.6695733595      -10.7352222861       30.1184803535  W2        25474           0.0000000000
     73824     24608  TIP3      H2             48.9575733595      -10.7106922861       31.4542803535  W2        25474           0.0000000000
     73825     24609  TIP3      OH2            44.1072033595      -14.0522722861       27.0840003535  W2        25475           0.0000000000
     73826     24609  TIP3      H1             43.7901533595      -14.9547422861       27.0485403535  W2        25475           0.0000000000
     73827     24609  TIP3      H2             44.8886133595      -14.0505322861       26.5311603535  W2        25475           0.0000000000
     73828     24610  TIP3      OH2            47.7318233595      -11.8002722861       33.0795603535  W2        25476           0.0000000000
     73829     24610  TIP3      H1             46.8963533595      -11.3463222861       33.1898003535  W2        25476           0.0000000000
     73830     24610  TIP3      H2             48.2558833595      -11.5244222861       33.8315503535  W2        25476           0.0000000000
     73831     24611  TIP3      OH2            48.2760833595       -5.5875022861       24.7642003535  W2        25477           0.0000000000
     73832     24611  TIP3      H1             47.5311833595       -6.0949722861       24.4419903535  W2        25477           0.0000000000
     73833     24611  TIP3      H2             48.1418033595       -5.5387022861       25.7106803535  W2        25477           0.0000000000
     73834     24612  TIP3      OH2            52.1737633595      -12.7735122861       22.9634603535  W2        25478           0.0000000000
     73835     24612  TIP3      H1             51.2351833595      -12.6619522861       22.8123403535  W2        25478           0.0000000000
     73836     24612  TIP3      H2             52.4709733595      -11.9168222861       23.2700303535  W2        25478           0.0000000000
     73837     24613  TIP3      OH2            52.8921133595      -10.9062422861       24.6242003535  W2        25480           0.0000000000
     73838     24613  TIP3      H1             53.7840133595      -11.0437422861       24.9433203535  W2        25480           0.0000000000
     73839     24613  TIP3      H2             52.9484733595      -10.1156322861       24.0875503535  W2        25480           0.0000000000
     73840     24614  TIP3      OH2            43.4009133595       -6.2925022861       30.5339903535  W2        25481           0.0000000000
     73841     24614  TIP3      H1             44.1456333595       -6.2949322861       29.9326403535  W2        25481           0.0000000000
     73842     24614  TIP3      H2             43.4785733595       -7.1161222861       31.0155003535  W2        25481           0.0000000000
     73843     24615  TIP3      OH2            50.4014933595       -4.1290722861       23.7896603535  W2        25482           0.0000000000
     73844     24615  TIP3      H1             50.1063333595       -3.3022822861       24.1711403535  W2        25482           0.0000000000
     73845     24615  TIP3      H2             49.6984933595       -4.7483822861       23.9858003535  W2        25482           0.0000000000
     73846     24616  TIP3      OH2            53.2325433595       -7.1028422861       31.8052703535  W2        25486           0.0000000000
     73847     24616  TIP3      H1             52.3042333595       -7.3346522861       31.7782003535  W2        25486           0.0000000000
     73848     24616  TIP3      H2             53.6836533595       -7.8798622861       31.4751503535  W2        25486           0.0000000000
     73849     24617  TIP3      OH2            45.7758533595       -2.7746822861       27.9381403535  W2        25487           0.0000000000
     73850     24617  TIP3      H1             46.3030733595       -2.0012422861       27.7380203535  W2        25487           0.0000000000
     73851     24617  TIP3      H2             44.8957033595       -2.5497622861       27.6365403535  W2        25487           0.0000000000
     73852     24618  TIP3      OH2            41.5306233595       -7.9122722861       22.5253803535  W2        25488           0.0000000000
     73853     24618  TIP3      H1             42.1466133595       -7.2855522861       22.9048603535  W2        25488           0.0000000000
     73854     24618  TIP3      H2             40.6688833595       -7.5962922861       22.7970303535  W2        25488           0.0000000000
     73855     24619  TIP3      OH2            47.2030833595       -5.1116922861       27.5145703535  W2        25489           0.0000000000
     73856     24619  TIP3      H1             46.9620833595       -4.1862522861       27.5561003535  W2        25489           0.0000000000
     73857     24619  TIP3      H2             46.4624433595       -5.5705622861       27.9109603535  W2        25489           0.0000000000
     73858     24620  TIP3      OH2            47.7177433595       -0.9623322861       33.8296803535  W2        25490           0.0000000000
     73859     24620  TIP3      H1             48.0802133595       -0.1077722861       33.5961203535  W2        25490           0.0000000000
     73860     24620  TIP3      H2             48.2492633595       -1.2541722861       34.5703103535  W2        25490           0.0000000000
     73861     24621  TIP3      OH2            45.8861633595       -0.0899322861       27.0597903535  W2        25491           0.0000000000
     73862     24621  TIP3      H1             44.9362133595        0.0158077139       27.1111203535  W2        25491           0.0000000000
     73863     24621  TIP3      H2             46.2379733595        0.7308077139       27.4045403535  W2        25491           0.0000000000
     73864     24622  TIP3      OH2            51.2618233595       -4.8632622861       33.5302403535  W2        25492           0.0000000000
     73865     24622  TIP3      H1             50.8359533595       -5.0910922861       34.3566403535  W2        25492           0.0000000000
     73866     24622  TIP3      H2             51.8424033595       -5.6020822861       33.3477703535  W2        25492           0.0000000000
     73867     24623  TIP3      OH2            53.4647133595       -3.9342122861       22.6041403535  W2        25493           0.0000000000
     73868     24623  TIP3      H1             53.8180233595       -4.3142322861       23.4084903535  W2        25493           0.0000000000
     73869     24623  TIP3      H2             52.5160633595       -4.0277322861       22.6910703535  W2        25493           0.0000000000
     73870     24624  TIP3      OH2            42.0428333595      -13.0785422861       35.4069803535  W2        25495           0.0000000000
     73871     24624  TIP3      H1             41.1500633595      -12.7400022861       35.3393803535  W2        25495           0.0000000000
     73872     24624  TIP3      H2             41.9441133595      -13.9339322861       35.8250603535  W2        25495           0.0000000000
     73873     24625  TIP3      OH2            54.3306433595       -5.2620122861       24.8309303535  W2        25496           0.0000000000
     73874     24625  TIP3      H1             54.0534033595       -5.9900822861       25.3870403535  W2        25496           0.0000000000
     73875     24625  TIP3      H2             55.2579433595       -5.1428122861       25.0361903535  W2        25496           0.0000000000
     73876     24626  TIP3      OH2            41.6940333595       -1.2741022861       33.8419203535  W2        25497           0.0000000000
     73877     24626  TIP3      H1             41.9110633595       -2.2058622861       33.8108903535  W2        25497           0.0000000000
     73878     24626  TIP3      H2             41.9403833595       -0.9996022861       34.7252003535  W2        25497           0.0000000000
     73879     24627  TIP3      OH2            47.5554933595       -2.8226022861       21.0511403535  W2        25498           0.0000000000
     73880     24627  TIP3      H1             47.7944733595       -3.5707922861       20.5040303535  W2        25498           0.0000000000
     73881     24627  TIP3      H2             47.2866233595       -3.2104322861       21.8839203535  W2        25498           0.0000000000
     73882     24628  TIP3      OH2            46.4925533595       -3.2522222861       23.5074003535  W2        25499           0.0000000000
     73883     24628  TIP3      H1             46.6393533595       -3.7722422861       24.2974903535  W2        25499           0.0000000000
     73884     24628  TIP3      H2             46.4897233595       -2.3454622861       23.8139903535  W2        25499           0.0000000000
     73885     24629  TIP3      OH2            42.9456633595       -5.9998922861       24.0179403535  W2        25500           0.0000000000
     73886     24629  TIP3      H1             42.2595933595       -5.6476422861       24.5849103535  W2        25500           0.0000000000
     73887     24629  TIP3      H2             43.4684533595       -5.2369322861       23.7713703535  W2        25500           0.0000000000
     73888     24630  TIP3      OH2            50.7771733595      -13.3375122861       34.2968403535  W2        25501           0.0000000000
     73889     24630  TIP3      H1             51.4759633595      -13.2636422861       34.9468103535  W2        25501           0.0000000000
     73890     24630  TIP3      H2             50.3963133595      -14.2020122861       34.4511303535  W2        25501           0.0000000000
     73891     24631  TIP3      OH2            51.5616633595      -13.6853422861       25.3940703535  W2        25502           0.0000000000
     73892     24631  TIP3      H1             51.7814933595      -13.2138022861       24.5906103535  W2        25502           0.0000000000
     73893     24631  TIP3      H2             52.1200633595      -13.2910822861       26.0641303535  W2        25502           0.0000000000
     73894     24632  TIP3      OH2            49.2302733595       -1.5548622861       24.2568203535  W2        25503           0.0000000000
     73895     24632  TIP3      H1             48.4138833595       -1.0578922861       24.3092503535  W2        25503           0.0000000000
     73896     24632  TIP3      H2             49.7599033595       -1.0795122861       23.6167003535  W2        25503           0.0000000000
     73897     24633  TIP3      OH2            48.7616533595      -11.9574622861       26.2289103535  W2        25504           0.0000000000
     73898     24633  TIP3      H1             49.5739133595      -11.4531422861       26.2750803535  W2        25504           0.0000000000
     73899     24633  TIP3      H2             48.5169533595      -12.1024922861       27.1428703535  W2        25504           0.0000000000
     73900     24634  TIP3      OH2            49.2972933595      -10.9711922861       35.4135703535  W2        25505           0.0000000000
     73901     24634  TIP3      H1             49.4163233595      -10.3976522861       36.1706103535  W2        25505           0.0000000000
     73902     24634  TIP3      H2             49.9527533595      -11.6592522861       35.5283503535  W2        25505           0.0000000000
     73903     24635  TIP3      OH2            49.6453233595      -14.8761622861       27.1670203535  W2        25506           0.0000000000
     73904     24635  TIP3      H1             49.2986733595      -14.2591022861       27.8114503535  W2        25506           0.0000000000
     73905     24635  TIP3      H2             50.3040133595      -14.3755922861       26.6855703535  W2        25506           0.0000000000
     73906     24636  TIP3      OH2            46.5685833595       -0.5111422861       24.2385103535  W2        25507           0.0000000000
     73907     24636  TIP3      H1             46.7294533595        0.2886077139       23.7377703535  W2        25507           0.0000000000
     73908     24636  TIP3      H2             46.3713633595       -0.2045422861       25.1235703535  W2        25507           0.0000000000
     73909     24637  TIP3      OH2            45.3030233595      -13.8132222861       23.8542703535  W2        25508           0.0000000000
     73910     24637  TIP3      H1             45.2195033595      -12.9249122861       24.2009103535  W2        25508           0.0000000000
     73911     24637  TIP3      H2             46.1930533595      -14.0785522861       24.0859503535  W2        25508           0.0000000000
     73912     24638  TIP3      OH2            54.1039733595       -9.3140622861       30.3442703535  W2        25509           0.0000000000
     73913     24638  TIP3      H1             53.3064133595       -9.7290422861       30.0157703535  W2        25509           0.0000000000
     73914     24638  TIP3      H2             54.5490833595      -10.0046922861       30.8353203535  W2        25509           0.0000000000
     73915     24639  TIP3      OH2            43.5615533595       -3.3860022861       22.9147203535  W2        25510           0.0000000000
     73916     24639  TIP3      H1             44.1537033595       -2.6865222861       23.1909603535  W2        25510           0.0000000000
     73917     24639  TIP3      H2             44.0208533595       -3.8190522861       22.1951803535  W2        25510           0.0000000000
     73918     24640  TIP3      OH2            41.8774733595      -10.7217022861       22.0306603535  W2        25511           0.0000000000
     73919     24640  TIP3      H1             41.8327333595       -9.7823922861       22.2093603535  W2        25511           0.0000000000
     73920     24640  TIP3      H2             40.9897933595      -10.9572122861       21.7608703535  W2        25511           0.0000000000
     73921     24641  TIP3      OH2            42.6856733595      -15.9400422861       30.7037603535  W2        25512           0.0000000000
     73922     24641  TIP3      H1             42.4566533595      -15.8807922861       29.7762603535  W2        25512           0.0000000000
     73923     24641  TIP3      H2             42.2430133595      -16.7314922861       31.0101703535  W2        25512           0.0000000000
     73924     24642  TIP3      OH2            41.6160033595       -1.9993322861       26.8643403535  W2        25513           0.0000000000
     73925     24642  TIP3      H1             40.7838633595       -1.5270622861       26.8914803535  W2        25513           0.0000000000
     73926     24642  TIP3      H2             42.1618333595       -1.4895722861       26.2656503535  W2        25513           0.0000000000
     73927     24643  TIP3      OH2            49.5936733595       -0.9594622861       21.1897403535  W2        25516           0.0000000000
     73928     24643  TIP3      H1             48.9497733595       -1.5906022861       21.5111103535  W2        25516           0.0000000000
     73929     24643  TIP3      H2             50.3555033595       -1.4906622861       20.9580903535  W2        25516           0.0000000000
     73930     24644  TIP3      OH2            54.1979633595       -1.1424722861       21.4235403535  W2        25518           0.0000000000
     73931     24644  TIP3      H1             54.4810033595       -1.9369522861       21.8762303535  W2        25518           0.0000000000
     73932     24644  TIP3      H2             54.9377533595       -0.9093722861       20.8626503535  W2        25518           0.0000000000
     73933     24645  TIP3      OH2            45.1526933595       -5.2329822861       21.2810303535  W2        25520           0.0000000000
     73934     24645  TIP3      H1             45.2171033595       -6.0270222861       21.8116703535  W2        25520           0.0000000000
     73935     24645  TIP3      H2             45.8056133595       -5.3517022861       20.5912303535  W2        25520           0.0000000000
     73936     24646  TIP3      OH2            50.5050333595       -4.1858122861       21.0168303535  W2        25522           0.0000000000
     73937     24646  TIP3      H1             50.2364433595       -4.0056022861       21.9177203535  W2        25522           0.0000000000
     73938     24646  TIP3      H2             50.2985933595       -5.1111922861       20.8854103535  W2        25522           0.0000000000
     73939     24647  TIP3      OH2            46.3020733595       -7.2603622861       23.5868303535  W2        25525           0.0000000000
     73940     24647  TIP3      H1             45.8422733595       -7.7445322861       24.2726803535  W2        25525           0.0000000000
     73941     24647  TIP3      H2             46.5569433595       -7.9288222861       22.9508803535  W2        25525           0.0000000000
     73942     24648  TIP3      OH2            47.3731133595       -9.0171822861       21.8491503535  W2        25527           0.0000000000
     73943     24648  TIP3      H1             47.1926133595       -9.1720622861       20.9219803535  W2        25527           0.0000000000
     73944     24648  TIP3      H2             48.3231633595       -8.9093122861       21.8939403535  W2        25527           0.0000000000
     73945     24649  TIP3      OH2            46.3429433595      -13.6429922861       34.5178403535  W2        25530           0.0000000000
     73946     24649  TIP3      H1             46.8786933595      -13.1913222861       33.8657703535  W2        25530           0.0000000000
     73947     24649  TIP3      H2             45.4909033595      -13.7510122861       34.0952503535  W2        25530           0.0000000000
     73948     24650  TIP3      OH2            47.9247833595       -8.2033722861       34.7573603535  W2        25531           0.0000000000
     73949     24650  TIP3      H1             48.6752633595       -8.3596222861       34.1841403535  W2        25531           0.0000000000
     73950     24650  TIP3      H2             47.5856133595       -7.3517122861       34.4819103535  W2        25531           0.0000000000
     73951     24651  TIP3      OH2            47.1484933595      -16.1864222861       34.9492003535  W2        25535           0.0000000000
     73952     24651  TIP3      H1             47.0504533595      -15.2401022861       34.8438203535  W2        25535           0.0000000000
     73953     24651  TIP3      H2             46.4061133595      -16.5590422861       34.4735503535  W2        25535           0.0000000000
     73954     24652  TIP3      OH2            47.2702833595        1.6731877139       22.8505103535  W2        25542           0.0000000000
     73955     24652  TIP3      H1             48.2033533595        1.8310577139       22.9943503535  W2        25542           0.0000000000
     73956     24652  TIP3      H2             47.0061633595        2.3484877139       22.2256603535  W2        25542           0.0000000000
     73957     24653  TIP3      OH2            40.8387733595       -3.6904322861       22.3333203535  W2        25543           0.0000000000
     73958     24653  TIP3      H1             41.7526933595       -3.6115422861       22.6067103535  W2        25543           0.0000000000
     73959     24653  TIP3      H2             40.8460833595       -4.3774722861       21.6668803535  W2        25543           0.0000000000
     73960     24654  TIP3      OH2            39.4878333595        1.7024177139       27.4107103535  W2        25544           0.0000000000
     73961     24654  TIP3      H1             38.8405433595        1.2405877139       26.8778303535  W2        25544           0.0000000000
     73962     24654  TIP3      H2             39.8422933595        1.0307477139       27.9933303535  W2        25544           0.0000000000
     73963     24655  TIP3      OH2            40.3577533595       -0.2168822861       29.2153303535  W2        25545           0.0000000000
     73964     24655  TIP3      H1             40.0234333595       -1.0971522861       29.3873503535  W2        25545           0.0000000000
     73965     24655  TIP3      H2             40.5799933595        0.1286177139       30.0798903535  W2        25545           0.0000000000
     73966     24656  TIP3      OH2            40.4377033595       -7.1413422861       31.6668203535  W2        25546           0.0000000000
     73967     24656  TIP3      H1             40.6219933595       -7.2231722861       30.7311103535  W2        25546           0.0000000000
     73968     24656  TIP3      H2             41.2869933595       -7.2656422861       32.0904603535  W2        25546           0.0000000000
     73969     24657  TIP3      OH2            41.2564333595      -13.5586822861       30.6989903535  W2        25548           0.0000000000
     73970     24657  TIP3      H1             41.7015933595      -14.3504322861       31.0009603535  W2        25548           0.0000000000
     73971     24657  TIP3      H2             41.7227333595      -12.8421622861       31.1295503535  W2        25548           0.0000000000
     73972     24658  TIP3      OH2            39.5604633595      -10.5593822861       31.7680103535  W2        25549           0.0000000000
     73973     24658  TIP3      H1             40.0524433595      -10.7803322861       30.9772103535  W2        25549           0.0000000000
     73974     24658  TIP3      H2             39.9225533595       -9.7190422861       32.0489603535  W2        25549           0.0000000000
     73975     24659  TIP3      OH2            39.8741133595      -14.3014722861       25.8222503535  W2        25550           0.0000000000
     73976     24659  TIP3      H1             38.9489533595      -14.0928122861       25.6928003535  W2        25550           0.0000000000
     73977     24659  TIP3      H2             40.3281033595      -13.8173922861       25.1324803535  W2        25550           0.0000000000
     73978     24660  TIP3      OH2            54.6448333595        0.6826977139       27.7679903535  W2        25551           0.0000000000
     73979     24660  TIP3      H1             55.2971233595        0.3349077139       27.1599003535  W2        25551           0.0000000000
     73980     24660  TIP3      H2             55.1552133595        1.1710177139       28.4139603535  W2        25551           0.0000000000
     73981     24661  TIP3      OH2            39.8376533595      -15.5635722861       34.1665003535  W2        25552           0.0000000000
     73982     24661  TIP3      H1             39.1727033595      -15.8095422861       34.8095903535  W2        25552           0.0000000000
     73983     24661  TIP3      H2             39.3947833595      -14.9415322861       33.5893003535  W2        25552           0.0000000000
     73984     24662  TIP3      OH2            44.9838733595       -1.4140422861       34.5694803535  W2        25554           0.0000000000
     73985     24662  TIP3      H1             44.5589833595       -0.6041922861       34.2869403535  W2        25554           0.0000000000
     73986     24662  TIP3      H2             45.8881533595       -1.3286322861       34.2674603535  W2        25554           0.0000000000
     73987     24663  TIP3      OH2            42.3855433595        1.8423477139       34.6170103535  W2        25557           0.0000000000
     73988     24663  TIP3      H1             41.6651833595        2.2824477139       34.1657803535  W2        25557           0.0000000000
     73989     24663  TIP3      H2             42.0199433595        1.5918177139       35.4654103535  W2        25557           0.0000000000
     73990     24664  TIP3      OH2            44.8528033595        1.4427377139       33.6467303535  W2        25558           0.0000000000
     73991     24664  TIP3      H1             43.9880233595        1.5145877139       34.0507403535  W2        25558           0.0000000000
     73992     24664  TIP3      H2             44.7977033595        1.9894677139       32.8629803535  W2        25558           0.0000000000
     73993     24665  TIP3      OH2            49.5633633595        1.3306277139       32.8223303535  W2        25559           0.0000000000
     73994     24665  TIP3      H1             49.1067633595        1.8595977139       32.1681703535  W2        25559           0.0000000000
     73995     24665  TIP3      H2             49.7261633595        1.9337677139       33.5475603535  W2        25559           0.0000000000
     73996     24666  TIP3      OH2            51.8909933595        0.2085877139       33.7673603535  W2        25560           0.0000000000
     73997     24666  TIP3      H1             50.9863633595        0.3736077139       33.5015703535  W2        25560           0.0000000000
     73998     24666  TIP3      H2             52.3198533595        1.0618077139       33.7017003535  W2        25560           0.0000000000
     73999     24667  TIP3      OH2            54.4951833595        1.7784977139       34.0621403535  W2        25561           0.0000000000
     74000     24667  TIP3      H1             54.3133833595        2.6943877139       33.8516303535  W2        25561           0.0000000000
     74001     24667  TIP3      H2             54.6719633595        1.3682077139       33.2156003535  W2        25561           0.0000000000
     74002     24668  TIP3      OH2            41.8003533595        0.4655977139       31.5271903535  W2        25562           0.0000000000
     74003     24668  TIP3      H1             41.7819533595        0.0401077139       32.3844203535  W2        25562           0.0000000000
     74004     24668  TIP3      H2             42.6051433595        0.1470977139       31.1184103535  W2        25562           0.0000000000
     74005     24669  TIP3      OH2            43.9416633595       -0.8245322861       30.1821803535  W2        25563           0.0000000000
     74006     24669  TIP3      H1             43.7227333595       -1.7407922861       30.3517803535  W2        25563           0.0000000000
     74007     24669  TIP3      H2             44.7658833595       -0.6844922861       30.6483203535  W2        25563           0.0000000000
     74008     24670  TIP3      OH2            46.4789133595       -0.3546022861       31.0309803535  W2        25564           0.0000000000
     74009     24670  TIP3      H1             46.6914833595       -1.2427022861       30.7440703535  W2        25564           0.0000000000
     74010     24670  TIP3      H2             46.5434233595       -0.3888322861       31.9853803535  W2        25564           0.0000000000
     74011     24671  TIP3      OH2            49.9872833595      -14.6905422861       30.1753103535  W2        25565           0.0000000000
     74012     24671  TIP3      H1             49.3129633595      -15.3199822861       30.4308903535  W2        25565           0.0000000000
     74013     24671  TIP3      H2             50.5512033595      -15.1746522861       29.5721003535  W2        25565           0.0000000000
     74014     24672  TIP3      OH2            42.3140333595      -16.0565122861       27.9973003535  W2        25566           0.0000000000
     74015     24672  TIP3      H1             41.5370133595      -16.2910222861       27.4898903535  W2        25566           0.0000000000
     74016     24672  TIP3      H2             42.8443933595      -16.8533022861       28.0061003535  W2        25566           0.0000000000
     74017     24673  TIP3      OH2            41.1503733595      -16.2587022861       23.8009103535  W2        25567           0.0000000000
     74018     24673  TIP3      H1             41.5894433595      -15.6476522861       23.2092603535  W2        25567           0.0000000000
     74019     24673  TIP3      H2             40.5166133595      -15.7202922861       24.2749103535  W2        25567           0.0000000000
     74020     24674  TIP3      OH2            46.8932933595      -16.1298022861       27.8106103535  W2        25568           0.0000000000
     74021     24674  TIP3      H1             47.7676333595      -15.7413722861       27.7810403535  W2        25568           0.0000000000
     74022     24674  TIP3      H2             46.7573733595      -16.3450222861       28.7333303535  W2        25568           0.0000000000
     74023     24675  TIP3      OH2            52.4501333595      -16.0998222861       29.4597803535  W2        25569           0.0000000000
     74024     24675  TIP3      H1             52.5262933595      -16.0046622861       28.5103803535  W2        25569           0.0000000000
     74025     24675  TIP3      H2             52.1750533595      -17.0075322861       29.5886903535  W2        25569           0.0000000000
     74026     24676  TIP3      OH2            53.8033933595      -16.0740422861       25.1522803535  W2        25570           0.0000000000
     74027     24676  TIP3      H1             53.1005033595      -15.4591222861       24.9424203535  W2        25570           0.0000000000
     74028     24676  TIP3      H2             53.3585333595      -16.9113722861       25.2833703535  W2        25570           0.0000000000
     74029     24677  TIP3      OH2            41.0513233595       -0.3104822861       24.6984203535  W2        25571           0.0000000000
     74030     24677  TIP3      H1             40.3663133595       -0.3485922861       24.0309303535  W2        25571           0.0000000000
     74031     24677  TIP3      H2             41.0550433595        0.6022777139       24.9866303535  W2        25571           0.0000000000
     74032     24678  TIP3      OH2            43.0112833595      -14.3425522861       22.2433203535  W2        25572           0.0000000000
     74033     24678  TIP3      H1             43.5026233595      -14.9723122861       21.7158703535  W2        25572           0.0000000000
     74034     24678  TIP3      H2             43.6349133595      -14.0466122861       22.9064403535  W2        25572           0.0000000000
     74035     24679  TIP3      OH2            48.0372933595      -14.0494022861       24.7003703535  W2        25573           0.0000000000
     74036     24679  TIP3      H1             48.2154233595      -14.6960822861       25.3832303535  W2        25573           0.0000000000
     74037     24679  TIP3      H2             47.9839133595      -13.2156322861       25.1674803535  W2        25573           0.0000000000
     74038     24680  TIP3      OH2            49.9156733595        0.8990077139       23.0960403535  W2        25574           0.0000000000
     74039     24680  TIP3      H1             50.7816933595        1.2657477139       22.9178603535  W2        25574           0.0000000000
     74040     24680  TIP3      H2             49.6689533595        0.4598077139       22.2821203535  W2        25574           0.0000000000
     74041     24681  TIP3      OH2            42.8694433595        0.6095977139       21.7236303535  W2        25577           0.0000000000
     74042     24681  TIP3      H1             42.6019033595        0.8958877139       22.5969403535  W2        25577           0.0000000000
     74043     24681  TIP3      H2             43.6407033595        0.0635177139       21.8758803535  W2        25577           0.0000000000
     74044     24682  TIP3      OH2           -42.8877066405       11.9557177139       27.9560503535  W2        25579           0.0000000000
     74045     24682  TIP3      H1            -42.7985966405       12.8995377139       27.8237603535  W2        25579           0.0000000000
     74046     24682  TIP3      H2            -43.5259466405       11.6803577139       27.2979903535  W2        25579           0.0000000000
     74047     24683  TIP3      OH2           -43.9545766405       11.2107877139       31.3748703535  W2        25580           0.0000000000
     74048     24683  TIP3      H1            -43.9928266405       10.5644177139       32.0798303535  W2        25580           0.0000000000
     74049     24683  TIP3      H2            -44.2769266405       10.7442277139       30.6037403535  W2        25580           0.0000000000
     74050     24684  TIP3      OH2           -51.5860766405       10.8249977139       32.9678603535  W2        25581           0.0000000000
     74051     24684  TIP3      H1            -51.5448666405       10.1993277139       33.6911003535  W2        25581           0.0000000000
     74052     24684  TIP3      H2            -50.8833066405       11.4488577139       33.1499003535  W2        25581           0.0000000000
     74053     24685  TIP3      OH2           -40.2485566405       14.1498277139       29.6763803535  W2        25582           0.0000000000
     74054     24685  TIP3      H1            -40.6892866405       13.4294277139       30.1269403535  W2        25582           0.0000000000
     74055     24685  TIP3      H2            -40.2615866405       14.8705477139       30.3061503535  W2        25582           0.0000000000
     74056     24686  TIP3      OH2           -50.6627666405       15.2748877139       31.5027703535  W2        25583           0.0000000000
     74057     24686  TIP3      H1            -51.0322466405       14.4729377139       31.1332003535  W2        25583           0.0000000000
     74058     24686  TIP3      H2            -49.7216566405       15.1063777139       31.5491103535  W2        25583           0.0000000000
     74059     24687  TIP3      OH2           -54.0527166405        8.9351477139       26.8956503535  W2        25584           0.0000000000
     74060     24687  TIP3      H1            -54.5003766405        9.7810177139       26.8773003535  W2        25584           0.0000000000
     74061     24687  TIP3      H2            -54.6135966405        8.3555677139       26.3801603535  W2        25584           0.0000000000
     74062     24688  TIP3      OH2           -53.3421066405       11.0971077139       29.0214503535  W2        25585           0.0000000000
     74063     24688  TIP3      H1            -53.1287566405       10.3272677139       29.5487503535  W2        25585           0.0000000000
     74064     24688  TIP3      H2            -52.6043466405       11.1867777139       28.4182103535  W2        25585           0.0000000000
     74065     24689  TIP3      OH2           -43.1370066405       19.2539977139       29.8884203535  W2        25586           0.0000000000
     74066     24689  TIP3      H1            -42.5173666405       18.5774677139       29.6153403535  W2        25586           0.0000000000
     74067     24689  TIP3      H2            -43.3452666405       19.0360777139       30.7969103535  W2        25586           0.0000000000
     74068     24690  TIP3      OH2           -45.5651366405       13.6429277139       31.7809703535  W2        25587           0.0000000000
     74069     24690  TIP3      H1            -45.2613466405       12.9570677139       31.1863803535  W2        25587           0.0000000000
     74070     24690  TIP3      H2            -44.8437366405       13.7617977139       32.3987703535  W2        25587           0.0000000000
     74071     24691  TIP3      OH2           -36.9021566405        5.2444577139       32.6415903535  W2        25588           0.0000000000
     74072     24691  TIP3      H1            -36.8529366405        5.8545777139       33.3775003535  W2        25588           0.0000000000
     74073     24691  TIP3      H2            -36.4766466405        5.7055477139       31.9187003535  W2        25588           0.0000000000
     74074     24692  TIP3      OH2           -42.4244366405        8.0371677139       32.1084503535  W2        25589           0.0000000000
     74075     24692  TIP3      H1            -42.2818466405        7.0908677139       32.1286103535  W2        25589           0.0000000000
     74076     24692  TIP3      H2            -42.5305366405        8.2441477139       31.1799403535  W2        25589           0.0000000000
     74077     24693  TIP3      OH2           -49.2696066405        6.1388077139       29.3809303535  W2        25590           0.0000000000
     74078     24693  TIP3      H1            -49.2264966405        6.9986577139       28.9625603535  W2        25590           0.0000000000
     74079     24693  TIP3      H2            -49.7271966405        5.5862777139       28.7472503535  W2        25590           0.0000000000
     74080     24694  TIP3      OH2           -41.5473366405        6.2693677139       27.7817603535  W2        25591           0.0000000000
     74081     24694  TIP3      H1            -40.9009066405        5.9406877139       28.4065203535  W2        25591           0.0000000000
     74082     24694  TIP3      H2            -41.0373966405        6.7872677139       27.1589003535  W2        25591           0.0000000000
     74083     24695  TIP3      OH2           -52.6494566405        8.5353877139       30.1430703535  W2        25592           0.0000000000
     74084     24695  TIP3      H1            -51.9957966405        7.9855577139       30.5750803535  W2        25592           0.0000000000
     74085     24695  TIP3      H2            -52.6255266405        8.2612877139       29.2262703535  W2        25592           0.0000000000
     74086     24696  TIP3      OH2           -47.4930066405       10.0855177139       29.3582203535  W2        25593           0.0000000000
     74087     24696  TIP3      H1            -46.8769066405        9.5590577139       29.8676203535  W2        25593           0.0000000000
     74088     24696  TIP3      H2            -48.0791266405        9.4453877139       28.9545803535  W2        25593           0.0000000000
     74089     24697  TIP3      OH2           -36.5106966405        6.7223777139       34.8775703535  W2        25594           0.0000000000
     74090     24697  TIP3      H1            -37.1992366405        7.3804477139       34.7822303535  W2        25594           0.0000000000
     74091     24697  TIP3      H2            -36.4952366405        6.5251677139       35.8141103535  W2        25594           0.0000000000
     74092     24698  TIP3      OH2           -50.4594166405        5.0566477139       33.4550103535  W2        25595           0.0000000000
     74093     24698  TIP3      H1            -50.6782466405        5.5867077139       32.6886103535  W2        25595           0.0000000000
     74094     24698  TIP3      H2            -51.1273266405        5.2831977139       34.1021503535  W2        25595           0.0000000000
     74095     24699  TIP3      OH2           -43.0904366405       14.5567577139       26.9989203535  W2        25596           0.0000000000
     74096     24699  TIP3      H1            -43.3859266405       14.2339877139       26.1476103535  W2        25596           0.0000000000
     74097     24699  TIP3      H2            -43.4146566405       15.4564277139       27.0401803535  W2        25596           0.0000000000
     74098     24700  TIP3      OH2           -47.8902766405       12.7322177139       33.7423803535  W2        25597           0.0000000000
     74099     24700  TIP3      H1            -48.6303666405       13.3303677139       33.8459003535  W2        25597           0.0000000000
     74100     24700  TIP3      H2            -47.1763266405       13.2861777139       33.4267403535  W2        25597           0.0000000000
     74101     24701  TIP3      OH2           -39.7834966405        5.5602977139       29.7623503535  W2        25598           0.0000000000
     74102     24701  TIP3      H1            -39.9986966405        4.7946377139       30.2949503535  W2        25598           0.0000000000
     74103     24701  TIP3      H2            -39.1277566405        6.0327577139       30.2752003535  W2        25598           0.0000000000
     74104     24702  TIP3      OH2           -50.8656866405        6.9488277139       31.4072303535  W2        25599           0.0000000000
     74105     24702  TIP3      H1            -50.2520566405        7.5815877139       31.7804703535  W2        25599           0.0000000000
     74106     24702  TIP3      H2            -50.3536166405        6.4763277139       30.7509203535  W2        25599           0.0000000000
     74107     24703  TIP3      OH2           -49.4828466405       14.6965177139       34.5295303535  W2        25600           0.0000000000
     74108     24703  TIP3      H1            -49.4880866405       15.5758677139       34.1514603535  W2        25600           0.0000000000
     74109     24703  TIP3      H2            -50.3364366405       14.6129277139       34.9545203535  W2        25600           0.0000000000
     74110     24704  TIP3      OH2           -53.3617566405       14.3673077139       25.3114603535  W2        25601           0.0000000000
     74111     24704  TIP3      H1            -53.6336666405       14.5964077139       24.4227503535  W2        25601           0.0000000000
     74112     24704  TIP3      H2            -53.3161866405       15.2051877139       25.7719903535  W2        25601           0.0000000000
     74113     24705  TIP3      OH2           -39.7367866405       15.9888977139       32.0243103535  W2        25602           0.0000000000
     74114     24705  TIP3      H1            -40.6784166405       16.0472877139       32.1860003535  W2        25602           0.0000000000
     74115     24705  TIP3      H2            -39.4601766405       16.8949477139       31.8872803535  W2        25602           0.0000000000
     74116     24706  TIP3      OH2           -39.4360866405        4.2754277139       33.4417003535  W2        25603           0.0000000000
     74117     24706  TIP3      H1            -40.1721666405        4.8861377139       33.4038303535  W2        25603           0.0000000000
     74118     24706  TIP3      H2            -38.7526866405        4.6903277139       32.9153403535  W2        25603           0.0000000000
     74119     24707  TIP3      OH2           -46.4329466405        2.3621577139       30.9075003535  W2        25604           0.0000000000
     74120     24707  TIP3      H1            -46.5505266405        1.4137577139       30.8533303535  W2        25604           0.0000000000
     74121     24707  TIP3      H2            -47.2879366405        2.6947677139       31.1806103535  W2        25604           0.0000000000
     74122     24708  TIP3      OH2           -41.4846666405       17.7702477139       28.6494703535  W2        25605           0.0000000000
     74123     24708  TIP3      H1            -41.0594366405       17.0630377139       28.1644303535  W2        25605           0.0000000000
     74124     24708  TIP3      H2            -41.1676666405       18.5715177139       28.2326903535  W2        25605           0.0000000000
     74125     24709  TIP3      OH2           -40.3250166405       15.6710977139       27.1581303535  W2        25606           0.0000000000
     74126     24709  TIP3      H1            -40.5825366405       14.9811077139       26.5467203535  W2        25606           0.0000000000
     74127     24709  TIP3      H2            -40.2539366405       15.2282177139       28.0037203535  W2        25606           0.0000000000
     74128     24710  TIP3      OH2           -44.1664566405       11.1997177139       25.4080803535  W2        25608           0.0000000000
     74129     24710  TIP3      H1            -44.8779066405       11.7346877139       25.0561303535  W2        25608           0.0000000000
     74130     24710  TIP3      H2            -43.4754966405       11.2549277139       24.7479703535  W2        25608           0.0000000000
     74131     24711  TIP3      OH2           -44.1125366405        9.6571477139       22.4465803535  W2        25609           0.0000000000
     74132     24711  TIP3      H1            -43.4115466405        9.6798377139       23.0979803535  W2        25609           0.0000000000
     74133     24711  TIP3      H2            -43.8102466405        9.0291177139       21.7905103535  W2        25609           0.0000000000
     74134     24712  TIP3      OH2           -36.7970666405       10.5775677139       33.7015203535  W2        25610           0.0000000000
     74135     24712  TIP3      H1            -37.4496566405       11.2721277139       33.7906103535  W2        25610           0.0000000000
     74136     24712  TIP3      H2            -36.3320366405       10.7876577139       32.8916803535  W2        25610           0.0000000000
     74137     24713  TIP3      OH2           -40.7606866405       11.4090477139       26.3596703535  W2        25611           0.0000000000
     74138     24713  TIP3      H1            -41.4925866405       11.6374177139       26.9327303535  W2        25611           0.0000000000
     74139     24713  TIP3      H2            -40.3134666405       10.6953177139       26.8144203535  W2        25611           0.0000000000
     74140     24714  TIP3      OH2           -40.8633366405        9.5833077139       35.4273703535  W2        25612           0.0000000000
     74141     24714  TIP3      H1            -40.7834266405       10.3467477139       35.9992203535  W2        25612           0.0000000000
     74142     24714  TIP3      H2            -41.4645666405        9.8625477139       34.7368803535  W2        25612           0.0000000000
     74143     24715  TIP3      OH2           -49.1153166405       12.0396677139       28.2421703535  W2        25613           0.0000000000
     74144     24715  TIP3      H1            -49.4457966405       11.6690077139       27.4238703535  W2        25613           0.0000000000
     74145     24715  TIP3      H2            -48.5269066405       11.3690677139       28.5890003535  W2        25613           0.0000000000
     74146     24716  TIP3      OH2           -47.7485666405       15.4677277139       30.9233903535  W2        25614           0.0000000000
     74147     24716  TIP3      H1            -47.8434366405       14.8890377139       30.1668503535  W2        25614           0.0000000000
     74148     24716  TIP3      H2            -47.0192066405       15.0962977139       31.4196703535  W2        25614           0.0000000000
     74149     24717  TIP3      OH2           -48.7487666405       10.8082277139       31.8756703535  W2        25615           0.0000000000
     74150     24717  TIP3      H1            -48.1835166405       10.9296477139       31.1127903535  W2        25615           0.0000000000
     74151     24717  TIP3      H2            -48.4298766405       11.4457277139       32.5145203535  W2        25615           0.0000000000
     74152     24718  TIP3      OH2           -42.4395466405       16.3114177139       32.6097203535  W2        25616           0.0000000000
     74153     24718  TIP3      H1            -42.6798866405       16.9737277139       33.2576403535  W2        25616           0.0000000000
     74154     24718  TIP3      H2            -42.6377266405       15.4769377139       33.0346803535  W2        25616           0.0000000000
     74155     24719  TIP3      OH2           -41.8897366405       10.5713377139       24.0447903535  W2        25618           0.0000000000
     74156     24719  TIP3      H1            -41.3101866405       10.7213677139       24.7916803535  W2        25618           0.0000000000
     74157     24719  TIP3      H2            -41.4757366405       11.0420777139       23.3214303535  W2        25618           0.0000000000
     74158     24720  TIP3      OH2           -44.1632466405       17.3081877139       27.4801003535  W2        25620           0.0000000000
     74159     24720  TIP3      H1            -43.6894866405       17.6038177139       28.2575203535  W2        25620           0.0000000000
     74160     24720  TIP3      H2            -44.7263166405       18.0463477139       27.2470603535  W2        25620           0.0000000000
     74161     24721  TIP3      OH2           -38.1908966405        2.3213777139       23.8577603535  W2        25622           0.0000000000
     74162     24721  TIP3      H1            -39.0908266405        2.4602777139       24.1528203535  W2        25622           0.0000000000
     74163     24721  TIP3      H2            -37.9390566405        3.1528377139       23.4559303535  W2        25622           0.0000000000
     74164     24722  TIP3      OH2           -50.1250466405       11.1090977139       25.8314503535  W2        25623           0.0000000000
     74165     24722  TIP3      H1            -50.4169166405       11.8772677139       25.3405803535  W2        25623           0.0000000000
     74166     24722  TIP3      H2            -50.7995266405       10.4497177139       25.6685903535  W2        25623           0.0000000000
     74167     24723  TIP3      OH2           -37.0017566405       16.6876177139       22.2341503535  W2        25624           0.0000000000
     74168     24723  TIP3      H1            -36.9284066405       17.6266377139       22.4046803535  W2        25624           0.0000000000
     74169     24723  TIP3      H2            -36.0962466405       16.3824777139       22.1778803535  W2        25624           0.0000000000
     74170     24724  TIP3      OH2           -54.0320366405       13.4720177139       34.6464303535  W2        25625           0.0000000000
     74171     24724  TIP3      H1            -54.5331966405       13.4439577139       33.8314003535  W2        25625           0.0000000000
     74172     24724  TIP3      H2            -54.0266666405       12.5663377139       34.9561603535  W2        25625           0.0000000000
     74173     24725  TIP3      OH2           -54.2817666405       16.2523977139       31.5304503535  W2        25626           0.0000000000
     74174     24725  TIP3      H1            -53.3357066405       16.1080977139       31.5114003535  W2        25626           0.0000000000
     74175     24725  TIP3      H2            -54.3941366405       17.0366777139       32.0675703535  W2        25626           0.0000000000
     74176     24726  TIP3      OH2           -44.6909366405       20.2646577139       25.8950203535  W2        25629           0.0000000000
     74177     24726  TIP3      H1            -44.7663366405       20.1433777139       24.9485403535  W2        25629           0.0000000000
     74178     24726  TIP3      H2            -44.6580666405       21.2139277139       26.0134803535  W2        25629           0.0000000000
     74179     24727  TIP3      OH2           -51.0375566405       19.0533577139       27.6759203535  W2        25630           0.0000000000
     74180     24727  TIP3      H1            -50.8855166405       18.7053977139       28.5545703535  W2        25630           0.0000000000
     74181     24727  TIP3      H2            -51.8885166405       18.6970877139       27.4206403535  W2        25630           0.0000000000
     74182     24728  TIP3      OH2           -41.5893366405       19.4186777139       22.8972603535  W2        25631           0.0000000000
     74183     24728  TIP3      H1            -41.2144966405       18.6742877139       22.4265203535  W2        25631           0.0000000000
     74184     24728  TIP3      H2            -41.5849666405       19.1487377139       23.8155903535  W2        25631           0.0000000000
     74185     24729  TIP3      OH2           -41.9205266405       19.3443877139       25.6464803535  W2        25632           0.0000000000
     74186     24729  TIP3      H1            -42.8555466405       19.4445777139       25.8251803535  W2        25632           0.0000000000
     74187     24729  TIP3      H2            -41.6403366405       18.6349877139       26.2248003535  W2        25632           0.0000000000
     74188     24730  TIP3      OH2           -49.1641866405        3.2656077139       31.6851303535  W2        25635           0.0000000000
     74189     24730  TIP3      H1            -50.0258166405        3.1784277139       31.2774203535  W2        25635           0.0000000000
     74190     24730  TIP3      H2            -49.1866166405        4.1216177139       32.1128903535  W2        25635           0.0000000000
     74191     24731  TIP3      OH2           -44.5014066405        2.9876477139       35.0598303535  W2        25636           0.0000000000
     74192     24731  TIP3      H1            -44.0810966405        2.5723577139       35.8128903535  W2        25636           0.0000000000
     74193     24731  TIP3      H2            -45.4344466405        2.8089777139       35.1770303535  W2        25636           0.0000000000
     74194     24732  TIP3      OH2           -40.4124266405       11.6041677139       21.6745803535  W2        25638           0.0000000000
     74195     24732  TIP3      H1            -40.3703466405       11.3815577139       20.7445803535  W2        25638           0.0000000000
     74196     24732  TIP3      H2            -39.5632166405       12.0028777139       21.8645703535  W2        25638           0.0000000000
     74197     24733  TIP3      OH2           -44.8396766405        5.4799877139       22.3449103535  W2        25639           0.0000000000
     74198     24733  TIP3      H1            -45.0931966405        5.4991477139       23.2677203535  W2        25639           0.0000000000
     74199     24733  TIP3      H2            -45.0964666405        4.6085277139       22.0435303535  W2        25639           0.0000000000
     74200     24734  TIP3      OH2           -49.0731766405        8.2310577139       32.7801503535  W2        25640           0.0000000000
     74201     24734  TIP3      H1            -49.7149666405        8.1907877139       33.4891603535  W2        25640           0.0000000000
     74202     24734  TIP3      H2            -49.0359766405        9.1575277139       32.5424503535  W2        25640           0.0000000000
     74203     24735  TIP3      OH2           -49.0762666405        8.4520677139       27.6921503535  W2        25641           0.0000000000
     74204     24735  TIP3      H1            -49.9689766405        8.1116777139       27.6335303535  W2        25641           0.0000000000
     74205     24735  TIP3      H2            -48.6256066405        8.0751577139       26.9364703535  W2        25641           0.0000000000
     74206     24736  TIP3      OH2           -43.5407166405        8.8680977139       26.5092303535  W2        25642           0.0000000000
     74207     24736  TIP3      H1            -43.9496866405        9.6829577139       26.2177103535  W2        25642           0.0000000000
     74208     24736  TIP3      H2            -42.8200966405        8.7281077139       25.8949403535  W2        25642           0.0000000000
     74209     24737  TIP3      OH2           -42.5359466405        8.3141377139       29.3232003535  W2        25644           0.0000000000
     74210     24737  TIP3      H1            -42.7314966405        8.9198177139       28.6082603535  W2        25644           0.0000000000
     74211     24737  TIP3      H2            -42.3546866405        7.4806577139       28.8888303535  W2        25644           0.0000000000
     74212     24738  TIP3      OH2           -51.3231266405        8.5514077139       34.6473503535  W2        25645           0.0000000000
     74213     24738  TIP3      H1            -51.3611866405        8.9515677139       35.5160603535  W2        25645           0.0000000000
     74214     24738  TIP3      H2            -51.8140166405        7.7346477139       34.7376403535  W2        25645           0.0000000000
     74215     24739  TIP3      OH2           -47.9573866405        5.9256377139       21.4459503535  W2        25646           0.0000000000
     74216     24739  TIP3      H1            -48.3883166405        5.4806477139       22.1756903535  W2        25646           0.0000000000
     74217     24739  TIP3      H2            -48.6755166405        6.2972677139       20.9337003535  W2        25646           0.0000000000
     74218     24740  TIP3      OH2           -54.7150466405        5.6675877139       28.4978203535  W2        25647           0.0000000000
     74219     24740  TIP3      H1            -54.0842766405        5.6387977139       29.2172103535  W2        25647           0.0000000000
     74220     24740  TIP3      H2            -54.2656166405        5.2424577139       27.7674103535  W2        25647           0.0000000000
     74221     24741  TIP3      OH2           -53.4408366405        6.4137877139       23.9218603535  W2        25648           0.0000000000
     74222     24741  TIP3      H1            -52.9666666405        7.0047777139       23.3369503535  W2        25648           0.0000000000
     74223     24741  TIP3      H2            -54.1581966405        6.9440777139       24.2688703535  W2        25648           0.0000000000
     74224     24742  TIP3      OH2           -43.2720266405        9.9522677139       33.9944403535  W2        25649           0.0000000000
     74225     24742  TIP3      H1            -42.9485466405        9.3212377139       33.3514903535  W2        25649           0.0000000000
     74226     24742  TIP3      H2            -43.7120966405        9.4174877139       34.6551803535  W2        25649           0.0000000000
     74227     24743  TIP3      OH2           -46.4947366405        5.8798177139       28.7785603535  W2        25650           0.0000000000
     74228     24743  TIP3      H1            -47.4056266405        5.9364977139       29.0671603535  W2        25650           0.0000000000
     74229     24743  TIP3      H2            -45.9894466405        5.8193677139       29.5892803535  W2        25650           0.0000000000
     74230     24744  TIP3      OH2           -51.6663966405        7.5084477139       27.6053203535  W2        25651           0.0000000000
     74231     24744  TIP3      H1            -52.5555966405        7.6079977139       27.2652803535  W2        25651           0.0000000000
     74232     24744  TIP3      H2            -51.3699066405        6.6667477139       27.2591103535  W2        25651           0.0000000000
     74233     24745  TIP3      OH2           -48.0132166405        7.5087077139       25.2617803535  W2        25652           0.0000000000
     74234     24745  TIP3      H1            -47.0816666405        7.6377077139       25.4400903535  W2        25652           0.0000000000
     74235     24745  TIP3      H2            -48.2281866405        8.1781377139       24.6122503535  W2        25652           0.0000000000
     74236     24746  TIP3      OH2           -42.0895466405        5.1144477139       32.0427403535  W2        25653           0.0000000000
     74237     24746  TIP3      H1            -42.7663866405        5.2457577139       32.7067103535  W2        25653           0.0000000000
     74238     24746  TIP3      H2            -42.5750566405        4.9593977139       31.2325103535  W2        25653           0.0000000000
     74239     24747  TIP3      OH2           -49.3391966405        8.7029277139       22.8283903535  W2        25654           0.0000000000
     74240     24747  TIP3      H1            -49.8816866405        8.3233077139       22.1371503535  W2        25654           0.0000000000
     74241     24747  TIP3      H2            -48.5057066405        8.8973977139       22.3998003535  W2        25654           0.0000000000
     74242     24748  TIP3      OH2           -45.1747666405        8.6671177139       30.6655203535  W2        25657           0.0000000000
     74243     24748  TIP3      H1            -44.6104266405        8.1207777139       30.1184803535  W2        25657           0.0000000000
     74244     24748  TIP3      H2            -45.3224266405        8.1453077139       31.4542803535  W2        25657           0.0000000000
     74245     24749  TIP3      OH2           -50.1727966405        4.8037277139       27.0840003535  W2        25658           0.0000000000
     74246     24749  TIP3      H1            -50.4898466405        3.9012577139       27.0485403535  W2        25658           0.0000000000
     74247     24749  TIP3      H2            -49.3913866405        4.8054677139       26.5311603535  W2        25658           0.0000000000
     74248     24750  TIP3      OH2           -46.5481766405        7.0557277139       33.0795603535  W2        25659           0.0000000000
     74249     24750  TIP3      H1            -47.3836466405        7.5096777139       33.1898003535  W2        25659           0.0000000000
     74250     24750  TIP3      H2            -46.0241166405        7.3315777139       33.8315503535  W2        25659           0.0000000000
     74251     24751  TIP3      OH2           -46.0039166405       13.2684977139       24.7642003535  W2        25660           0.0000000000
     74252     24751  TIP3      H1            -46.7488166405       12.7610277139       24.4419903535  W2        25660           0.0000000000
     74253     24751  TIP3      H2            -46.1381966405       13.3172977139       25.7106803535  W2        25660           0.0000000000
     74254     24752  TIP3      OH2           -38.8540266405       12.4013177139       33.5509603535  W2        25661           0.0000000000
     74255     24752  TIP3      H1            -38.2121466405       12.8579477139       33.0071803535  W2        25661           0.0000000000
     74256     24752  TIP3      H2            -39.6843366405       12.5145577139       33.0883703535  W2        25661           0.0000000000
     74257     24753  TIP3      OH2           -42.1062366405        6.0824877139       22.9634603535  W2        25662           0.0000000000
     74258     24753  TIP3      H1            -43.0448166405        6.1940477139       22.8123403535  W2        25662           0.0000000000
     74259     24753  TIP3      H2            -41.8090266405        6.9391777139       23.2700303535  W2        25662           0.0000000000
     74260     24754  TIP3      OH2           -41.3878866405        7.9497577139       24.6242003535  W2        25664           0.0000000000
     74261     24754  TIP3      H1            -40.4959866405        7.8122577139       24.9433203535  W2        25664           0.0000000000
     74262     24754  TIP3      H2            -41.3315266405        8.7403677139       24.0875503535  W2        25664           0.0000000000
     74263     24755  TIP3      OH2           -50.8790866405       12.5634977139       30.5339903535  W2        25665           0.0000000000
     74264     24755  TIP3      H1            -50.1343666405       12.5610677139       29.9326403535  W2        25665           0.0000000000
     74265     24755  TIP3      H2            -50.8014266405       11.7398777139       31.0155003535  W2        25665           0.0000000000
     74266     24756  TIP3      OH2           -43.8785066405       14.7269277139       23.7896603535  W2        25666           0.0000000000
     74267     24756  TIP3      H1            -44.1736666405       15.5537177139       24.1711403535  W2        25666           0.0000000000
     74268     24756  TIP3      H2            -44.5815066405       14.1076177139       23.9858003535  W2        25666           0.0000000000
     74269     24757  TIP3      OH2           -36.5030166405        8.1591677139       24.3188703535  W2        25670           0.0000000000
     74270     24757  TIP3      H1            -37.0573866405        7.7629677139       23.6466203535  W2        25670           0.0000000000
     74271     24757  TIP3      H2            -36.4026566405        9.0696877139       24.0412003535  W2        25670           0.0000000000
     74272     24758  TIP3      OH2           -38.2078466405       16.9452077139       24.7840803535  W2        25672           0.0000000000
     74273     24758  TIP3      H1            -38.5807366405       16.1195877139       25.0931403535  W2        25672           0.0000000000
     74274     24758  TIP3      H2            -37.9304966405       16.7621477139       23.8864203535  W2        25672           0.0000000000
     74275     24759  TIP3      OH2           -41.0474566405       11.7531577139       31.8052703535  W2        25673           0.0000000000
     74276     24759  TIP3      H1            -41.9757666405       11.5213477139       31.7782003535  W2        25673           0.0000000000
     74277     24759  TIP3      H2            -40.5963466405       10.9761377139       31.4751503535  W2        25673           0.0000000000
     74278     24760  TIP3      OH2           -48.5041466405       16.0813177139       27.9381403535  W2        25674           0.0000000000
     74279     24760  TIP3      H1            -47.9769266405       16.8547577139       27.7380203535  W2        25674           0.0000000000
     74280     24760  TIP3      H2            -49.3842966405       16.3062377139       27.6365403535  W2        25674           0.0000000000
     74281     24761  TIP3      OH2           -52.7493766405       10.9437277139       22.5253803535  W2        25675           0.0000000000
     74282     24761  TIP3      H1            -52.1333866405       11.5704477139       22.9048603535  W2        25675           0.0000000000
     74283     24761  TIP3      H2            -53.6111166405       11.2597077139       22.7970303535  W2        25675           0.0000000000
     74284     24762  TIP3      OH2           -47.0769166405       13.7443077139       27.5145703535  W2        25676           0.0000000000
     74285     24762  TIP3      H1            -47.3179166405       14.6697477139       27.5561003535  W2        25676           0.0000000000
     74286     24762  TIP3      H2            -47.8175566405       13.2854377139       27.9109603535  W2        25676           0.0000000000
     74287     24763  TIP3      OH2           -46.5622566405       17.8936677139       33.8296803535  W2        25677           0.0000000000
     74288     24763  TIP3      H1            -46.1997866405       18.7482277139       33.5961203535  W2        25677           0.0000000000
     74289     24763  TIP3      H2            -46.0307366405       17.6018277139       34.5703103535  W2        25677           0.0000000000
     74290     24764  TIP3      OH2           -48.3938366405       18.7660677139       27.0597903535  W2        25678           0.0000000000
     74291     24764  TIP3      H1            -49.3437866405       18.8718077139       27.1111203535  W2        25678           0.0000000000
     74292     24764  TIP3      H2            -48.0420266405       19.5868077139       27.4045403535  W2        25678           0.0000000000
     74293     24765  TIP3      OH2           -43.0181766405       13.9927377139       33.5302403535  W2        25679           0.0000000000
     74294     24765  TIP3      H1            -43.4440466405       13.7649077139       34.3566403535  W2        25679           0.0000000000
     74295     24765  TIP3      H2            -42.4375966405       13.2539177139       33.3477703535  W2        25679           0.0000000000
     74296     24766  TIP3      OH2           -40.8152866405       14.9217877139       22.6041403535  W2        25680           0.0000000000
     74297     24766  TIP3      H1            -40.4619766405       14.5417677139       23.4084903535  W2        25680           0.0000000000
     74298     24766  TIP3      H2            -41.7639366405       14.8282677139       22.6910703535  W2        25680           0.0000000000
     74299     24767  TIP3      OH2           -36.3118466405       19.4010377139       22.8051603535  W2        25682           0.0000000000
     74300     24767  TIP3      H1            -35.5680566405       19.9870877139       22.6653203535  W2        25682           0.0000000000
     74301     24767  TIP3      H2            -37.0060366405       19.9696177139       23.1384003535  W2        25682           0.0000000000
     74302     24768  TIP3      OH2           -52.2371666405        5.7774577139       35.4069803535  W2        25683           0.0000000000
     74303     24768  TIP3      H1            -53.1299366405        6.1159977139       35.3393803535  W2        25683           0.0000000000
     74304     24768  TIP3      H2            -52.3358866405        4.9220677139       35.8250603535  W2        25683           0.0000000000
     74305     24769  TIP3      OH2           -39.9493566405       13.5939877139       24.8309303535  W2        25684           0.0000000000
     74306     24769  TIP3      H1            -40.2265966405       12.8659177139       25.3870403535  W2        25684           0.0000000000
     74307     24769  TIP3      H2            -39.0220566405       13.7131877139       25.0361903535  W2        25684           0.0000000000
     74308     24770  TIP3      OH2           -52.5859666405       17.5818977139       33.8419203535  W2        25685           0.0000000000
     74309     24770  TIP3      H1            -52.3689366405       16.6501377139       33.8108903535  W2        25685           0.0000000000
     74310     24770  TIP3      H2            -52.3396166405       17.8563977139       34.7252003535  W2        25685           0.0000000000
     74311     24771  TIP3      OH2           -46.7245066405       16.0333977139       21.0511403535  W2        25686           0.0000000000
     74312     24771  TIP3      H1            -46.4855266405       15.2852077139       20.5040303535  W2        25686           0.0000000000
     74313     24771  TIP3      H2            -46.9933766405       15.6455677139       21.8839203535  W2        25686           0.0000000000
     74314     24772  TIP3      OH2           -47.7874466405       15.6037777139       23.5074003535  W2        25687           0.0000000000
     74315     24772  TIP3      H1            -47.6406466405       15.0837577139       24.2974903535  W2        25687           0.0000000000
     74316     24772  TIP3      H2            -47.7902766405       16.5105377139       23.8139903535  W2        25687           0.0000000000
     74317     24773  TIP3      OH2           -51.3343366405       12.8561077139       24.0179403535  W2        25688           0.0000000000
     74318     24773  TIP3      H1            -52.0204066405       13.2083577139       24.5849103535  W2        25688           0.0000000000
     74319     24773  TIP3      H2            -50.8115466405       13.6190677139       23.7713703535  W2        25688           0.0000000000
     74320     24774  TIP3      OH2           -43.5028266405        5.5184877139       34.2968403535  W2        25689           0.0000000000
     74321     24774  TIP3      H1            -42.8040366405        5.5923577139       34.9468103535  W2        25689           0.0000000000
     74322     24774  TIP3      H2            -43.8836866405        4.6539877139       34.4511303535  W2        25689           0.0000000000
     74323     24775  TIP3      OH2           -42.7183366405        5.1706577139       25.3940703535  W2        25690           0.0000000000
     74324     24775  TIP3      H1            -42.4985066405        5.6421977139       24.5906103535  W2        25690           0.0000000000
     74325     24775  TIP3      H2            -42.1599366405        5.5649177139       26.0641303535  W2        25690           0.0000000000
     74326     24776  TIP3      OH2           -45.0497266405       17.3011377139       24.2568203535  W2        25691           0.0000000000
     74327     24776  TIP3      H1            -45.8661166405       17.7981077139       24.3092503535  W2        25691           0.0000000000
     74328     24776  TIP3      H2            -44.5200966405       17.7764877139       23.6167003535  W2        25691           0.0000000000
     74329     24777  TIP3      OH2           -45.5183466405        6.8985377139       26.2289103535  W2        25692           0.0000000000
     74330     24777  TIP3      H1            -44.7060866405        7.4028577139       26.2750803535  W2        25692           0.0000000000
     74331     24777  TIP3      H2            -45.7630466405        6.7535077139       27.1428703535  W2        25692           0.0000000000
     74332     24778  TIP3      OH2           -44.9827066405        7.8848077139       35.4135703535  W2        25693           0.0000000000
     74333     24778  TIP3      H1            -44.8636766405        8.4583477139       36.1706103535  W2        25693           0.0000000000
     74334     24778  TIP3      H2            -44.3272466405        7.1967477139       35.5283503535  W2        25693           0.0000000000
     74335     24779  TIP3      OH2           -44.6346766405        3.9798377139       27.1670203535  W2        25694           0.0000000000
     74336     24779  TIP3      H1            -44.9813266405        4.5968977139       27.8114503535  W2        25694           0.0000000000
     74337     24779  TIP3      H2            -43.9759866405        4.4804077139       26.6855703535  W2        25694           0.0000000000
     74338     24780  TIP3      OH2           -47.7114166405       18.3448577139       24.2385103535  W2        25695           0.0000000000
     74339     24780  TIP3      H1            -47.5505466405       19.1446077139       23.7377703535  W2        25695           0.0000000000
     74340     24780  TIP3      H2            -47.9086366405       18.6514577139       25.1235703535  W2        25695           0.0000000000
     74341     24781  TIP3      OH2           -48.9769766405        5.0427777139       23.8542703535  W2        25696           0.0000000000
     74342     24781  TIP3      H1            -49.0604966405        5.9310877139       24.2009103535  W2        25696           0.0000000000
     74343     24781  TIP3      H2            -48.0869466405        4.7774477139       24.0859503535  W2        25696           0.0000000000
     74344     24782  TIP3      OH2           -40.1760266405        9.5419377139       30.3442703535  W2        25698           0.0000000000
     74345     24782  TIP3      H1            -40.9735866405        9.1269577139       30.0157703535  W2        25698           0.0000000000
     74346     24782  TIP3      H2            -39.7309166405        8.8513077139       30.8353203535  W2        25698           0.0000000000
     74347     24783  TIP3      OH2           -50.7184466405       15.4699977139       22.9147203535  W2        25699           0.0000000000
     74348     24783  TIP3      H1            -50.1262966405       16.1694777139       23.1909603535  W2        25699           0.0000000000
     74349     24783  TIP3      H2            -50.2591466405       15.0369477139       22.1951803535  W2        25699           0.0000000000
     74350     24784  TIP3      OH2           -52.4025266405        8.1342977139       22.0306603535  W2        25700           0.0000000000
     74351     24784  TIP3      H1            -52.4472666405        9.0736077139       22.2093603535  W2        25700           0.0000000000
     74352     24784  TIP3      H2            -53.2902066405        7.8987877139       21.7608703535  W2        25700           0.0000000000
     74353     24785  TIP3      OH2           -39.0895666405       18.7981877139       31.9666203535  W2        25701           0.0000000000
     74354     24785  TIP3      H1            -39.2451366405       19.4766277139       31.3095503535  W2        25701           0.0000000000
     74355     24785  TIP3      H2            -38.1569266405       18.8701177139       32.1696803535  W2        25701           0.0000000000
     74356     24786  TIP3      OH2           -51.5943266405        2.9159577139       30.7037603535  W2        25702           0.0000000000
     74357     24786  TIP3      H1            -51.8233466405        2.9752077139       29.7762603535  W2        25702           0.0000000000
     74358     24786  TIP3      H2            -52.0369866405        2.1245077139       31.0101703535  W2        25702           0.0000000000
     74359     24787  TIP3      OH2           -52.6639966405       16.8566677139       26.8643403535  W2        25703           0.0000000000
     74360     24787  TIP3      H1            -53.4961366405       17.3289377139       26.8914803535  W2        25703           0.0000000000
     74361     24787  TIP3      H2            -52.1181666405       17.3664277139       26.2656503535  W2        25703           0.0000000000
     74362     24788  TIP3      OH2           -44.6863266405       17.8965377139       21.1897403535  W2        25706           0.0000000000
     74363     24788  TIP3      H1            -45.3302266405       17.2653977139       21.5111103535  W2        25706           0.0000000000
     74364     24788  TIP3      H2            -43.9244966405       17.3653377139       20.9580903535  W2        25706           0.0000000000
     74365     24789  TIP3      OH2           -40.0820366405       17.7135277139       21.4235403535  W2        25708           0.0000000000
     74366     24789  TIP3      H1            -39.7989966405       16.9190477139       21.8762303535  W2        25708           0.0000000000
     74367     24789  TIP3      H2            -39.3422466405       17.9466277139       20.8626503535  W2        25708           0.0000000000
     74368     24790  TIP3      OH2           -49.1273066405       13.6230177139       21.2810303535  W2        25710           0.0000000000
     74369     24790  TIP3      H1            -49.0628966405       12.8289777139       21.8116703535  W2        25710           0.0000000000
     74370     24790  TIP3      H2            -48.4743866405       13.5042977139       20.5912303535  W2        25710           0.0000000000
     74371     24791  TIP3      OH2           -43.7749666405       14.6701877139       21.0168303535  W2        25712           0.0000000000
     74372     24791  TIP3      H1            -44.0435566405       14.8503977139       21.9177203535  W2        25712           0.0000000000
     74373     24791  TIP3      H2            -43.9814066405       13.7448077139       20.8854103535  W2        25712           0.0000000000
     74374     24792  TIP3      OH2           -47.9779266405       11.5956377139       23.5868303535  W2        25715           0.0000000000
     74375     24792  TIP3      H1            -48.4377266405       11.1114677139       24.2726803535  W2        25715           0.0000000000
     74376     24792  TIP3      H2            -47.7230566405       10.9271777139       22.9508803535  W2        25715           0.0000000000
     74377     24793  TIP3      OH2           -46.9068866405        9.8388177139       21.8491503535  W2        25717           0.0000000000
     74378     24793  TIP3      H1            -47.0873866405        9.6839377139       20.9219803535  W2        25717           0.0000000000
     74379     24793  TIP3      H2            -45.9568366405        9.9466877139       21.8939403535  W2        25717           0.0000000000
     74380     24794  TIP3      OH2           -37.5170566405       12.1932377139       21.2949603535  W2        25719           0.0000000000
     74381     24794  TIP3      H1            -37.7905766405       11.7687877139       20.4817903535  W2        25719           0.0000000000
     74382     24794  TIP3      H2            -37.4776466405       13.1246877139       21.0780003535  W2        25719           0.0000000000
     74383     24795  TIP3      OH2           -47.9370566405        5.2130077139       34.5178403535  W2        25721           0.0000000000
     74384     24795  TIP3      H1            -47.4013066405        5.6646777139       33.8657703535  W2        25721           0.0000000000
     74385     24795  TIP3      H2            -48.7890966405        5.1049877139       34.0952503535  W2        25721           0.0000000000
     74386     24796  TIP3      OH2           -46.3552166405       10.6526277139       34.7573603535  W2        25722           0.0000000000
     74387     24796  TIP3      H1            -45.6047366405       10.4963777139       34.1841403535  W2        25722           0.0000000000
     74388     24796  TIP3      H2            -46.6943866405       11.5042877139       34.4819103535  W2        25722           0.0000000000
     74389     24797  TIP3      OH2           -47.1315066405        2.6695777139       34.9492003535  W2        25726           0.0000000000
     74390     24797  TIP3      H1            -47.2295466405        3.6158977139       34.8438203535  W2        25726           0.0000000000
     74391     24797  TIP3      H2            -47.8738866405        2.2969577139       34.4735503535  W2        25726           0.0000000000
     74392     24798  TIP3      OH2           -47.0097166405       20.5291877139       22.8505103535  W2        25733           0.0000000000
     74393     24798  TIP3      H1            -46.0766466405       20.6870577139       22.9943503535  W2        25733           0.0000000000
     74394     24798  TIP3      H2            -47.2738366405       21.2044877139       22.2256603535  W2        25733           0.0000000000
     74395     24799  TIP3      OH2           -53.4412266405       15.1655677139       22.3333203535  W2        25734           0.0000000000
     74396     24799  TIP3      H1            -52.5273066405       15.2444577139       22.6067103535  W2        25734           0.0000000000
     74397     24799  TIP3      H2            -53.4339166405       14.4785277139       21.6668803535  W2        25734           0.0000000000
     74398     24800  TIP3      OH2           -54.7921666405       20.5584177139       27.4107103535  W2        25735           0.0000000000
     74399     24800  TIP3      H1            -55.4394566405       20.0965877139       26.8778303535  W2        25735           0.0000000000
     74400     24800  TIP3      H2            -54.4377066405       19.8867477139       27.9933303535  W2        25735           0.0000000000
     74401     24801  TIP3      OH2           -53.9222466405       18.6391177139       29.2153303535  W2        25736           0.0000000000
     74402     24801  TIP3      H1            -54.2565666405       17.7588477139       29.3873503535  W2        25736           0.0000000000
     74403     24801  TIP3      H2            -53.7000066405       18.9846177139       30.0798903535  W2        25736           0.0000000000
     74404     24802  TIP3      OH2           -36.3737666405       19.4487577139       32.1958103535  W2        25737           0.0000000000
     74405     24802  TIP3      H1            -36.3950966405       19.6335977139       33.1347503535  W2        25737           0.0000000000
     74406     24802  TIP3      H2            -35.6831466405       20.0171577139       31.8549503535  W2        25737           0.0000000000
     74407     24803  TIP3      OH2           -36.8104766405       19.0158677139       35.1177203535  W2        25738           0.0000000000
     74408     24803  TIP3      H1            -37.2976066405       18.2802777139       34.7464603535  W2        25738           0.0000000000
     74409     24803  TIP3      H2            -36.2612066405       18.6222577139       35.7956603535  W2        25738           0.0000000000
     74410     24804  TIP3      OH2           -37.0587766405       13.0620477139       25.2700003535  W2        25740           0.0000000000
     74411     24804  TIP3      H1            -36.2086366405       13.4831377139       25.3971603535  W2        25740           0.0000000000
     74412     24804  TIP3      H2            -37.0532666405       12.3220577139       25.8771403535  W2        25740           0.0000000000
     74413     24805  TIP3      OH2           -36.6642166405       11.1157877139       27.0935703535  W2        25741           0.0000000000
     74414     24805  TIP3      H1            -37.3907566405       10.6360477139       27.4913303535  W2        25741           0.0000000000
     74415     24805  TIP3      H2            -36.0828866405       11.3212577139       27.8257303535  W2        25741           0.0000000000
     74416     24806  TIP3      OH2           -36.9050966405       13.9005377139       32.0413303535  W2        25742           0.0000000000
     74417     24806  TIP3      H1            -36.0716766405       13.5225377139       31.7606903535  W2        25742           0.0000000000
     74418     24806  TIP3      H2            -36.7930666405       14.8436577139       31.9222403535  W2        25742           0.0000000000
     74419     24807  TIP3      OH2           -38.4188666405       16.7782877139       34.3481703535  W2        25743           0.0000000000
     74420     24807  TIP3      H1            -39.0663366405       17.1034377139       34.9736903535  W2        25743           0.0000000000
     74421     24807  TIP3      H2            -38.9364666405       16.3380577139       33.6740003535  W2        25743           0.0000000000
     74422     24808  TIP3      OH2           -36.3959066405       11.0166377139       23.4847003535  W2        25744           0.0000000000
     74423     24808  TIP3      H1            -36.9177966405       11.3730477139       22.7657903535  W2        25744           0.0000000000
     74424     24808  TIP3      H2            -36.4289866405       11.6914177139       24.1627903535  W2        25744           0.0000000000
     74425     24809  TIP3      OH2           -38.0470066405        8.2561977139       22.0354103535  W2        25745           0.0000000000
     74426     24809  TIP3      H1            -37.9505666405        8.9228977139       21.3553803535  W2        25745           0.0000000000
     74427     24809  TIP3      H2            -38.1870466405        7.4408277139       21.5539603535  W2        25745           0.0000000000
     74428     24810  TIP3      OH2           -38.8775366405        9.6364377139       27.6564403535  W2        25746           0.0000000000
     74429     24810  TIP3      H1            -39.0276566405        8.6912977139       27.6362203535  W2        25746           0.0000000000
     74430     24810  TIP3      H2            -39.2310866405        9.9175777139       28.5003503535  W2        25746           0.0000000000
     74431     24811  TIP3      OH2           -53.8422966405       11.7146577139       31.6668203535  W2        25747           0.0000000000
     74432     24811  TIP3      H1            -53.6580066405       11.6328277139       30.7311103535  W2        25747           0.0000000000
     74433     24811  TIP3      H2            -52.9930066405       11.5903577139       32.0904603535  W2        25747           0.0000000000
     74434     24812  TIP3      OH2           -38.7996266405        5.6641777139       21.1529603535  W2        25750           0.0000000000
     74435     24812  TIP3      H1            -38.1890466405        5.2928577139       21.7897803535  W2        25750           0.0000000000
     74436     24812  TIP3      H2            -39.6364766405        5.2428677139       21.3489603535  W2        25750           0.0000000000
     74437     24813  TIP3      OH2           -39.1670566405        7.2190177139       26.1189503535  W2        25751           0.0000000000
     74438     24813  TIP3      H1            -38.8873466405        6.3120577139       26.2431203535  W2        25751           0.0000000000
     74439     24813  TIP3      H2            -38.4078866405        7.6531677139       25.7298703535  W2        25751           0.0000000000
     74440     24814  TIP3      OH2           -38.5552266405        7.8007577139       31.5548403535  W2        25752           0.0000000000
     74441     24814  TIP3      H1            -37.6224266405        8.0127477139       31.5204403535  W2        25752           0.0000000000
     74442     24814  TIP3      H2            -38.7904766405        7.9019677139       32.4771403535  W2        25752           0.0000000000
     74443     24815  TIP3      OH2           -38.5260366405        8.5372877139       34.3307803535  W2        25753           0.0000000000
     74444     24815  TIP3      H1            -39.3689066405        8.8053277139       34.6967603535  W2        25753           0.0000000000
     74445     24815  TIP3      H2            -38.0836066405        9.3594777139       34.1198903535  W2        25753           0.0000000000
     74446     24816  TIP3      OH2           -38.5535766405        4.4819477139       26.1671503535  W2        25756           0.0000000000
     74447     24816  TIP3      H1            -38.3710766405        4.0330977139       26.9926503535  W2        25756           0.0000000000
     74448     24816  TIP3      H2            -39.1532866405        3.8973877139       25.7036103535  W2        25756           0.0000000000
     74449     24817  TIP3      OH2           -53.0235666405        5.2973177139       30.6989903535  W2        25757           0.0000000000
     74450     24817  TIP3      H1            -52.5784066405        4.5055677139       31.0009603535  W2        25757           0.0000000000
     74451     24817  TIP3      H2            -52.5572666405        6.0138377139       31.1295503535  W2        25757           0.0000000000
     74452     24818  TIP3      OH2           -54.7195366405        8.2966177139       31.7680103535  W2        25758           0.0000000000
     74453     24818  TIP3      H1            -54.2275566405        8.0756677139       30.9772103535  W2        25758           0.0000000000
     74454     24818  TIP3      H2            -54.3574466405        9.1369577139       32.0489603535  W2        25758           0.0000000000
     74455     24819  TIP3      OH2           -36.6869566405        4.5497577139       22.6951803535  W2        25760           0.0000000000
     74456     24819  TIP3      H1            -36.2746966405        3.8283277139       22.2199803535  W2        25760           0.0000000000
     74457     24819  TIP3      H2            -36.0053066405        5.2192177139       22.7536103535  W2        25760           0.0000000000
     74458     24820  TIP3      OH2           -54.4058866405        4.5545277139       25.8222503535  W2        25761           0.0000000000
     74459     24820  TIP3      H1            -55.3310466405        4.7631877139       25.6928003535  W2        25761           0.0000000000
     74460     24820  TIP3      H2            -53.9518966405        5.0386077139       25.1324803535  W2        25761           0.0000000000
     74461     24821  TIP3      OH2           -39.6351666405       19.5386977139       27.7679903535  W2        25762           0.0000000000
     74462     24821  TIP3      H1            -38.9828766405       19.1909077139       27.1599003535  W2        25762           0.0000000000
     74463     24821  TIP3      H2            -39.1247866405       20.0270177139       28.4139603535  W2        25762           0.0000000000
     74464     24822  TIP3      OH2           -54.4423466405        3.2924277139       34.1665003535  W2        25763           0.0000000000
     74465     24822  TIP3      H1            -55.1072966405        3.0464577139       34.8095903535  W2        25763           0.0000000000
     74466     24822  TIP3      H2            -54.8852166405        3.9144677139       33.5893003535  W2        25763           0.0000000000
     74467     24823  TIP3      OH2           -49.2961266405       17.4419577139       34.5694803535  W2        25765           0.0000000000
     74468     24823  TIP3      H1            -49.7210166405       18.2518077139       34.2869403535  W2        25765           0.0000000000
     74469     24823  TIP3      H2            -48.3918466405       17.5273677139       34.2674603535  W2        25765           0.0000000000
     74470     24824  TIP3      OH2           -51.8944566405       20.6983477139       34.6170103535  W2        25769           0.0000000000
     74471     24824  TIP3      H1            -52.6148166405       21.1384477139       34.1657803535  W2        25769           0.0000000000
     74472     24824  TIP3      H2            -52.2600566405       20.4478177139       35.4654103535  W2        25769           0.0000000000
     74473     24825  TIP3      OH2           -49.4271966405       20.2987377139       33.6467303535  W2        25770           0.0000000000
     74474     24825  TIP3      H1            -50.2919766405       20.3705877139       34.0507403535  W2        25770           0.0000000000
     74475     24825  TIP3      H2            -49.4822966405       20.8454677139       32.8629803535  W2        25770           0.0000000000
     74476     24826  TIP3      OH2           -44.7166366405       20.1866277139       32.8223303535  W2        25771           0.0000000000
     74477     24826  TIP3      H1            -45.1732366405       20.7155977139       32.1681703535  W2        25771           0.0000000000
     74478     24826  TIP3      H2            -44.5538366405       20.7897677139       33.5475603535  W2        25771           0.0000000000
     74479     24827  TIP3      OH2           -42.3890066405       19.0645877139       33.7673603535  W2        25772           0.0000000000
     74480     24827  TIP3      H1            -43.2936366405       19.2296077139       33.5015703535  W2        25772           0.0000000000
     74481     24827  TIP3      H2            -41.9601466405       19.9178077139       33.7017003535  W2        25772           0.0000000000
     74482     24828  TIP3      OH2           -39.7848166405       20.6344977139       34.0621403535  W2        25773           0.0000000000
     74483     24828  TIP3      H1            -39.9666166405       21.5503877139       33.8516303535  W2        25773           0.0000000000
     74484     24828  TIP3      H2            -39.6080366405       20.2242077139       33.2156003535  W2        25773           0.0000000000
     74485     24829  TIP3      OH2           -52.4796466405       19.3215977139       31.5271903535  W2        25774           0.0000000000
     74486     24829  TIP3      H1            -52.4980466405       18.8961077139       32.3844203535  W2        25774           0.0000000000
     74487     24829  TIP3      H2            -51.6748566405       19.0030977139       31.1184103535  W2        25774           0.0000000000
     74488     24830  TIP3      OH2           -50.3383366405       18.0314677139       30.1821803535  W2        25775           0.0000000000
     74489     24830  TIP3      H1            -50.5572666405       17.1152077139       30.3517803535  W2        25775           0.0000000000
     74490     24830  TIP3      H2            -49.5141166405       18.1715077139       30.6483203535  W2        25775           0.0000000000
     74491     24831  TIP3      OH2           -47.8010866405       18.5013977139       31.0309803535  W2        25776           0.0000000000
     74492     24831  TIP3      H1            -47.5885166405       17.6132977139       30.7440703535  W2        25776           0.0000000000
     74493     24831  TIP3      H2            -47.7365766405       18.4671677139       31.9853803535  W2        25776           0.0000000000
     74494     24832  TIP3      OH2           -44.2927166405        4.1654577139       30.1753103535  W2        25777           0.0000000000
     74495     24832  TIP3      H1            -44.9670366405        3.5360177139       30.4308903535  W2        25777           0.0000000000
     74496     24832  TIP3      H2            -43.7287966405        3.6813477139       29.5721003535  W2        25777           0.0000000000
     74497     24833  TIP3      OH2           -39.1499966405        2.2728577139       30.2880203535  W2        25778           0.0000000000
     74498     24833  TIP3      H1            -38.5462366405        2.8203977139       29.7861203535  W2        25778           0.0000000000
     74499     24833  TIP3      H2            -40.0197966405        2.5918977139       30.0474303535  W2        25778           0.0000000000
     74500     24834  TIP3      OH2           -37.4229566405        3.4117277139       28.6211103535  W2        25779           0.0000000000
     74501     24834  TIP3      H1            -36.8112066405        2.8972977139       28.0944703535  W2        25779           0.0000000000
     74502     24834  TIP3      H2            -37.0406166405        4.2889377139       28.6445503535  W2        25779           0.0000000000
     74503     24835  TIP3      OH2           -51.9659666405        2.7994877139       27.9973003535  W2        25780           0.0000000000
     74504     24835  TIP3      H1            -52.7429866405        2.5649777139       27.4898903535  W2        25780           0.0000000000
     74505     24835  TIP3      H2            -51.4356066405        2.0026977139       28.0061003535  W2        25780           0.0000000000
     74506     24836  TIP3      OH2           -53.1296266405        2.5972977139       23.8009103535  W2        25781           0.0000000000
     74507     24836  TIP3      H1            -52.6905566405        3.2083477139       23.2092603535  W2        25781           0.0000000000
     74508     24836  TIP3      H2            -53.7633866405        3.1357077139       24.2749103535  W2        25781           0.0000000000
     74509     24837  TIP3      OH2           -47.3867066405        2.7261977139       27.8106103535  W2        25782           0.0000000000
     74510     24837  TIP3      H1            -46.5123666405        3.1146277139       27.7810403535  W2        25782           0.0000000000
     74511     24837  TIP3      H2            -47.5226266405        2.5109777139       28.7333303535  W2        25782           0.0000000000
     74512     24838  TIP3      OH2           -41.8298666405        2.7561777139       29.4597803535  W2        25783           0.0000000000
     74513     24838  TIP3      H1            -41.7537066405        2.8513377139       28.5103803535  W2        25783           0.0000000000
     74514     24838  TIP3      H2            -42.1049466405        1.8484677139       29.5886903535  W2        25783           0.0000000000
     74515     24839  TIP3      OH2           -40.4766066405        2.7819577139       25.1522803535  W2        25784           0.0000000000
     74516     24839  TIP3      H1            -41.1794966405        3.3968777139       24.9424203535  W2        25784           0.0000000000
     74517     24839  TIP3      H2            -40.9214666405        1.9446277139       25.2833703535  W2        25784           0.0000000000
     74518     24840  TIP3      OH2           -53.2286766405       18.5455177139       24.6984203535  W2        25785           0.0000000000
     74519     24840  TIP3      H1            -53.9136866405       18.5074077139       24.0309303535  W2        25785           0.0000000000
     74520     24840  TIP3      H2            -53.2249566405       19.4582777139       24.9866303535  W2        25785           0.0000000000
     74521     24841  TIP3      OH2           -51.2687166405        4.5134477139       22.2433203535  W2        25786           0.0000000000
     74522     24841  TIP3      H1            -50.7773766405        3.8836877139       21.7158703535  W2        25786           0.0000000000
     74523     24841  TIP3      H2            -50.6450866405        4.8093877139       22.9064403535  W2        25786           0.0000000000
     74524     24842  TIP3      OH2           -46.2427066405        4.8065977139       24.7003703535  W2        25787           0.0000000000
     74525     24842  TIP3      H1            -46.0645766405        4.1599177139       25.3832303535  W2        25787           0.0000000000
     74526     24842  TIP3      H2            -46.2960866405        5.6403677139       25.1674803535  W2        25787           0.0000000000
     74527     24843  TIP3      OH2           -44.3643266405       19.7550077139       23.0960403535  W2        25788           0.0000000000
     74528     24843  TIP3      H1            -43.4983066405       20.1217477139       22.9178603535  W2        25788           0.0000000000
     74529     24843  TIP3      H2            -44.6110466405       19.3158077139       22.2821203535  W2        25788           0.0000000000
     74530     24844  TIP3      OH2           -37.6553666405       19.3180377139       25.7751503535  W2        25789           0.0000000000
     74531     24844  TIP3      H1            -37.8496566405       18.5702477139       25.2101103535  W2        25789           0.0000000000
     74532     24844  TIP3      H2            -37.6943566405       20.0760477139       25.1919403535  W2        25789           0.0000000000
     74533     24845  TIP3      OH2           -51.4105566405       19.4655977139       21.7236303535  W2        25792           0.0000000000
     74534     24845  TIP3      H1            -51.6780966405       19.7518877139       22.5969403535  W2        25792           0.0000000000
     74535     24845  TIP3      H2            -50.6392966405       18.9195177139       21.8758803535  W2        25792           0.0000000000
     74536     24846  TIP3      OH2           -24.0317066405       11.9557177139       27.9560503535  W2        25795           0.0000000000
     74537     24846  TIP3      H1            -23.9425966405       12.8995377139       27.8237603535  W2        25795           0.0000000000
     74538     24846  TIP3      H2            -24.6699466405       11.6803577139       27.2979903535  W2        25795           0.0000000000
     74539     24847  TIP3      OH2           -25.0985766405       11.2107877139       31.3748703535  W2        25796           0.0000000000
     74540     24847  TIP3      H1            -25.1368266405       10.5644177139       32.0798303535  W2        25796           0.0000000000
     74541     24847  TIP3      H2            -25.4209266405       10.7442277139       30.6037403535  W2        25796           0.0000000000
     74542     24848  TIP3      OH2           -32.7300766405       10.8249977139       32.9678603535  W2        25797           0.0000000000
     74543     24848  TIP3      H1            -32.6888666405       10.1993277139       33.6911003535  W2        25797           0.0000000000
     74544     24848  TIP3      H2            -32.0273066405       11.4488577139       33.1499003535  W2        25797           0.0000000000
     74545     24849  TIP3      OH2           -21.3925566405       14.1498277139       29.6763803535  W2        25798           0.0000000000
     74546     24849  TIP3      H1            -21.8332866405       13.4294277139       30.1269403535  W2        25798           0.0000000000
     74547     24849  TIP3      H2            -21.4055866405       14.8705477139       30.3061503535  W2        25798           0.0000000000
     74548     24850  TIP3      OH2           -31.8067666405       15.2748877139       31.5027703535  W2        25799           0.0000000000
     74549     24850  TIP3      H1            -32.1762466405       14.4729377139       31.1332003535  W2        25799           0.0000000000
     74550     24850  TIP3      H2            -30.8656566405       15.1063777139       31.5491103535  W2        25799           0.0000000000
     74551     24851  TIP3      OH2           -35.1967166405        8.9351477139       26.8956503535  W2        25800           0.0000000000
     74552     24851  TIP3      H1            -35.6443766405        9.7810177139       26.8773003535  W2        25800           0.0000000000
     74553     24851  TIP3      H2            -35.7575966405        8.3555677139       26.3801603535  W2        25800           0.0000000000
     74554     24852  TIP3      OH2           -34.4861066405       11.0971077139       29.0214503535  W2        25801           0.0000000000
     74555     24852  TIP3      H1            -34.2727566405       10.3272677139       29.5487503535  W2        25801           0.0000000000
     74556     24852  TIP3      H2            -33.7483466405       11.1867777139       28.4182103535  W2        25801           0.0000000000
     74557     24853  TIP3      OH2           -24.2810066405       19.2539977139       29.8884203535  W2        25802           0.0000000000
     74558     24853  TIP3      H1            -23.6613666405       18.5774677139       29.6153403535  W2        25802           0.0000000000
     74559     24853  TIP3      H2            -24.4892666405       19.0360777139       30.7969103535  W2        25802           0.0000000000
     74560     24854  TIP3      OH2           -26.7091366405       13.6429277139       31.7809703535  W2        25803           0.0000000000
     74561     24854  TIP3      H1            -26.4053466405       12.9570677139       31.1863803535  W2        25803           0.0000000000
     74562     24854  TIP3      H2            -25.9877366405       13.7617977139       32.3987703535  W2        25803           0.0000000000
     74563     24855  TIP3      OH2           -18.0461566405        5.2444577139       32.6415903535  W2        25804           0.0000000000
     74564     24855  TIP3      H1            -17.9969366405        5.8545777139       33.3775003535  W2        25804           0.0000000000
     74565     24855  TIP3      H2            -17.6206466405        5.7055477139       31.9187003535  W2        25804           0.0000000000
     74566     24856  TIP3      OH2           -23.5684366405        8.0371677139       32.1084503535  W2        25805           0.0000000000
     74567     24856  TIP3      H1            -23.4258466405        7.0908677139       32.1286103535  W2        25805           0.0000000000
     74568     24856  TIP3      H2            -23.6745366405        8.2441477139       31.1799403535  W2        25805           0.0000000000
     74569     24857  TIP3      OH2           -30.4136066405        6.1388077139       29.3809303535  W2        25806           0.0000000000
     74570     24857  TIP3      H1            -30.3704966405        6.9986577139       28.9625603535  W2        25806           0.0000000000
     74571     24857  TIP3      H2            -30.8711966405        5.5862777139       28.7472503535  W2        25806           0.0000000000
     74572     24858  TIP3      OH2           -22.6913366405        6.2693677139       27.7817603535  W2        25807           0.0000000000
     74573     24858  TIP3      H1            -22.0449066405        5.9406877139       28.4065203535  W2        25807           0.0000000000
     74574     24858  TIP3      H2            -22.1813966405        6.7872677139       27.1589003535  W2        25807           0.0000000000
     74575     24859  TIP3      OH2           -33.7934566405        8.5353877139       30.1430703535  W2        25808           0.0000000000
     74576     24859  TIP3      H1            -33.1397966405        7.9855577139       30.5750803535  W2        25808           0.0000000000
     74577     24859  TIP3      H2            -33.7695266405        8.2612877139       29.2262703535  W2        25808           0.0000000000
     74578     24860  TIP3      OH2           -28.6370066405       10.0855177139       29.3582203535  W2        25809           0.0000000000
     74579     24860  TIP3      H1            -28.0209066405        9.5590577139       29.8676203535  W2        25809           0.0000000000
     74580     24860  TIP3      H2            -29.2231266405        9.4453877139       28.9545803535  W2        25809           0.0000000000
     74581     24861  TIP3      OH2           -17.6546966405        6.7223777139       34.8775703535  W2        25810           0.0000000000
     74582     24861  TIP3      H1            -18.3432366405        7.3804477139       34.7822303535  W2        25810           0.0000000000
     74583     24861  TIP3      H2            -17.6392366405        6.5251677139       35.8141103535  W2        25810           0.0000000000
     74584     24862  TIP3      OH2           -31.6034166405        5.0566477139       33.4550103535  W2        25811           0.0000000000
     74585     24862  TIP3      H1            -31.8222466405        5.5867077139       32.6886103535  W2        25811           0.0000000000
     74586     24862  TIP3      H2            -32.2713266405        5.2831977139       34.1021503535  W2        25811           0.0000000000
     74587     24863  TIP3      OH2           -24.2344366405       14.5567577139       26.9989203535  W2        25812           0.0000000000
     74588     24863  TIP3      H1            -24.5299266405       14.2339877139       26.1476103535  W2        25812           0.0000000000
     74589     24863  TIP3      H2            -24.5586566405       15.4564277139       27.0401803535  W2        25812           0.0000000000
     74590     24864  TIP3      OH2           -29.0342766405       12.7322177139       33.7423803535  W2        25813           0.0000000000
     74591     24864  TIP3      H1            -29.7743666405       13.3303677139       33.8459003535  W2        25813           0.0000000000
     74592     24864  TIP3      H2            -28.3203266405       13.2861777139       33.4267403535  W2        25813           0.0000000000
     74593     24865  TIP3      OH2           -20.9274966405        5.5602977139       29.7623503535  W2        25814           0.0000000000
     74594     24865  TIP3      H1            -21.1426966405        4.7946377139       30.2949503535  W2        25814           0.0000000000
     74595     24865  TIP3      H2            -20.2717566405        6.0327577139       30.2752003535  W2        25814           0.0000000000
     74596     24866  TIP3      OH2           -32.0096866405        6.9488277139       31.4072303535  W2        25815           0.0000000000
     74597     24866  TIP3      H1            -31.3960566405        7.5815877139       31.7804703535  W2        25815           0.0000000000
     74598     24866  TIP3      H2            -31.4976166405        6.4763277139       30.7509203535  W2        25815           0.0000000000
     74599     24867  TIP3      OH2           -30.6268466405       14.6965177139       34.5295303535  W2        25816           0.0000000000
     74600     24867  TIP3      H1            -30.6320866405       15.5758677139       34.1514603535  W2        25816           0.0000000000
     74601     24867  TIP3      H2            -31.4804366405       14.6129277139       34.9545203535  W2        25816           0.0000000000
     74602     24868  TIP3      OH2           -34.5057566405       14.3673077139       25.3114603535  W2        25817           0.0000000000
     74603     24868  TIP3      H1            -34.7776666405       14.5964077139       24.4227503535  W2        25817           0.0000000000
     74604     24868  TIP3      H2            -34.4601866405       15.2051877139       25.7719903535  W2        25817           0.0000000000
     74605     24869  TIP3      OH2           -20.8807866405       15.9888977139       32.0243103535  W2        25818           0.0000000000
     74606     24869  TIP3      H1            -21.8224166405       16.0472877139       32.1860003535  W2        25818           0.0000000000
     74607     24869  TIP3      H2            -20.6041766405       16.8949477139       31.8872803535  W2        25818           0.0000000000
     74608     24870  TIP3      OH2           -20.5800866405        4.2754277139       33.4417003535  W2        25819           0.0000000000
     74609     24870  TIP3      H1            -21.3161666405        4.8861377139       33.4038303535  W2        25819           0.0000000000
     74610     24870  TIP3      H2            -19.8966866405        4.6903277139       32.9153403535  W2        25819           0.0000000000
     74611     24871  TIP3      OH2           -27.5769466405        2.3621577139       30.9075003535  W2        25820           0.0000000000
     74612     24871  TIP3      H1            -27.6945266405        1.4137577139       30.8533303535  W2        25820           0.0000000000
     74613     24871  TIP3      H2            -28.4319366405        2.6947677139       31.1806103535  W2        25820           0.0000000000
     74614     24872  TIP3      OH2           -22.6286666405       17.7702477139       28.6494703535  W2        25821           0.0000000000
     74615     24872  TIP3      H1            -22.2034366405       17.0630377139       28.1644303535  W2        25821           0.0000000000
     74616     24872  TIP3      H2            -22.3116666405       18.5715177139       28.2326903535  W2        25821           0.0000000000
     74617     24873  TIP3      OH2           -21.4690166405       15.6710977139       27.1581303535  W2        25822           0.0000000000
     74618     24873  TIP3      H1            -21.7265366405       14.9811077139       26.5467203535  W2        25822           0.0000000000
     74619     24873  TIP3      H2            -21.3979366405       15.2282177139       28.0037203535  W2        25822           0.0000000000
     74620     24874  TIP3      OH2           -25.3104566405       11.1997177139       25.4080803535  W2        25824           0.0000000000
     74621     24874  TIP3      H1            -26.0219066405       11.7346877139       25.0561303535  W2        25824           0.0000000000
     74622     24874  TIP3      H2            -24.6194966405       11.2549277139       24.7479703535  W2        25824           0.0000000000
     74623     24875  TIP3      OH2           -25.2565366405        9.6571477139       22.4465803535  W2        25825           0.0000000000
     74624     24875  TIP3      H1            -24.5555466405        9.6798377139       23.0979803535  W2        25825           0.0000000000
     74625     24875  TIP3      H2            -24.9542466405        9.0291177139       21.7905103535  W2        25825           0.0000000000
     74626     24876  TIP3      OH2           -17.9410666405       10.5775677139       33.7015203535  W2        25826           0.0000000000
     74627     24876  TIP3      H1            -18.5936566405       11.2721277139       33.7906103535  W2        25826           0.0000000000
     74628     24876  TIP3      H2            -17.4760366405       10.7876577139       32.8916803535  W2        25826           0.0000000000
     74629     24877  TIP3      OH2           -21.9046866405       11.4090477139       26.3596703535  W2        25827           0.0000000000
     74630     24877  TIP3      H1            -22.6365866405       11.6374177139       26.9327303535  W2        25827           0.0000000000
     74631     24877  TIP3      H2            -21.4574666405       10.6953177139       26.8144203535  W2        25827           0.0000000000
     74632     24878  TIP3      OH2           -22.0073366405        9.5833077139       35.4273703535  W2        25828           0.0000000000
     74633     24878  TIP3      H1            -21.9274266405       10.3467477139       35.9992203535  W2        25828           0.0000000000
     74634     24878  TIP3      H2            -22.6085666405        9.8625477139       34.7368803535  W2        25828           0.0000000000
     74635     24879  TIP3      OH2           -30.2593166405       12.0396677139       28.2421703535  W2        25829           0.0000000000
     74636     24879  TIP3      H1            -30.5897966405       11.6690077139       27.4238703535  W2        25829           0.0000000000
     74637     24879  TIP3      H2            -29.6709066405       11.3690677139       28.5890003535  W2        25829           0.0000000000
     74638     24880  TIP3      OH2           -28.8925666405       15.4677277139       30.9233903535  W2        25830           0.0000000000
     74639     24880  TIP3      H1            -28.9874366405       14.8890377139       30.1668503535  W2        25830           0.0000000000
     74640     24880  TIP3      H2            -28.1632066405       15.0962977139       31.4196703535  W2        25830           0.0000000000
     74641     24881  TIP3      OH2           -29.8927666405       10.8082277139       31.8756703535  W2        25831           0.0000000000
     74642     24881  TIP3      H1            -29.3275166405       10.9296477139       31.1127903535  W2        25831           0.0000000000
     74643     24881  TIP3      H2            -29.5738766405       11.4457277139       32.5145203535  W2        25831           0.0000000000
     74644     24882  TIP3      OH2           -23.5835466405       16.3114177139       32.6097203535  W2        25832           0.0000000000
     74645     24882  TIP3      H1            -23.8238866405       16.9737277139       33.2576403535  W2        25832           0.0000000000
     74646     24882  TIP3      H2            -23.7817266405       15.4769377139       33.0346803535  W2        25832           0.0000000000
     74647     24883  TIP3      OH2           -23.0337366405       10.5713377139       24.0447903535  W2        25834           0.0000000000
     74648     24883  TIP3      H1            -22.4541866405       10.7213677139       24.7916803535  W2        25834           0.0000000000
     74649     24883  TIP3      H2            -22.6197366405       11.0420777139       23.3214303535  W2        25834           0.0000000000
     74650     24884  TIP3      OH2           -25.3072466405       17.3081877139       27.4801003535  W2        25836           0.0000000000
     74651     24884  TIP3      H1            -24.8334866405       17.6038177139       28.2575203535  W2        25836           0.0000000000
     74652     24884  TIP3      H2            -25.8703166405       18.0463477139       27.2470603535  W2        25836           0.0000000000
     74653     24885  TIP3      OH2           -19.3348966405        2.3213777139       23.8577603535  W2        25838           0.0000000000
     74654     24885  TIP3      H1            -20.2348266405        2.4602777139       24.1528203535  W2        25838           0.0000000000
     74655     24885  TIP3      H2            -19.0830566405        3.1528377139       23.4559303535  W2        25838           0.0000000000
     74656     24886  TIP3      OH2           -31.2690466405       11.1090977139       25.8314503535  W2        25839           0.0000000000
     74657     24886  TIP3      H1            -31.5609166405       11.8772677139       25.3405803535  W2        25839           0.0000000000
     74658     24886  TIP3      H2            -31.9435266405       10.4497177139       25.6685903535  W2        25839           0.0000000000
     74659     24887  TIP3      OH2           -18.1457566405       16.6876177139       22.2341503535  W2        25840           0.0000000000
     74660     24887  TIP3      H1            -18.0724066405       17.6266377139       22.4046803535  W2        25840           0.0000000000
     74661     24887  TIP3      H2            -17.2402466405       16.3824777139       22.1778803535  W2        25840           0.0000000000
     74662     24888  TIP3      OH2           -35.1760366405       13.4720177139       34.6464303535  W2        25841           0.0000000000
     74663     24888  TIP3      H1            -35.6771966405       13.4439577139       33.8314003535  W2        25841           0.0000000000
     74664     24888  TIP3      H2            -35.1706666405       12.5663377139       34.9561603535  W2        25841           0.0000000000
     74665     24889  TIP3      OH2           -35.4257666405       16.2523977139       31.5304503535  W2        25842           0.0000000000
     74666     24889  TIP3      H1            -34.4797066405       16.1080977139       31.5114003535  W2        25842           0.0000000000
     74667     24889  TIP3      H2            -35.5381366405       17.0366777139       32.0675703535  W2        25842           0.0000000000
     74668     24890  TIP3      OH2           -25.8349366405       20.2646577139       25.8950203535  W2        25845           0.0000000000
     74669     24890  TIP3      H1            -25.9103366405       20.1433777139       24.9485403535  W2        25845           0.0000000000
     74670     24890  TIP3      H2            -25.8020666405       21.2139277139       26.0134803535  W2        25845           0.0000000000
     74671     24891  TIP3      OH2           -32.1815566405       19.0533577139       27.6759203535  W2        25846           0.0000000000
     74672     24891  TIP3      H1            -32.0295166405       18.7053977139       28.5545703535  W2        25846           0.0000000000
     74673     24891  TIP3      H2            -33.0325166405       18.6970877139       27.4206403535  W2        25846           0.0000000000
     74674     24892  TIP3      OH2           -22.7333366405       19.4186777139       22.8972603535  W2        25847           0.0000000000
     74675     24892  TIP3      H1            -22.3584966405       18.6742877139       22.4265203535  W2        25847           0.0000000000
     74676     24892  TIP3      H2            -22.7289666405       19.1487377139       23.8155903535  W2        25847           0.0000000000
     74677     24893  TIP3      OH2           -23.0645266405       19.3443877139       25.6464803535  W2        25848           0.0000000000
     74678     24893  TIP3      H1            -23.9995466405       19.4445777139       25.8251803535  W2        25848           0.0000000000
     74679     24893  TIP3      H2            -22.7843366405       18.6349877139       26.2248003535  W2        25848           0.0000000000
     74680     24894  TIP3      OH2           -30.3081866405        3.2656077139       31.6851303535  W2        25851           0.0000000000
     74681     24894  TIP3      H1            -31.1698166405        3.1784277139       31.2774203535  W2        25851           0.0000000000
     74682     24894  TIP3      H2            -30.3306166405        4.1216177139       32.1128903535  W2        25851           0.0000000000
     74683     24895  TIP3      OH2           -25.6454066405        2.9876477139       35.0598303535  W2        25852           0.0000000000
     74684     24895  TIP3      H1            -25.2250966405        2.5723577139       35.8128903535  W2        25852           0.0000000000
     74685     24895  TIP3      H2            -26.5784466405        2.8089777139       35.1770303535  W2        25852           0.0000000000
     74686     24896  TIP3      OH2           -21.5564266405       11.6041677139       21.6745803535  W2        25854           0.0000000000
     74687     24896  TIP3      H1            -21.5143466405       11.3815577139       20.7445803535  W2        25854           0.0000000000
     74688     24896  TIP3      H2            -20.7072166405       12.0028777139       21.8645703535  W2        25854           0.0000000000
     74689     24897  TIP3      OH2           -25.9836766405        5.4799877139       22.3449103535  W2        25855           0.0000000000
     74690     24897  TIP3      H1            -26.2371966405        5.4991477139       23.2677203535  W2        25855           0.0000000000
     74691     24897  TIP3      H2            -26.2404666405        4.6085277139       22.0435303535  W2        25855           0.0000000000
     74692     24898  TIP3      OH2           -30.2171766405        8.2310577139       32.7801503535  W2        25856           0.0000000000
     74693     24898  TIP3      H1            -30.8589666405        8.1907877139       33.4891603535  W2        25856           0.0000000000
     74694     24898  TIP3      H2            -30.1799766405        9.1575277139       32.5424503535  W2        25856           0.0000000000
     74695     24899  TIP3      OH2           -30.2202666405        8.4520677139       27.6921503535  W2        25857           0.0000000000
     74696     24899  TIP3      H1            -31.1129766405        8.1116777139       27.6335303535  W2        25857           0.0000000000
     74697     24899  TIP3      H2            -29.7696066405        8.0751577139       26.9364703535  W2        25857           0.0000000000
     74698     24900  TIP3      OH2           -24.6847166405        8.8680977139       26.5092303535  W2        25858           0.0000000000
     74699     24900  TIP3      H1            -25.0936866405        9.6829577139       26.2177103535  W2        25858           0.0000000000
     74700     24900  TIP3      H2            -23.9640966405        8.7281077139       25.8949403535  W2        25858           0.0000000000
     74701     24901  TIP3      OH2           -23.6799466405        8.3141377139       29.3232003535  W2        25860           0.0000000000
     74702     24901  TIP3      H1            -23.8754966405        8.9198177139       28.6082603535  W2        25860           0.0000000000
     74703     24901  TIP3      H2            -23.4986866405        7.4806577139       28.8888303535  W2        25860           0.0000000000
     74704     24902  TIP3      OH2           -32.4671266405        8.5514077139       34.6473503535  W2        25861           0.0000000000
     74705     24902  TIP3      H1            -32.5051866405        8.9515677139       35.5160603535  W2        25861           0.0000000000
     74706     24902  TIP3      H2            -32.9580166405        7.7346477139       34.7376403535  W2        25861           0.0000000000
     74707     24903  TIP3      OH2           -29.1013866405        5.9256377139       21.4459503535  W2        25862           0.0000000000
     74708     24903  TIP3      H1            -29.5323166405        5.4806477139       22.1756903535  W2        25862           0.0000000000
     74709     24903  TIP3      H2            -29.8195166405        6.2972677139       20.9337003535  W2        25862           0.0000000000
     74710     24904  TIP3      OH2           -35.8590466405        5.6675877139       28.4978203535  W2        25863           0.0000000000
     74711     24904  TIP3      H1            -35.2282766405        5.6387977139       29.2172103535  W2        25863           0.0000000000
     74712     24904  TIP3      H2            -35.4096166405        5.2424577139       27.7674103535  W2        25863           0.0000000000
     74713     24905  TIP3      OH2           -34.5848366405        6.4137877139       23.9218603535  W2        25864           0.0000000000
     74714     24905  TIP3      H1            -34.1106666405        7.0047777139       23.3369503535  W2        25864           0.0000000000
     74715     24905  TIP3      H2            -35.3021966405        6.9440777139       24.2688703535  W2        25864           0.0000000000
     74716     24906  TIP3      OH2           -24.4160266405        9.9522677139       33.9944403535  W2        25865           0.0000000000
     74717     24906  TIP3      H1            -24.0925466405        9.3212377139       33.3514903535  W2        25865           0.0000000000
     74718     24906  TIP3      H2            -24.8560966405        9.4174877139       34.6551803535  W2        25865           0.0000000000
     74719     24907  TIP3      OH2           -27.6387366405        5.8798177139       28.7785603535  W2        25866           0.0000000000
     74720     24907  TIP3      H1            -28.5496266405        5.9364977139       29.0671603535  W2        25866           0.0000000000
     74721     24907  TIP3      H2            -27.1334466405        5.8193677139       29.5892803535  W2        25866           0.0000000000
     74722     24908  TIP3      OH2           -32.8103966405        7.5084477139       27.6053203535  W2        25867           0.0000000000
     74723     24908  TIP3      H1            -33.6995966405        7.6079977139       27.2652803535  W2        25867           0.0000000000
     74724     24908  TIP3      H2            -32.5139066405        6.6667477139       27.2591103535  W2        25867           0.0000000000
     74725     24909  TIP3      OH2           -29.1572166405        7.5087077139       25.2617803535  W2        25868           0.0000000000
     74726     24909  TIP3      H1            -28.2256666405        7.6377077139       25.4400903535  W2        25868           0.0000000000
     74727     24909  TIP3      H2            -29.3721866405        8.1781377139       24.6122503535  W2        25868           0.0000000000
     74728     24910  TIP3      OH2           -23.2335466405        5.1144477139       32.0427403535  W2        25869           0.0000000000
     74729     24910  TIP3      H1            -23.9103866405        5.2457577139       32.7067103535  W2        25869           0.0000000000
     74730     24910  TIP3      H2            -23.7190566405        4.9593977139       31.2325103535  W2        25869           0.0000000000
     74731     24911  TIP3      OH2           -30.4831966405        8.7029277139       22.8283903535  W2        25870           0.0000000000
     74732     24911  TIP3      H1            -31.0256866405        8.3233077139       22.1371503535  W2        25870           0.0000000000
     74733     24911  TIP3      H2            -29.6497066405        8.8973977139       22.3998003535  W2        25870           0.0000000000
     74734     24912  TIP3      OH2           -26.3187666405        8.6671177139       30.6655203535  W2        25873           0.0000000000
     74735     24912  TIP3      H1            -25.7544266405        8.1207777139       30.1184803535  W2        25873           0.0000000000
     74736     24912  TIP3      H2            -26.4664266405        8.1453077139       31.4542803535  W2        25873           0.0000000000
     74737     24913  TIP3      OH2           -31.3167966405        4.8037277139       27.0840003535  W2        25874           0.0000000000
     74738     24913  TIP3      H1            -31.6338466405        3.9012577139       27.0485403535  W2        25874           0.0000000000
     74739     24913  TIP3      H2            -30.5353866405        4.8054677139       26.5311603535  W2        25874           0.0000000000
     74740     24914  TIP3      OH2           -27.6921766405        7.0557277139       33.0795603535  W2        25875           0.0000000000
     74741     24914  TIP3      H1            -28.5276466405        7.5096777139       33.1898003535  W2        25875           0.0000000000
     74742     24914  TIP3      H2            -27.1681166405        7.3315777139       33.8315503535  W2        25875           0.0000000000
     74743     24915  TIP3      OH2           -27.1479166405       13.2684977139       24.7642003535  W2        25876           0.0000000000
     74744     24915  TIP3      H1            -27.8928166405       12.7610277139       24.4419903535  W2        25876           0.0000000000
     74745     24915  TIP3      H2            -27.2821966405       13.3172977139       25.7106803535  W2        25876           0.0000000000
     74746     24916  TIP3      OH2           -19.9980266405       12.4013177139       33.5509603535  W2        25877           0.0000000000
     74747     24916  TIP3      H1            -19.3561466405       12.8579477139       33.0071803535  W2        25877           0.0000000000
     74748     24916  TIP3      H2            -20.8283366405       12.5145577139       33.0883703535  W2        25877           0.0000000000
     74749     24917  TIP3      OH2           -23.2502366405        6.0824877139       22.9634603535  W2        25878           0.0000000000
     74750     24917  TIP3      H1            -24.1888166405        6.1940477139       22.8123403535  W2        25878           0.0000000000
     74751     24917  TIP3      H2            -22.9530266405        6.9391777139       23.2700303535  W2        25878           0.0000000000
     74752     24918  TIP3      OH2           -22.5318866405        7.9497577139       24.6242003535  W2        25880           0.0000000000
     74753     24918  TIP3      H1            -21.6399866405        7.8122577139       24.9433203535  W2        25880           0.0000000000
     74754     24918  TIP3      H2            -22.4755266405        8.7403677139       24.0875503535  W2        25880           0.0000000000
     74755     24919  TIP3      OH2           -32.0230866405       12.5634977139       30.5339903535  W2        25881           0.0000000000
     74756     24919  TIP3      H1            -31.2783666405       12.5610677139       29.9326403535  W2        25881           0.0000000000
     74757     24919  TIP3      H2            -31.9454266405       11.7398777139       31.0155003535  W2        25881           0.0000000000
     74758     24920  TIP3      OH2           -25.0225066405       14.7269277139       23.7896603535  W2        25882           0.0000000000
     74759     24920  TIP3      H1            -25.3176666405       15.5537177139       24.1711403535  W2        25882           0.0000000000
     74760     24920  TIP3      H2            -25.7255066405       14.1076177139       23.9858003535  W2        25882           0.0000000000
     74761     24921  TIP3      OH2           -17.6470166405        8.1591677139       24.3188703535  W2        25886           0.0000000000
     74762     24921  TIP3      H1            -18.2013866405        7.7629677139       23.6466203535  W2        25886           0.0000000000
     74763     24921  TIP3      H2            -17.5466566405        9.0696877139       24.0412003535  W2        25886           0.0000000000
     74764     24922  TIP3      OH2           -19.3518466405       16.9452077139       24.7840803535  W2        25888           0.0000000000
     74765     24922  TIP3      H1            -19.7247366405       16.1195877139       25.0931403535  W2        25888           0.0000000000
     74766     24922  TIP3      H2            -19.0744966405       16.7621477139       23.8864203535  W2        25888           0.0000000000
     74767     24923  TIP3      OH2           -22.1914566405       11.7531577139       31.8052703535  W2        25889           0.0000000000
     74768     24923  TIP3      H1            -23.1197666405       11.5213477139       31.7782003535  W2        25889           0.0000000000
     74769     24923  TIP3      H2            -21.7403466405       10.9761377139       31.4751503535  W2        25889           0.0000000000
     74770     24924  TIP3      OH2           -29.6481466405       16.0813177139       27.9381403535  W2        25890           0.0000000000
     74771     24924  TIP3      H1            -29.1209266405       16.8547577139       27.7380203535  W2        25890           0.0000000000
     74772     24924  TIP3      H2            -30.5282966405       16.3062377139       27.6365403535  W2        25890           0.0000000000
     74773     24925  TIP3      OH2           -33.8933766405       10.9437277139       22.5253803535  W2        25891           0.0000000000
     74774     24925  TIP3      H1            -33.2773866405       11.5704477139       22.9048603535  W2        25891           0.0000000000
     74775     24925  TIP3      H2            -34.7551166405       11.2597077139       22.7970303535  W2        25891           0.0000000000
     74776     24926  TIP3      OH2           -28.2209166405       13.7443077139       27.5145703535  W2        25892           0.0000000000
     74777     24926  TIP3      H1            -28.4619166405       14.6697477139       27.5561003535  W2        25892           0.0000000000
     74778     24926  TIP3      H2            -28.9615566405       13.2854377139       27.9109603535  W2        25892           0.0000000000
     74779     24927  TIP3      OH2           -27.7062566405       17.8936677139       33.8296803535  W2        25893           0.0000000000
     74780     24927  TIP3      H1            -27.3437866405       18.7482277139       33.5961203535  W2        25893           0.0000000000
     74781     24927  TIP3      H2            -27.1747366405       17.6018277139       34.5703103535  W2        25893           0.0000000000
     74782     24928  TIP3      OH2           -29.5378366405       18.7660677139       27.0597903535  W2        25894           0.0000000000
     74783     24928  TIP3      H1            -30.4877866405       18.8718077139       27.1111203535  W2        25894           0.0000000000
     74784     24928  TIP3      H2            -29.1860266405       19.5868077139       27.4045403535  W2        25894           0.0000000000
     74785     24929  TIP3      OH2           -24.1621766405       13.9927377139       33.5302403535  W2        25895           0.0000000000
     74786     24929  TIP3      H1            -24.5880466405       13.7649077139       34.3566403535  W2        25895           0.0000000000
     74787     24929  TIP3      H2            -23.5815966405       13.2539177139       33.3477703535  W2        25895           0.0000000000
     74788     24930  TIP3      OH2           -21.9592866405       14.9217877139       22.6041403535  W2        25896           0.0000000000
     74789     24930  TIP3      H1            -21.6059766405       14.5417677139       23.4084903535  W2        25896           0.0000000000
     74790     24930  TIP3      H2            -22.9079366405       14.8282677139       22.6910703535  W2        25896           0.0000000000
     74791     24931  TIP3      OH2           -17.4558466405       19.4010377139       22.8051603535  W2        25898           0.0000000000
     74792     24931  TIP3      H1            -16.7120566405       19.9870877139       22.6653203535  W2        25898           0.0000000000
     74793     24931  TIP3      H2            -18.1500366405       19.9696177139       23.1384003535  W2        25898           0.0000000000
     74794     24932  TIP3      OH2           -33.3811666405        5.7774577139       35.4069803535  W2        25899           0.0000000000
     74795     24932  TIP3      H1            -34.2739366405        6.1159977139       35.3393803535  W2        25899           0.0000000000
     74796     24932  TIP3      H2            -33.4798866405        4.9220677139       35.8250603535  W2        25899           0.0000000000
     74797     24933  TIP3      OH2           -21.0933566405       13.5939877139       24.8309303535  W2        25900           0.0000000000
     74798     24933  TIP3      H1            -21.3705966405       12.8659177139       25.3870403535  W2        25900           0.0000000000
     74799     24933  TIP3      H2            -20.1660566405       13.7131877139       25.0361903535  W2        25900           0.0000000000
     74800     24934  TIP3      OH2           -33.7299666405       17.5818977139       33.8419203535  W2        25901           0.0000000000
     74801     24934  TIP3      H1            -33.5129366405       16.6501377139       33.8108903535  W2        25901           0.0000000000
     74802     24934  TIP3      H2            -33.4836166405       17.8563977139       34.7252003535  W2        25901           0.0000000000
     74803     24935  TIP3      OH2           -27.8685066405       16.0333977139       21.0511403535  W2        25902           0.0000000000
     74804     24935  TIP3      H1            -27.6295266405       15.2852077139       20.5040303535  W2        25902           0.0000000000
     74805     24935  TIP3      H2            -28.1373766405       15.6455677139       21.8839203535  W2        25902           0.0000000000
     74806     24936  TIP3      OH2           -28.9314466405       15.6037777139       23.5074003535  W2        25903           0.0000000000
     74807     24936  TIP3      H1            -28.7846466405       15.0837577139       24.2974903535  W2        25903           0.0000000000
     74808     24936  TIP3      H2            -28.9342766405       16.5105377139       23.8139903535  W2        25903           0.0000000000
     74809     24937  TIP3      OH2           -32.4783366405       12.8561077139       24.0179403535  W2        25904           0.0000000000
     74810     24937  TIP3      H1            -33.1644066405       13.2083577139       24.5849103535  W2        25904           0.0000000000
     74811     24937  TIP3      H2            -31.9555466405       13.6190677139       23.7713703535  W2        25904           0.0000000000
     74812     24938  TIP3      OH2           -24.6468266405        5.5184877139       34.2968403535  W2        25905           0.0000000000
     74813     24938  TIP3      H1            -23.9480366405        5.5923577139       34.9468103535  W2        25905           0.0000000000
     74814     24938  TIP3      H2            -25.0276866405        4.6539877139       34.4511303535  W2        25905           0.0000000000
     74815     24939  TIP3      OH2           -23.8623366405        5.1706577139       25.3940703535  W2        25906           0.0000000000
     74816     24939  TIP3      H1            -23.6425066405        5.6421977139       24.5906103535  W2        25906           0.0000000000
     74817     24939  TIP3      H2            -23.3039366405        5.5649177139       26.0641303535  W2        25906           0.0000000000
     74818     24940  TIP3      OH2           -26.1937266405       17.3011377139       24.2568203535  W2        25907           0.0000000000
     74819     24940  TIP3      H1            -27.0101166405       17.7981077139       24.3092503535  W2        25907           0.0000000000
     74820     24940  TIP3      H2            -25.6640966405       17.7764877139       23.6167003535  W2        25907           0.0000000000
     74821     24941  TIP3      OH2           -26.6623466405        6.8985377139       26.2289103535  W2        25908           0.0000000000
     74822     24941  TIP3      H1            -25.8500866405        7.4028577139       26.2750803535  W2        25908           0.0000000000
     74823     24941  TIP3      H2            -26.9070466405        6.7535077139       27.1428703535  W2        25908           0.0000000000
     74824     24942  TIP3      OH2           -26.1267066405        7.8848077139       35.4135703535  W2        25909           0.0000000000
     74825     24942  TIP3      H1            -26.0076766405        8.4583477139       36.1706103535  W2        25909           0.0000000000
     74826     24942  TIP3      H2            -25.4712466405        7.1967477139       35.5283503535  W2        25909           0.0000000000
     74827     24943  TIP3      OH2           -25.7786766405        3.9798377139       27.1670203535  W2        25910           0.0000000000
     74828     24943  TIP3      H1            -26.1253266405        4.5968977139       27.8114503535  W2        25910           0.0000000000
     74829     24943  TIP3      H2            -25.1199866405        4.4804077139       26.6855703535  W2        25910           0.0000000000
     74830     24944  TIP3      OH2           -28.8554166405       18.3448577139       24.2385103535  W2        25911           0.0000000000
     74831     24944  TIP3      H1            -28.6945466405       19.1446077139       23.7377703535  W2        25911           0.0000000000
     74832     24944  TIP3      H2            -29.0526366405       18.6514577139       25.1235703535  W2        25911           0.0000000000
     74833     24945  TIP3      OH2           -30.1209766405        5.0427777139       23.8542703535  W2        25912           0.0000000000
     74834     24945  TIP3      H1            -30.2044966405        5.9310877139       24.2009103535  W2        25912           0.0000000000
     74835     24945  TIP3      H2            -29.2309466405        4.7774477139       24.0859503535  W2        25912           0.0000000000
     74836     24946  TIP3      OH2           -21.3200266405        9.5419377139       30.3442703535  W2        25914           0.0000000000
     74837     24946  TIP3      H1            -22.1175866405        9.1269577139       30.0157703535  W2        25914           0.0000000000
     74838     24946  TIP3      H2            -20.8749166405        8.8513077139       30.8353203535  W2        25914           0.0000000000
     74839     24947  TIP3      OH2           -31.8624466405       15.4699977139       22.9147203535  W2        25915           0.0000000000
     74840     24947  TIP3      H1            -31.2702966405       16.1694777139       23.1909603535  W2        25915           0.0000000000
     74841     24947  TIP3      H2            -31.4031466405       15.0369477139       22.1951803535  W2        25915           0.0000000000
     74842     24948  TIP3      OH2           -33.5465266405        8.1342977139       22.0306603535  W2        25916           0.0000000000
     74843     24948  TIP3      H1            -33.5912666405        9.0736077139       22.2093603535  W2        25916           0.0000000000
     74844     24948  TIP3      H2            -34.4342066405        7.8987877139       21.7608703535  W2        25916           0.0000000000
     74845     24949  TIP3      OH2           -20.2335666405       18.7981877139       31.9666203535  W2        25917           0.0000000000
     74846     24949  TIP3      H1            -20.3891366405       19.4766277139       31.3095503535  W2        25917           0.0000000000
     74847     24949  TIP3      H2            -19.3009266405       18.8701177139       32.1696803535  W2        25917           0.0000000000
     74848     24950  TIP3      OH2           -32.7383266405        2.9159577139       30.7037603535  W2        25918           0.0000000000
     74849     24950  TIP3      H1            -32.9673466405        2.9752077139       29.7762603535  W2        25918           0.0000000000
     74850     24950  TIP3      H2            -33.1809866405        2.1245077139       31.0101703535  W2        25918           0.0000000000
     74851     24951  TIP3      OH2           -33.8079966405       16.8566677139       26.8643403535  W2        25919           0.0000000000
     74852     24951  TIP3      H1            -34.6401366405       17.3289377139       26.8914803535  W2        25919           0.0000000000
     74853     24951  TIP3      H2            -33.2621666405       17.3664277139       26.2656503535  W2        25919           0.0000000000
     74854     24952  TIP3      OH2           -25.8303266405       17.8965377139       21.1897403535  W2        25922           0.0000000000
     74855     24952  TIP3      H1            -26.4742266405       17.2653977139       21.5111103535  W2        25922           0.0000000000
     74856     24952  TIP3      H2            -25.0684966405       17.3653377139       20.9580903535  W2        25922           0.0000000000
     74857     24953  TIP3      OH2           -21.2260366405       17.7135277139       21.4235403535  W2        25924           0.0000000000
     74858     24953  TIP3      H1            -20.9429966405       16.9190477139       21.8762303535  W2        25924           0.0000000000
     74859     24953  TIP3      H2            -20.4862466405       17.9466277139       20.8626503535  W2        25924           0.0000000000
     74860     24954  TIP3      OH2           -30.2713066405       13.6230177139       21.2810303535  W2        25926           0.0000000000
     74861     24954  TIP3      H1            -30.2068966405       12.8289777139       21.8116703535  W2        25926           0.0000000000
     74862     24954  TIP3      H2            -29.6183866405       13.5042977139       20.5912303535  W2        25926           0.0000000000
     74863     24955  TIP3      OH2           -24.9189666405       14.6701877139       21.0168303535  W2        25928           0.0000000000
     74864     24955  TIP3      H1            -25.1875566405       14.8503977139       21.9177203535  W2        25928           0.0000000000
     74865     24955  TIP3      H2            -25.1254066405       13.7448077139       20.8854103535  W2        25928           0.0000000000
     74866     24956  TIP3      OH2           -29.1219266405       11.5956377139       23.5868303535  W2        25931           0.0000000000
     74867     24956  TIP3      H1            -29.5817266405       11.1114677139       24.2726803535  W2        25931           0.0000000000
     74868     24956  TIP3      H2            -28.8670566405       10.9271777139       22.9508803535  W2        25931           0.0000000000
     74869     24957  TIP3      OH2           -28.0508866405        9.8388177139       21.8491503535  W2        25933           0.0000000000
     74870     24957  TIP3      H1            -28.2313866405        9.6839377139       20.9219803535  W2        25933           0.0000000000
     74871     24957  TIP3      H2            -27.1008366405        9.9466877139       21.8939403535  W2        25933           0.0000000000
     74872     24958  TIP3      OH2           -18.6610566405       12.1932377139       21.2949603535  W2        25935           0.0000000000
     74873     24958  TIP3      H1            -18.9345766405       11.7687877139       20.4817903535  W2        25935           0.0000000000
     74874     24958  TIP3      H2            -18.6216466405       13.1246877139       21.0780003535  W2        25935           0.0000000000
     74875     24959  TIP3      OH2           -29.0810566405        5.2130077139       34.5178403535  W2        25937           0.0000000000
     74876     24959  TIP3      H1            -28.5453066405        5.6646777139       33.8657703535  W2        25937           0.0000000000
     74877     24959  TIP3      H2            -29.9330966405        5.1049877139       34.0952503535  W2        25937           0.0000000000
     74878     24960  TIP3      OH2           -27.4992166405       10.6526277139       34.7573603535  W2        25938           0.0000000000
     74879     24960  TIP3      H1            -26.7487366405       10.4963777139       34.1841403535  W2        25938           0.0000000000
     74880     24960  TIP3      H2            -27.8383866405       11.5042877139       34.4819103535  W2        25938           0.0000000000
     74881     24961  TIP3      OH2           -28.2755066405        2.6695777139       34.9492003535  W2        25942           0.0000000000
     74882     24961  TIP3      H1            -28.3735466405        3.6158977139       34.8438203535  W2        25942           0.0000000000
     74883     24961  TIP3      H2            -29.0178866405        2.2969577139       34.4735503535  W2        25942           0.0000000000
     74884     24962  TIP3      OH2           -28.1537166405       20.5291877139       22.8505103535  W2        25949           0.0000000000
     74885     24962  TIP3      H1            -27.2206466405       20.6870577139       22.9943503535  W2        25949           0.0000000000
     74886     24962  TIP3      H2            -28.4178366405       21.2044877139       22.2256603535  W2        25949           0.0000000000
     74887     24963  TIP3      OH2           -34.5852266405       15.1655677139       22.3333203535  W2        25950           0.0000000000
     74888     24963  TIP3      H1            -33.6713066405       15.2444577139       22.6067103535  W2        25950           0.0000000000
     74889     24963  TIP3      H2            -34.5779166405       14.4785277139       21.6668803535  W2        25950           0.0000000000
     74890     24964  TIP3      OH2           -35.9361666405       20.5584177139       27.4107103535  W2        25951           0.0000000000
     74891     24964  TIP3      H1            -36.5834566405       20.0965877139       26.8778303535  W2        25951           0.0000000000
     74892     24964  TIP3      H2            -35.5817066405       19.8867477139       27.9933303535  W2        25951           0.0000000000
     74893     24965  TIP3      OH2           -35.0662466405       18.6391177139       29.2153303535  W2        25952           0.0000000000
     74894     24965  TIP3      H1            -35.4005666405       17.7588477139       29.3873503535  W2        25952           0.0000000000
     74895     24965  TIP3      H2            -34.8440066405       18.9846177139       30.0798903535  W2        25952           0.0000000000
     74896     24966  TIP3      OH2           -17.5177666405       19.4487577139       32.1958103535  W2        25953           0.0000000000
     74897     24966  TIP3      H1            -17.5390966405       19.6335977139       33.1347503535  W2        25953           0.0000000000
     74898     24966  TIP3      H2            -16.8271466405       20.0171577139       31.8549503535  W2        25953           0.0000000000
     74899     24967  TIP3      OH2           -17.9544766405       19.0158677139       35.1177203535  W2        25954           0.0000000000
     74900     24967  TIP3      H1            -18.4416066405       18.2802777139       34.7464603535  W2        25954           0.0000000000
     74901     24967  TIP3      H2            -17.4052066405       18.6222577139       35.7956603535  W2        25954           0.0000000000
     74902     24968  TIP3      OH2           -18.2027766405       13.0620477139       25.2700003535  W2        25956           0.0000000000
     74903     24968  TIP3      H1            -17.3526366405       13.4831377139       25.3971603535  W2        25956           0.0000000000
     74904     24968  TIP3      H2            -18.1972666405       12.3220577139       25.8771403535  W2        25956           0.0000000000
     74905     24969  TIP3      OH2           -17.8082166405       11.1157877139       27.0935703535  W2        25957           0.0000000000
     74906     24969  TIP3      H1            -18.5347566405       10.6360477139       27.4913303535  W2        25957           0.0000000000
     74907     24969  TIP3      H2            -17.2268866405       11.3212577139       27.8257303535  W2        25957           0.0000000000
     74908     24970  TIP3      OH2           -18.0490966405       13.9005377139       32.0413303535  W2        25958           0.0000000000
     74909     24970  TIP3      H1            -17.2156766405       13.5225377139       31.7606903535  W2        25958           0.0000000000
     74910     24970  TIP3      H2            -17.9370666405       14.8436577139       31.9222403535  W2        25958           0.0000000000
     74911     24971  TIP3      OH2           -19.5628666405       16.7782877139       34.3481703535  W2        25959           0.0000000000
     74912     24971  TIP3      H1            -20.2103366405       17.1034377139       34.9736903535  W2        25959           0.0000000000
     74913     24971  TIP3      H2            -20.0804666405       16.3380577139       33.6740003535  W2        25959           0.0000000000
     74914     24972  TIP3      OH2           -17.5399066405       11.0166377139       23.4847003535  W2        25960           0.0000000000
     74915     24972  TIP3      H1            -18.0617966405       11.3730477139       22.7657903535  W2        25960           0.0000000000
     74916     24972  TIP3      H2            -17.5729866405       11.6914177139       24.1627903535  W2        25960           0.0000000000
     74917     24973  TIP3      OH2           -19.1910066405        8.2561977139       22.0354103535  W2        25961           0.0000000000
     74918     24973  TIP3      H1            -19.0945666405        8.9228977139       21.3553803535  W2        25961           0.0000000000
     74919     24973  TIP3      H2            -19.3310466405        7.4408277139       21.5539603535  W2        25961           0.0000000000
     74920     24974  TIP3      OH2           -20.0215366405        9.6364377139       27.6564403535  W2        25962           0.0000000000
     74921     24974  TIP3      H1            -20.1716566405        8.6912977139       27.6362203535  W2        25962           0.0000000000
     74922     24974  TIP3      H2            -20.3750866405        9.9175777139       28.5003503535  W2        25962           0.0000000000
     74923     24975  TIP3      OH2           -34.9862966405       11.7146577139       31.6668203535  W2        25963           0.0000000000
     74924     24975  TIP3      H1            -34.8020066405       11.6328277139       30.7311103535  W2        25963           0.0000000000
     74925     24975  TIP3      H2            -34.1370066405       11.5903577139       32.0904603535  W2        25963           0.0000000000
     74926     24976  TIP3      OH2           -19.9436266405        5.6641777139       21.1529603535  W2        25966           0.0000000000
     74927     24976  TIP3      H1            -19.3330466405        5.2928577139       21.7897803535  W2        25966           0.0000000000
     74928     24976  TIP3      H2            -20.7804766405        5.2428677139       21.3489603535  W2        25966           0.0000000000
     74929     24977  TIP3      OH2           -20.3110566405        7.2190177139       26.1189503535  W2        25967           0.0000000000
     74930     24977  TIP3      H1            -20.0313466405        6.3120577139       26.2431203535  W2        25967           0.0000000000
     74931     24977  TIP3      H2            -19.5518866405        7.6531677139       25.7298703535  W2        25967           0.0000000000
     74932     24978  TIP3      OH2           -19.6992266405        7.8007577139       31.5548403535  W2        25968           0.0000000000
     74933     24978  TIP3      H1            -18.7664266405        8.0127477139       31.5204403535  W2        25968           0.0000000000
     74934     24978  TIP3      H2            -19.9344766405        7.9019677139       32.4771403535  W2        25968           0.0000000000
     74935     24979  TIP3      OH2           -19.6700366405        8.5372877139       34.3307803535  W2        25969           0.0000000000
     74936     24979  TIP3      H1            -20.5129066405        8.8053277139       34.6967603535  W2        25969           0.0000000000
     74937     24979  TIP3      H2            -19.2276066405        9.3594777139       34.1198903535  W2        25969           0.0000000000
     74938     24980  TIP3      OH2           -19.6975766405        4.4819477139       26.1671503535  W2        25972           0.0000000000
     74939     24980  TIP3      H1            -19.5150766405        4.0330977139       26.9926503535  W2        25972           0.0000000000
     74940     24980  TIP3      H2            -20.2972866405        3.8973877139       25.7036103535  W2        25972           0.0000000000
     74941     24981  TIP3      OH2           -34.1675666405        5.2973177139       30.6989903535  W2        25973           0.0000000000
     74942     24981  TIP3      H1            -33.7224066405        4.5055677139       31.0009603535  W2        25973           0.0000000000
     74943     24981  TIP3      H2            -33.7012666405        6.0138377139       31.1295503535  W2        25973           0.0000000000
     74944     24982  TIP3      OH2           -35.8635366405        8.2966177139       31.7680103535  W2        25974           0.0000000000
     74945     24982  TIP3      H1            -35.3715566405        8.0756677139       30.9772103535  W2        25974           0.0000000000
     74946     24982  TIP3      H2            -35.5014466405        9.1369577139       32.0489603535  W2        25974           0.0000000000
     74947     24983  TIP3      OH2           -17.8309566405        4.5497577139       22.6951803535  W2        25976           0.0000000000
     74948     24983  TIP3      H1            -17.4186966405        3.8283277139       22.2199803535  W2        25976           0.0000000000
     74949     24983  TIP3      H2            -17.1493066405        5.2192177139       22.7536103535  W2        25976           0.0000000000
     74950     24984  TIP3      OH2           -35.5498866405        4.5545277139       25.8222503535  W2        25977           0.0000000000
     74951     24984  TIP3      H1            -36.4750466405        4.7631877139       25.6928003535  W2        25977           0.0000000000
     74952     24984  TIP3      H2            -35.0958966405        5.0386077139       25.1324803535  W2        25977           0.0000000000
     74953     24985  TIP3      OH2           -20.7791666405       19.5386977139       27.7679903535  W2        25978           0.0000000000
     74954     24985  TIP3      H1            -20.1268766405       19.1909077139       27.1599003535  W2        25978           0.0000000000
     74955     24985  TIP3      H2            -20.2687866405       20.0270177139       28.4139603535  W2        25978           0.0000000000
     74956     24986  TIP3      OH2           -35.5863466405        3.2924277139       34.1665003535  W2        25979           0.0000000000
     74957     24986  TIP3      H1            -36.2512966405        3.0464577139       34.8095903535  W2        25979           0.0000000000
     74958     24986  TIP3      H2            -36.0292166405        3.9144677139       33.5893003535  W2        25979           0.0000000000
     74959     24987  TIP3      OH2           -30.4401266405       17.4419577139       34.5694803535  W2        25981           0.0000000000
     74960     24987  TIP3      H1            -30.8650166405       18.2518077139       34.2869403535  W2        25981           0.0000000000
     74961     24987  TIP3      H2            -29.5358466405       17.5273677139       34.2674603535  W2        25981           0.0000000000
     74962     24988  TIP3      OH2           -33.0384566405       20.6983477139       34.6170103535  W2        25985           0.0000000000
     74963     24988  TIP3      H1            -33.7588166405       21.1384477139       34.1657803535  W2        25985           0.0000000000
     74964     24988  TIP3      H2            -33.4040566405       20.4478177139       35.4654103535  W2        25985           0.0000000000
     74965     24989  TIP3      OH2           -30.5711966405       20.2987377139       33.6467303535  W2        25986           0.0000000000
     74966     24989  TIP3      H1            -31.4359766405       20.3705877139       34.0507403535  W2        25986           0.0000000000
     74967     24989  TIP3      H2            -30.6262966405       20.8454677139       32.8629803535  W2        25986           0.0000000000
     74968     24990  TIP3      OH2           -25.8606366405       20.1866277139       32.8223303535  W2        25987           0.0000000000
     74969     24990  TIP3      H1            -26.3172366405       20.7155977139       32.1681703535  W2        25987           0.0000000000
     74970     24990  TIP3      H2            -25.6978366405       20.7897677139       33.5475603535  W2        25987           0.0000000000
     74971     24991  TIP3      OH2           -23.5330066405       19.0645877139       33.7673603535  W2        25988           0.0000000000
     74972     24991  TIP3      H1            -24.4376366405       19.2296077139       33.5015703535  W2        25988           0.0000000000
     74973     24991  TIP3      H2            -23.1041466405       19.9178077139       33.7017003535  W2        25988           0.0000000000
     74974     24992  TIP3      OH2           -20.9288166405       20.6344977139       34.0621403535  W2        25989           0.0000000000
     74975     24992  TIP3      H1            -21.1106166405       21.5503877139       33.8516303535  W2        25989           0.0000000000
     74976     24992  TIP3      H2            -20.7520366405       20.2242077139       33.2156003535  W2        25989           0.0000000000
     74977     24993  TIP3      OH2           -33.6236466405       19.3215977139       31.5271903535  W2        25990           0.0000000000
     74978     24993  TIP3      H1            -33.6420466405       18.8961077139       32.3844203535  W2        25990           0.0000000000
     74979     24993  TIP3      H2            -32.8188566405       19.0030977139       31.1184103535  W2        25990           0.0000000000
     74980     24994  TIP3      OH2           -31.4823366405       18.0314677139       30.1821803535  W2        25991           0.0000000000
     74981     24994  TIP3      H1            -31.7012666405       17.1152077139       30.3517803535  W2        25991           0.0000000000
     74982     24994  TIP3      H2            -30.6581166405       18.1715077139       30.6483203535  W2        25991           0.0000000000
     74983     24995  TIP3      OH2           -28.9450866405       18.5013977139       31.0309803535  W2        25992           0.0000000000
     74984     24995  TIP3      H1            -28.7325166405       17.6132977139       30.7440703535  W2        25992           0.0000000000
     74985     24995  TIP3      H2            -28.8805766405       18.4671677139       31.9853803535  W2        25992           0.0000000000
     74986     24996  TIP3      OH2           -25.4367166405        4.1654577139       30.1753103535  W2        25993           0.0000000000
     74987     24996  TIP3      H1            -26.1110366405        3.5360177139       30.4308903535  W2        25993           0.0000000000
     74988     24996  TIP3      H2            -24.8727966405        3.6813477139       29.5721003535  W2        25993           0.0000000000
     74989     24997  TIP3      OH2           -20.2939966405        2.2728577139       30.2880203535  W2        25994           0.0000000000
     74990     24997  TIP3      H1            -19.6902366405        2.8203977139       29.7861203535  W2        25994           0.0000000000
     74991     24997  TIP3      H2            -21.1637966405        2.5918977139       30.0474303535  W2        25994           0.0000000000
     74992     24998  TIP3      OH2           -18.5669566405        3.4117277139       28.6211103535  W2        25995           0.0000000000
     74993     24998  TIP3      H1            -17.9552066405        2.8972977139       28.0944703535  W2        25995           0.0000000000
     74994     24998  TIP3      H2            -18.1846166405        4.2889377139       28.6445503535  W2        25995           0.0000000000
     74995     24999  TIP3      OH2           -33.1099666405        2.7994877139       27.9973003535  W2        25996           0.0000000000
     74996     24999  TIP3      H1            -33.8869866405        2.5649777139       27.4898903535  W2        25996           0.0000000000
     74997     24999  TIP3      H2            -32.5796066405        2.0026977139       28.0061003535  W2        25996           0.0000000000
     74998     25000  TIP3      OH2           -34.2736266405        2.5972977139       23.8009103535  W2        25997           0.0000000000
     74999     25000  TIP3      H1            -33.8345566405        3.2083477139       23.2092603535  W2        25997           0.0000000000
     75000     25000  TIP3      H2            -34.9073866405        3.1357077139       24.2749103535  W2        25997           0.0000000000
     75001     25001  TIP3      OH2           -28.5307066405        2.7261977139       27.8106103535  W2        25998           0.0000000000
     75002     25001  TIP3      H1            -27.6563666405        3.1146277139       27.7810403535  W2        25998           0.0000000000
     75003     25001  TIP3      H2            -28.6666266405        2.5109777139       28.7333303535  W2        25998           0.0000000000
     75004     25002  TIP3      OH2           -22.9738666405        2.7561777139       29.4597803535  W2        25999           0.0000000000
     75005     25002  TIP3      H1            -22.8977066405        2.8513377139       28.5103803535  W2        25999           0.0000000000
     75006     25002  TIP3      H2            -23.2489466405        1.8484677139       29.5886903535  W2        25999           0.0000000000
     75007     25003  TIP3      OH2           -21.6206066405        2.7819577139       25.1522803535  W2        26000           0.0000000000
     75008     25003  TIP3      H1            -22.3234966405        3.3968777139       24.9424203535  W2        26000           0.0000000000
     75009     25003  TIP3      H2            -22.0654666405        1.9446277139       25.2833703535  W2        26000           0.0000000000
     75010     25004  TIP3      OH2           -34.3726766405       18.5455177139       24.6984203535  W2        26001           0.0000000000
     75011     25004  TIP3      H1            -35.0576866405       18.5074077139       24.0309303535  W2        26001           0.0000000000
     75012     25004  TIP3      H2            -34.3689566405       19.4582777139       24.9866303535  W2        26001           0.0000000000
     75013     25005  TIP3      OH2           -32.4127166405        4.5134477139       22.2433203535  W2        26002           0.0000000000
     75014     25005  TIP3      H1            -31.9213766405        3.8836877139       21.7158703535  W2        26002           0.0000000000
     75015     25005  TIP3      H2            -31.7890866405        4.8093877139       22.9064403535  W2        26002           0.0000000000
     75016     25006  TIP3      OH2           -27.3867066405        4.8065977139       24.7003703535  W2        26003           0.0000000000
     75017     25006  TIP3      H1            -27.2085766405        4.1599177139       25.3832303535  W2        26003           0.0000000000
     75018     25006  TIP3      H2            -27.4400866405        5.6403677139       25.1674803535  W2        26003           0.0000000000
     75019     25007  TIP3      OH2           -25.5083266405       19.7550077139       23.0960403535  W2        26004           0.0000000000
     75020     25007  TIP3      H1            -24.6423066405       20.1217477139       22.9178603535  W2        26004           0.0000000000
     75021     25007  TIP3      H2            -25.7550466405       19.3158077139       22.2821203535  W2        26004           0.0000000000
     75022     25008  TIP3      OH2           -18.7993666405       19.3180377139       25.7751503535  W2        26005           0.0000000000
     75023     25008  TIP3      H1            -18.9936566405       18.5702477139       25.2101103535  W2        26005           0.0000000000
     75024     25008  TIP3      H2            -18.8383566405       20.0760477139       25.1919403535  W2        26005           0.0000000000
     75025     25009  TIP3      OH2           -32.5545566405       19.4655977139       21.7236303535  W2        26008           0.0000000000
     75026     25009  TIP3      H1            -32.8220966405       19.7518877139       22.5969403535  W2        26008           0.0000000000
     75027     25009  TIP3      H2            -31.7832966405       18.9195177139       21.8758803535  W2        26008           0.0000000000
     75028     25010  TIP3      OH2            -5.1757066405       11.9557177139       27.9560503535  W2        26011           0.0000000000
     75029     25010  TIP3      H1             -5.0865966405       12.8995377139       27.8237603535  W2        26011           0.0000000000
     75030     25010  TIP3      H2             -5.8139466405       11.6803577139       27.2979903535  W2        26011           0.0000000000
     75031     25011  TIP3      OH2            -6.2425766405       11.2107877139       31.3748703535  W2        26012           0.0000000000
     75032     25011  TIP3      H1             -6.2808266405       10.5644177139       32.0798303535  W2        26012           0.0000000000
     75033     25011  TIP3      H2             -6.5649266405       10.7442277139       30.6037403535  W2        26012           0.0000000000
     75034     25012  TIP3      OH2           -13.8740766405       10.8249977139       32.9678603535  W2        26013           0.0000000000
     75035     25012  TIP3      H1            -13.8328666405       10.1993277139       33.6911003535  W2        26013           0.0000000000
     75036     25012  TIP3      H2            -13.1713066405       11.4488577139       33.1499003535  W2        26013           0.0000000000
     75037     25013  TIP3      OH2            -2.5365566405       14.1498277139       29.6763803535  W2        26014           0.0000000000
     75038     25013  TIP3      H1             -2.9772866405       13.4294277139       30.1269403535  W2        26014           0.0000000000
     75039     25013  TIP3      H2             -2.5495866405       14.8705477139       30.3061503535  W2        26014           0.0000000000
     75040     25014  TIP3      OH2           -12.9507666405       15.2748877139       31.5027703535  W2        26015           0.0000000000
     75041     25014  TIP3      H1            -13.3202466405       14.4729377139       31.1332003535  W2        26015           0.0000000000
     75042     25014  TIP3      H2            -12.0096566405       15.1063777139       31.5491103535  W2        26015           0.0000000000
     75043     25015  TIP3      OH2           -16.3407166405        8.9351477139       26.8956503535  W2        26016           0.0000000000
     75044     25015  TIP3      H1            -16.7883766405        9.7810177139       26.8773003535  W2        26016           0.0000000000
     75045     25015  TIP3      H2            -16.9015966405        8.3555677139       26.3801603535  W2        26016           0.0000000000
     75046     25016  TIP3      OH2           -15.6301066405       11.0971077139       29.0214503535  W2        26017           0.0000000000
     75047     25016  TIP3      H1            -15.4167566405       10.3272677139       29.5487503535  W2        26017           0.0000000000
     75048     25016  TIP3      H2            -14.8923466405       11.1867777139       28.4182103535  W2        26017           0.0000000000
     75049     25017  TIP3      OH2            -5.4250066405       19.2539977139       29.8884203535  W2        26018           0.0000000000
     75050     25017  TIP3      H1             -4.8053666405       18.5774677139       29.6153403535  W2        26018           0.0000000000
     75051     25017  TIP3      H2             -5.6332666405       19.0360777139       30.7969103535  W2        26018           0.0000000000
     75052     25018  TIP3      OH2            -7.8531366405       13.6429277139       31.7809703535  W2        26019           0.0000000000
     75053     25018  TIP3      H1             -7.5493466405       12.9570677139       31.1863803535  W2        26019           0.0000000000
     75054     25018  TIP3      H2             -7.1317366405       13.7617977139       32.3987703535  W2        26019           0.0000000000
     75055     25019  TIP3      OH2             0.8098433595        5.2444577139       32.6415903535  W2        26020           0.0000000000
     75056     25019  TIP3      H1              0.8590633595        5.8545777139       33.3775003535  W2        26020           0.0000000000
     75057     25019  TIP3      H2              1.2353533595        5.7055477139       31.9187003535  W2        26020           0.0000000000
     75058     25020  TIP3      OH2            -4.7124366405        8.0371677139       32.1084503535  W2        26021           0.0000000000
     75059     25020  TIP3      H1             -4.5698466405        7.0908677139       32.1286103535  W2        26021           0.0000000000
     75060     25020  TIP3      H2             -4.8185366405        8.2441477139       31.1799403535  W2        26021           0.0000000000
     75061     25021  TIP3      OH2           -11.5576066405        6.1388077139       29.3809303535  W2        26022           0.0000000000
     75062     25021  TIP3      H1            -11.5144966405        6.9986577139       28.9625603535  W2        26022           0.0000000000
     75063     25021  TIP3      H2            -12.0151966405        5.5862777139       28.7472503535  W2        26022           0.0000000000
     75064     25022  TIP3      OH2            -3.8353366405        6.2693677139       27.7817603535  W2        26023           0.0000000000
     75065     25022  TIP3      H1             -3.1889066405        5.9406877139       28.4065203535  W2        26023           0.0000000000
     75066     25022  TIP3      H2             -3.3253966405        6.7872677139       27.1589003535  W2        26023           0.0000000000
     75067     25023  TIP3      OH2           -14.9374566405        8.5353877139       30.1430703535  W2        26024           0.0000000000
     75068     25023  TIP3      H1            -14.2837966405        7.9855577139       30.5750803535  W2        26024           0.0000000000
     75069     25023  TIP3      H2            -14.9135266405        8.2612877139       29.2262703535  W2        26024           0.0000000000
     75070     25024  TIP3      OH2            -9.7810066405       10.0855177139       29.3582203535  W2        26025           0.0000000000
     75071     25024  TIP3      H1             -9.1649066405        9.5590577139       29.8676203535  W2        26025           0.0000000000
     75072     25024  TIP3      H2            -10.3671266405        9.4453877139       28.9545803535  W2        26025           0.0000000000
     75073     25025  TIP3      OH2             1.2013033595        6.7223777139       34.8775703535  W2        26026           0.0000000000
     75074     25025  TIP3      H1              0.5127633595        7.3804477139       34.7822303535  W2        26026           0.0000000000
     75075     25025  TIP3      H2              1.2167633595        6.5251677139       35.8141103535  W2        26026           0.0000000000
     75076     25026  TIP3      OH2           -12.7474166405        5.0566477139       33.4550103535  W2        26027           0.0000000000
     75077     25026  TIP3      H1            -12.9662466405        5.5867077139       32.6886103535  W2        26027           0.0000000000
     75078     25026  TIP3      H2            -13.4153266405        5.2831977139       34.1021503535  W2        26027           0.0000000000
     75079     25027  TIP3      OH2            -5.3784366405       14.5567577139       26.9989203535  W2        26028           0.0000000000
     75080     25027  TIP3      H1             -5.6739266405       14.2339877139       26.1476103535  W2        26028           0.0000000000
     75081     25027  TIP3      H2             -5.7026566405       15.4564277139       27.0401803535  W2        26028           0.0000000000
     75082     25028  TIP3      OH2           -10.1782766405       12.7322177139       33.7423803535  W2        26029           0.0000000000
     75083     25028  TIP3      H1            -10.9183666405       13.3303677139       33.8459003535  W2        26029           0.0000000000
     75084     25028  TIP3      H2             -9.4643266405       13.2861777139       33.4267403535  W2        26029           0.0000000000
     75085     25029  TIP3      OH2            -2.0714966405        5.5602977139       29.7623503535  W2        26030           0.0000000000
     75086     25029  TIP3      H1             -2.2866966405        4.7946377139       30.2949503535  W2        26030           0.0000000000
     75087     25029  TIP3      H2             -1.4157566405        6.0327577139       30.2752003535  W2        26030           0.0000000000
     75088     25030  TIP3      OH2           -13.1536866405        6.9488277139       31.4072303535  W2        26031           0.0000000000
     75089     25030  TIP3      H1            -12.5400566405        7.5815877139       31.7804703535  W2        26031           0.0000000000
     75090     25030  TIP3      H2            -12.6416166405        6.4763277139       30.7509203535  W2        26031           0.0000000000
     75091     25031  TIP3      OH2           -11.7708466405       14.6965177139       34.5295303535  W2        26032           0.0000000000
     75092     25031  TIP3      H1            -11.7760866405       15.5758677139       34.1514603535  W2        26032           0.0000000000
     75093     25031  TIP3      H2            -12.6244366405       14.6129277139       34.9545203535  W2        26032           0.0000000000
     75094     25032  TIP3      OH2           -15.6497566405       14.3673077139       25.3114603535  W2        26033           0.0000000000
     75095     25032  TIP3      H1            -15.9216666405       14.5964077139       24.4227503535  W2        26033           0.0000000000
     75096     25032  TIP3      H2            -15.6041866405       15.2051877139       25.7719903535  W2        26033           0.0000000000
     75097     25033  TIP3      OH2            -2.0247866405       15.9888977139       32.0243103535  W2        26034           0.0000000000
     75098     25033  TIP3      H1             -2.9664166405       16.0472877139       32.1860003535  W2        26034           0.0000000000
     75099     25033  TIP3      H2             -1.7481766405       16.8949477139       31.8872803535  W2        26034           0.0000000000
     75100     25034  TIP3      OH2            -1.7240866405        4.2754277139       33.4417003535  W2        26035           0.0000000000
     75101     25034  TIP3      H1             -2.4601666405        4.8861377139       33.4038303535  W2        26035           0.0000000000
     75102     25034  TIP3      H2             -1.0406866405        4.6903277139       32.9153403535  W2        26035           0.0000000000
     75103     25035  TIP3      OH2            -8.7209466405        2.3621577139       30.9075003535  W2        26036           0.0000000000
     75104     25035  TIP3      H1             -8.8385266405        1.4137577139       30.8533303535  W2        26036           0.0000000000
     75105     25035  TIP3      H2             -9.5759366405        2.6947677139       31.1806103535  W2        26036           0.0000000000
     75106     25036  TIP3      OH2            -3.7726666405       17.7702477139       28.6494703535  W2        26037           0.0000000000
     75107     25036  TIP3      H1             -3.3474366405       17.0630377139       28.1644303535  W2        26037           0.0000000000
     75108     25036  TIP3      H2             -3.4556666405       18.5715177139       28.2326903535  W2        26037           0.0000000000
     75109     25037  TIP3      OH2            -2.6130166405       15.6710977139       27.1581303535  W2        26038           0.0000000000
     75110     25037  TIP3      H1             -2.8705366405       14.9811077139       26.5467203535  W2        26038           0.0000000000
     75111     25037  TIP3      H2             -2.5419366405       15.2282177139       28.0037203535  W2        26038           0.0000000000
     75112     25038  TIP3      OH2            -6.4544566405       11.1997177139       25.4080803535  W2        26040           0.0000000000
     75113     25038  TIP3      H1             -7.1659066405       11.7346877139       25.0561303535  W2        26040           0.0000000000
     75114     25038  TIP3      H2             -5.7634966405       11.2549277139       24.7479703535  W2        26040           0.0000000000
     75115     25039  TIP3      OH2            -6.4005366405        9.6571477139       22.4465803535  W2        26041           0.0000000000
     75116     25039  TIP3      H1             -5.6995466405        9.6798377139       23.0979803535  W2        26041           0.0000000000
     75117     25039  TIP3      H2             -6.0982466405        9.0291177139       21.7905103535  W2        26041           0.0000000000
     75118     25040  TIP3      OH2             0.9149333595       10.5775677139       33.7015203535  W2        26042           0.0000000000
     75119     25040  TIP3      H1              0.2623433595       11.2721277139       33.7906103535  W2        26042           0.0000000000
     75120     25040  TIP3      H2              1.3799633595       10.7876577139       32.8916803535  W2        26042           0.0000000000
     75121     25041  TIP3      OH2            -3.0486866405       11.4090477139       26.3596703535  W2        26043           0.0000000000
     75122     25041  TIP3      H1             -3.7805866405       11.6374177139       26.9327303535  W2        26043           0.0000000000
     75123     25041  TIP3      H2             -2.6014666405       10.6953177139       26.8144203535  W2        26043           0.0000000000
     75124     25042  TIP3      OH2            -3.1513366405        9.5833077139       35.4273703535  W2        26044           0.0000000000
     75125     25042  TIP3      H1             -3.0714266405       10.3467477139       35.9992203535  W2        26044           0.0000000000
     75126     25042  TIP3      H2             -3.7525666405        9.8625477139       34.7368803535  W2        26044           0.0000000000
     75127     25043  TIP3      OH2           -11.4033166405       12.0396677139       28.2421703535  W2        26045           0.0000000000
     75128     25043  TIP3      H1            -11.7337966405       11.6690077139       27.4238703535  W2        26045           0.0000000000
     75129     25043  TIP3      H2            -10.8149066405       11.3690677139       28.5890003535  W2        26045           0.0000000000
     75130     25044  TIP3      OH2           -10.0365666405       15.4677277139       30.9233903535  W2        26046           0.0000000000
     75131     25044  TIP3      H1            -10.1314366405       14.8890377139       30.1668503535  W2        26046           0.0000000000
     75132     25044  TIP3      H2             -9.3072066405       15.0962977139       31.4196703535  W2        26046           0.0000000000
     75133     25045  TIP3      OH2           -11.0367666405       10.8082277139       31.8756703535  W2        26047           0.0000000000
     75134     25045  TIP3      H1            -10.4715166405       10.9296477139       31.1127903535  W2        26047           0.0000000000
     75135     25045  TIP3      H2            -10.7178766405       11.4457277139       32.5145203535  W2        26047           0.0000000000
     75136     25046  TIP3      OH2            -4.7275466405       16.3114177139       32.6097203535  W2        26048           0.0000000000
     75137     25046  TIP3      H1             -4.9678866405       16.9737277139       33.2576403535  W2        26048           0.0000000000
     75138     25046  TIP3      H2             -4.9257266405       15.4769377139       33.0346803535  W2        26048           0.0000000000
     75139     25047  TIP3      OH2            -4.1777366405       10.5713377139       24.0447903535  W2        26050           0.0000000000
     75140     25047  TIP3      H1             -3.5981866405       10.7213677139       24.7916803535  W2        26050           0.0000000000
     75141     25047  TIP3      H2             -3.7637366405       11.0420777139       23.3214303535  W2        26050           0.0000000000
     75142     25048  TIP3      OH2            -6.4512466405       17.3081877139       27.4801003535  W2        26052           0.0000000000
     75143     25048  TIP3      H1             -5.9774866405       17.6038177139       28.2575203535  W2        26052           0.0000000000
     75144     25048  TIP3      H2             -7.0143166405       18.0463477139       27.2470603535  W2        26052           0.0000000000
     75145     25049  TIP3      OH2            -0.4788966405        2.3213777139       23.8577603535  W2        26054           0.0000000000
     75146     25049  TIP3      H1             -1.3788266405        2.4602777139       24.1528203535  W2        26054           0.0000000000
     75147     25049  TIP3      H2             -0.2270566405        3.1528377139       23.4559303535  W2        26054           0.0000000000
     75148     25050  TIP3      OH2           -12.4130466405       11.1090977139       25.8314503535  W2        26055           0.0000000000
     75149     25050  TIP3      H1            -12.7049166405       11.8772677139       25.3405803535  W2        26055           0.0000000000
     75150     25050  TIP3      H2            -13.0875266405       10.4497177139       25.6685903535  W2        26055           0.0000000000
     75151     25051  TIP3      OH2             0.7102433595       16.6876177139       22.2341503535  W2        26056           0.0000000000
     75152     25051  TIP3      H1              0.7835933595       17.6266377139       22.4046803535  W2        26056           0.0000000000
     75153     25051  TIP3      H2              1.6157533595       16.3824777139       22.1778803535  W2        26056           0.0000000000
     75154     25052  TIP3      OH2           -16.3200366405       13.4720177139       34.6464303535  W2        26057           0.0000000000
     75155     25052  TIP3      H1            -16.8211966405       13.4439577139       33.8314003535  W2        26057           0.0000000000
     75156     25052  TIP3      H2            -16.3146666405       12.5663377139       34.9561603535  W2        26057           0.0000000000
     75157     25053  TIP3      OH2           -16.5697666405       16.2523977139       31.5304503535  W2        26058           0.0000000000
     75158     25053  TIP3      H1            -15.6237066405       16.1080977139       31.5114003535  W2        26058           0.0000000000
     75159     25053  TIP3      H2            -16.6821366405       17.0366777139       32.0675703535  W2        26058           0.0000000000
     75160     25054  TIP3      OH2            -6.9789366405       20.2646577139       25.8950203535  W2        26061           0.0000000000
     75161     25054  TIP3      H1             -7.0543366405       20.1433777139       24.9485403535  W2        26061           0.0000000000
     75162     25054  TIP3      H2             -6.9460666405       21.2139277139       26.0134803535  W2        26061           0.0000000000
     75163     25055  TIP3      OH2           -13.3255566405       19.0533577139       27.6759203535  W2        26062           0.0000000000
     75164     25055  TIP3      H1            -13.1735166405       18.7053977139       28.5545703535  W2        26062           0.0000000000
     75165     25055  TIP3      H2            -14.1765166405       18.6970877139       27.4206403535  W2        26062           0.0000000000
     75166     25056  TIP3      OH2            -3.8773366405       19.4186777139       22.8972603535  W2        26063           0.0000000000
     75167     25056  TIP3      H1             -3.5024966405       18.6742877139       22.4265203535  W2        26063           0.0000000000
     75168     25056  TIP3      H2             -3.8729666405       19.1487377139       23.8155903535  W2        26063           0.0000000000
     75169     25057  TIP3      OH2            -4.2085266405       19.3443877139       25.6464803535  W2        26064           0.0000000000
     75170     25057  TIP3      H1             -5.1435466405       19.4445777139       25.8251803535  W2        26064           0.0000000000
     75171     25057  TIP3      H2             -3.9283366405       18.6349877139       26.2248003535  W2        26064           0.0000000000
     75172     25058  TIP3      OH2           -11.4521866405        3.2656077139       31.6851303535  W2        26067           0.0000000000
     75173     25058  TIP3      H1            -12.3138166405        3.1784277139       31.2774203535  W2        26067           0.0000000000
     75174     25058  TIP3      H2            -11.4746166405        4.1216177139       32.1128903535  W2        26067           0.0000000000
     75175     25059  TIP3      OH2            -6.7894066405        2.9876477139       35.0598303535  W2        26068           0.0000000000
     75176     25059  TIP3      H1             -6.3690966405        2.5723577139       35.8128903535  W2        26068           0.0000000000
     75177     25059  TIP3      H2             -7.7224466405        2.8089777139       35.1770303535  W2        26068           0.0000000000
     75178     25060  TIP3      OH2            -2.7004266405       11.6041677139       21.6745803535  W2        26070           0.0000000000
     75179     25060  TIP3      H1             -2.6583466405       11.3815577139       20.7445803535  W2        26070           0.0000000000
     75180     25060  TIP3      H2             -1.8512166405       12.0028777139       21.8645703535  W2        26070           0.0000000000
     75181     25061  TIP3      OH2            -7.1276766405        5.4799877139       22.3449103535  W2        26071           0.0000000000
     75182     25061  TIP3      H1             -7.3811966405        5.4991477139       23.2677203535  W2        26071           0.0000000000
     75183     25061  TIP3      H2             -7.3844666405        4.6085277139       22.0435303535  W2        26071           0.0000000000
     75184     25062  TIP3      OH2           -11.3611766405        8.2310577139       32.7801503535  W2        26072           0.0000000000
     75185     25062  TIP3      H1            -12.0029666405        8.1907877139       33.4891603535  W2        26072           0.0000000000
     75186     25062  TIP3      H2            -11.3239766405        9.1575277139       32.5424503535  W2        26072           0.0000000000
     75187     25063  TIP3      OH2           -11.3642666405        8.4520677139       27.6921503535  W2        26073           0.0000000000
     75188     25063  TIP3      H1            -12.2569766405        8.1116777139       27.6335303535  W2        26073           0.0000000000
     75189     25063  TIP3      H2            -10.9136066405        8.0751577139       26.9364703535  W2        26073           0.0000000000
     75190     25064  TIP3      OH2            -5.8287166405        8.8680977139       26.5092303535  W2        26074           0.0000000000
     75191     25064  TIP3      H1             -6.2376866405        9.6829577139       26.2177103535  W2        26074           0.0000000000
     75192     25064  TIP3      H2             -5.1080966405        8.7281077139       25.8949403535  W2        26074           0.0000000000
     75193     25065  TIP3      OH2            -4.8239466405        8.3141377139       29.3232003535  W2        26076           0.0000000000
     75194     25065  TIP3      H1             -5.0194966405        8.9198177139       28.6082603535  W2        26076           0.0000000000
     75195     25065  TIP3      H2             -4.6426866405        7.4806577139       28.8888303535  W2        26076           0.0000000000
     75196     25066  TIP3      OH2           -13.6111266405        8.5514077139       34.6473503535  W2        26077           0.0000000000
     75197     25066  TIP3      H1            -13.6491866405        8.9515677139       35.5160603535  W2        26077           0.0000000000
     75198     25066  TIP3      H2            -14.1020166405        7.7346477139       34.7376403535  W2        26077           0.0000000000
     75199     25067  TIP3      OH2           -10.2453866405        5.9256377139       21.4459503535  W2        26078           0.0000000000
     75200     25067  TIP3      H1            -10.6763166405        5.4806477139       22.1756903535  W2        26078           0.0000000000
     75201     25067  TIP3      H2            -10.9635166405        6.2972677139       20.9337003535  W2        26078           0.0000000000
     75202     25068  TIP3      OH2           -17.0030466405        5.6675877139       28.4978203535  W2        26079           0.0000000000
     75203     25068  TIP3      H1            -16.3722766405        5.6387977139       29.2172103535  W2        26079           0.0000000000
     75204     25068  TIP3      H2            -16.5536166405        5.2424577139       27.7674103535  W2        26079           0.0000000000
     75205     25069  TIP3      OH2           -15.7288366405        6.4137877139       23.9218603535  W2        26080           0.0000000000
     75206     25069  TIP3      H1            -15.2546666405        7.0047777139       23.3369503535  W2        26080           0.0000000000
     75207     25069  TIP3      H2            -16.4461966405        6.9440777139       24.2688703535  W2        26080           0.0000000000
     75208     25070  TIP3      OH2            -5.5600266405        9.9522677139       33.9944403535  W2        26081           0.0000000000
     75209     25070  TIP3      H1             -5.2365466405        9.3212377139       33.3514903535  W2        26081           0.0000000000
     75210     25070  TIP3      H2             -6.0000966405        9.4174877139       34.6551803535  W2        26081           0.0000000000
     75211     25071  TIP3      OH2            -8.7827366405        5.8798177139       28.7785603535  W2        26082           0.0000000000
     75212     25071  TIP3      H1             -9.6936266405        5.9364977139       29.0671603535  W2        26082           0.0000000000
     75213     25071  TIP3      H2             -8.2774466405        5.8193677139       29.5892803535  W2        26082           0.0000000000
     75214     25072  TIP3      OH2           -13.9543966405        7.5084477139       27.6053203535  W2        26083           0.0000000000
     75215     25072  TIP3      H1            -14.8435966405        7.6079977139       27.2652803535  W2        26083           0.0000000000
     75216     25072  TIP3      H2            -13.6579066405        6.6667477139       27.2591103535  W2        26083           0.0000000000
     75217     25073  TIP3      OH2           -10.3012166405        7.5087077139       25.2617803535  W2        26084           0.0000000000
     75218     25073  TIP3      H1             -9.3696666405        7.6377077139       25.4400903535  W2        26084           0.0000000000
     75219     25073  TIP3      H2            -10.5161866405        8.1781377139       24.6122503535  W2        26084           0.0000000000
     75220     25074  TIP3      OH2            -4.3775466405        5.1144477139       32.0427403535  W2        26085           0.0000000000
     75221     25074  TIP3      H1             -5.0543866405        5.2457577139       32.7067103535  W2        26085           0.0000000000
     75222     25074  TIP3      H2             -4.8630566405        4.9593977139       31.2325103535  W2        26085           0.0000000000
     75223     25075  TIP3      OH2           -11.6271966405        8.7029277139       22.8283903535  W2        26086           0.0000000000
     75224     25075  TIP3      H1            -12.1696866405        8.3233077139       22.1371503535  W2        26086           0.0000000000
     75225     25075  TIP3      H2            -10.7937066405        8.8973977139       22.3998003535  W2        26086           0.0000000000
     75226     25076  TIP3      OH2            -7.4627666405        8.6671177139       30.6655203535  W2        26089           0.0000000000
     75227     25076  TIP3      H1             -6.8984266405        8.1207777139       30.1184803535  W2        26089           0.0000000000
     75228     25076  TIP3      H2             -7.6104266405        8.1453077139       31.4542803535  W2        26089           0.0000000000
     75229     25077  TIP3      OH2           -12.4607966405        4.8037277139       27.0840003535  W2        26090           0.0000000000
     75230     25077  TIP3      H1            -12.7778466405        3.9012577139       27.0485403535  W2        26090           0.0000000000
     75231     25077  TIP3      H2            -11.6793866405        4.8054677139       26.5311603535  W2        26090           0.0000000000
     75232     25078  TIP3      OH2            -8.8361766405        7.0557277139       33.0795603535  W2        26091           0.0000000000
     75233     25078  TIP3      H1             -9.6716466405        7.5096777139       33.1898003535  W2        26091           0.0000000000
     75234     25078  TIP3      H2             -8.3121166405        7.3315777139       33.8315503535  W2        26091           0.0000000000
     75235     25079  TIP3      OH2            -8.2919166405       13.2684977139       24.7642003535  W2        26092           0.0000000000
     75236     25079  TIP3      H1             -9.0368166405       12.7610277139       24.4419903535  W2        26092           0.0000000000
     75237     25079  TIP3      H2             -8.4261966405       13.3172977139       25.7106803535  W2        26092           0.0000000000
     75238     25080  TIP3      OH2            -1.1420266405       12.4013177139       33.5509603535  W2        26093           0.0000000000
     75239     25080  TIP3      H1             -0.5001466405       12.8579477139       33.0071803535  W2        26093           0.0000000000
     75240     25080  TIP3      H2             -1.9723366405       12.5145577139       33.0883703535  W2        26093           0.0000000000
     75241     25081  TIP3      OH2            -4.3942366405        6.0824877139       22.9634603535  W2        26094           0.0000000000
     75242     25081  TIP3      H1             -5.3328166405        6.1940477139       22.8123403535  W2        26094           0.0000000000
     75243     25081  TIP3      H2             -4.0970266405        6.9391777139       23.2700303535  W2        26094           0.0000000000
     75244     25082  TIP3      OH2            -3.6758866405        7.9497577139       24.6242003535  W2        26096           0.0000000000
     75245     25082  TIP3      H1             -2.7839866405        7.8122577139       24.9433203535  W2        26096           0.0000000000
     75246     25082  TIP3      H2             -3.6195266405        8.7403677139       24.0875503535  W2        26096           0.0000000000
     75247     25083  TIP3      OH2           -13.1670866405       12.5634977139       30.5339903535  W2        26097           0.0000000000
     75248     25083  TIP3      H1            -12.4223666405       12.5610677139       29.9326403535  W2        26097           0.0000000000
     75249     25083  TIP3      H2            -13.0894266405       11.7398777139       31.0155003535  W2        26097           0.0000000000
     75250     25084  TIP3      OH2            -6.1665066405       14.7269277139       23.7896603535  W2        26098           0.0000000000
     75251     25084  TIP3      H1             -6.4616666405       15.5537177139       24.1711403535  W2        26098           0.0000000000
     75252     25084  TIP3      H2             -6.8695066405       14.1076177139       23.9858003535  W2        26098           0.0000000000
     75253     25085  TIP3      OH2             1.2089833595        8.1591677139       24.3188703535  W2        26102           0.0000000000
     75254     25085  TIP3      H1              0.6546133595        7.7629677139       23.6466203535  W2        26102           0.0000000000
     75255     25085  TIP3      H2              1.3093433595        9.0696877139       24.0412003535  W2        26102           0.0000000000
     75256     25086  TIP3      OH2            -0.4958466405       16.9452077139       24.7840803535  W2        26104           0.0000000000
     75257     25086  TIP3      H1             -0.8687366405       16.1195877139       25.0931403535  W2        26104           0.0000000000
     75258     25086  TIP3      H2             -0.2184966405       16.7621477139       23.8864203535  W2        26104           0.0000000000
     75259     25087  TIP3      OH2            -3.3354566405       11.7531577139       31.8052703535  W2        26105           0.0000000000
     75260     25087  TIP3      H1             -4.2637666405       11.5213477139       31.7782003535  W2        26105           0.0000000000
     75261     25087  TIP3      H2             -2.8843466405       10.9761377139       31.4751503535  W2        26105           0.0000000000
     75262     25088  TIP3      OH2           -10.7921466405       16.0813177139       27.9381403535  W2        26106           0.0000000000
     75263     25088  TIP3      H1            -10.2649266405       16.8547577139       27.7380203535  W2        26106           0.0000000000
     75264     25088  TIP3      H2            -11.6722966405       16.3062377139       27.6365403535  W2        26106           0.0000000000
     75265     25089  TIP3      OH2           -15.0373766405       10.9437277139       22.5253803535  W2        26107           0.0000000000
     75266     25089  TIP3      H1            -14.4213866405       11.5704477139       22.9048603535  W2        26107           0.0000000000
     75267     25089  TIP3      H2            -15.8991166405       11.2597077139       22.7970303535  W2        26107           0.0000000000
     75268     25090  TIP3      OH2            -9.3649166405       13.7443077139       27.5145703535  W2        26108           0.0000000000
     75269     25090  TIP3      H1             -9.6059166405       14.6697477139       27.5561003535  W2        26108           0.0000000000
     75270     25090  TIP3      H2            -10.1055566405       13.2854377139       27.9109603535  W2        26108           0.0000000000
     75271     25091  TIP3      OH2            -8.8502566405       17.8936677139       33.8296803535  W2        26109           0.0000000000
     75272     25091  TIP3      H1             -8.4877866405       18.7482277139       33.5961203535  W2        26109           0.0000000000
     75273     25091  TIP3      H2             -8.3187366405       17.6018277139       34.5703103535  W2        26109           0.0000000000
     75274     25092  TIP3      OH2           -10.6818366405       18.7660677139       27.0597903535  W2        26110           0.0000000000
     75275     25092  TIP3      H1            -11.6317866405       18.8718077139       27.1111203535  W2        26110           0.0000000000
     75276     25092  TIP3      H2            -10.3300266405       19.5868077139       27.4045403535  W2        26110           0.0000000000
     75277     25093  TIP3      OH2            -5.3061766405       13.9927377139       33.5302403535  W2        26111           0.0000000000
     75278     25093  TIP3      H1             -5.7320466405       13.7649077139       34.3566403535  W2        26111           0.0000000000
     75279     25093  TIP3      H2             -4.7255966405       13.2539177139       33.3477703535  W2        26111           0.0000000000
     75280     25094  TIP3      OH2            -3.1032866405       14.9217877139       22.6041403535  W2        26112           0.0000000000
     75281     25094  TIP3      H1             -2.7499766405       14.5417677139       23.4084903535  W2        26112           0.0000000000
     75282     25094  TIP3      H2             -4.0519366405       14.8282677139       22.6910703535  W2        26112           0.0000000000
     75283     25095  TIP3      OH2             1.4001533595       19.4010377139       22.8051603535  W2        26114           0.0000000000
     75284     25095  TIP3      H1              2.1439433595       19.9870877139       22.6653203535  W2        26114           0.0000000000
     75285     25095  TIP3      H2              0.7059633595       19.9696177139       23.1384003535  W2        26114           0.0000000000
     75286     25096  TIP3      OH2           -14.5251666405        5.7774577139       35.4069803535  W2        26115           0.0000000000
     75287     25096  TIP3      H1            -15.4179366405        6.1159977139       35.3393803535  W2        26115           0.0000000000
     75288     25096  TIP3      H2            -14.6238866405        4.9220677139       35.8250603535  W2        26115           0.0000000000
     75289     25097  TIP3      OH2            -2.2373566405       13.5939877139       24.8309303535  W2        26116           0.0000000000
     75290     25097  TIP3      H1             -2.5145966405       12.8659177139       25.3870403535  W2        26116           0.0000000000
     75291     25097  TIP3      H2             -1.3100566405       13.7131877139       25.0361903535  W2        26116           0.0000000000
     75292     25098  TIP3      OH2           -14.8739666405       17.5818977139       33.8419203535  W2        26117           0.0000000000
     75293     25098  TIP3      H1            -14.6569366405       16.6501377139       33.8108903535  W2        26117           0.0000000000
     75294     25098  TIP3      H2            -14.6276166405       17.8563977139       34.7252003535  W2        26117           0.0000000000
     75295     25099  TIP3      OH2            -9.0125066405       16.0333977139       21.0511403535  W2        26118           0.0000000000
     75296     25099  TIP3      H1             -8.7735266405       15.2852077139       20.5040303535  W2        26118           0.0000000000
     75297     25099  TIP3      H2             -9.2813766405       15.6455677139       21.8839203535  W2        26118           0.0000000000
     75298     25100  TIP3      OH2           -10.0754466405       15.6037777139       23.5074003535  W2        26119           0.0000000000
     75299     25100  TIP3      H1             -9.9286466405       15.0837577139       24.2974903535  W2        26119           0.0000000000
     75300     25100  TIP3      H2            -10.0782766405       16.5105377139       23.8139903535  W2        26119           0.0000000000
     75301     25101  TIP3      OH2           -13.6223366405       12.8561077139       24.0179403535  W2        26120           0.0000000000
     75302     25101  TIP3      H1            -14.3084066405       13.2083577139       24.5849103535  W2        26120           0.0000000000
     75303     25101  TIP3      H2            -13.0995466405       13.6190677139       23.7713703535  W2        26120           0.0000000000
     75304     25102  TIP3      OH2            -5.7908266405        5.5184877139       34.2968403535  W2        26121           0.0000000000
     75305     25102  TIP3      H1             -5.0920366405        5.5923577139       34.9468103535  W2        26121           0.0000000000
     75306     25102  TIP3      H2             -6.1716866405        4.6539877139       34.4511303535  W2        26121           0.0000000000
     75307     25103  TIP3      OH2            -5.0063366405        5.1706577139       25.3940703535  W2        26122           0.0000000000
     75308     25103  TIP3      H1             -4.7865066405        5.6421977139       24.5906103535  W2        26122           0.0000000000
     75309     25103  TIP3      H2             -4.4479366405        5.5649177139       26.0641303535  W2        26122           0.0000000000
     75310     25104  TIP3      OH2            -7.3377266405       17.3011377139       24.2568203535  W2        26123           0.0000000000
     75311     25104  TIP3      H1             -8.1541166405       17.7981077139       24.3092503535  W2        26123           0.0000000000
     75312     25104  TIP3      H2             -6.8080966405       17.7764877139       23.6167003535  W2        26123           0.0000000000
     75313     25105  TIP3      OH2            -7.8063466405        6.8985377139       26.2289103535  W2        26124           0.0000000000
     75314     25105  TIP3      H1             -6.9940866405        7.4028577139       26.2750803535  W2        26124           0.0000000000
     75315     25105  TIP3      H2             -8.0510466405        6.7535077139       27.1428703535  W2        26124           0.0000000000
     75316     25106  TIP3      OH2            -7.2707066405        7.8848077139       35.4135703535  W2        26125           0.0000000000
     75317     25106  TIP3      H1             -7.1516766405        8.4583477139       36.1706103535  W2        26125           0.0000000000
     75318     25106  TIP3      H2             -6.6152466405        7.1967477139       35.5283503535  W2        26125           0.0000000000
     75319     25107  TIP3      OH2            -6.9226766405        3.9798377139       27.1670203535  W2        26126           0.0000000000
     75320     25107  TIP3      H1             -7.2693266405        4.5968977139       27.8114503535  W2        26126           0.0000000000
     75321     25107  TIP3      H2             -6.2639866405        4.4804077139       26.6855703535  W2        26126           0.0000000000
     75322     25108  TIP3      OH2            -9.9994166405       18.3448577139       24.2385103535  W2        26127           0.0000000000
     75323     25108  TIP3      H1             -9.8385466405       19.1446077139       23.7377703535  W2        26127           0.0000000000
     75324     25108  TIP3      H2            -10.1966366405       18.6514577139       25.1235703535  W2        26127           0.0000000000
     75325     25109  TIP3      OH2           -11.2649766405        5.0427777139       23.8542703535  W2        26128           0.0000000000
     75326     25109  TIP3      H1            -11.3484966405        5.9310877139       24.2009103535  W2        26128           0.0000000000
     75327     25109  TIP3      H2            -10.3749466405        4.7774477139       24.0859503535  W2        26128           0.0000000000
     75328     25110  TIP3      OH2            -2.4640266405        9.5419377139       30.3442703535  W2        26130           0.0000000000
     75329     25110  TIP3      H1             -3.2615866405        9.1269577139       30.0157703535  W2        26130           0.0000000000
     75330     25110  TIP3      H2             -2.0189166405        8.8513077139       30.8353203535  W2        26130           0.0000000000
     75331     25111  TIP3      OH2           -13.0064466405       15.4699977139       22.9147203535  W2        26131           0.0000000000
     75332     25111  TIP3      H1            -12.4142966405       16.1694777139       23.1909603535  W2        26131           0.0000000000
     75333     25111  TIP3      H2            -12.5471466405       15.0369477139       22.1951803535  W2        26131           0.0000000000
     75334     25112  TIP3      OH2           -14.6905266405        8.1342977139       22.0306603535  W2        26132           0.0000000000
     75335     25112  TIP3      H1            -14.7352666405        9.0736077139       22.2093603535  W2        26132           0.0000000000
     75336     25112  TIP3      H2            -15.5782066405        7.8987877139       21.7608703535  W2        26132           0.0000000000
     75337     25113  TIP3      OH2            -1.3775666405       18.7981877139       31.9666203535  W2        26133           0.0000000000
     75338     25113  TIP3      H1             -1.5331366405       19.4766277139       31.3095503535  W2        26133           0.0000000000
     75339     25113  TIP3      H2             -0.4449266405       18.8701177139       32.1696803535  W2        26133           0.0000000000
     75340     25114  TIP3      OH2           -13.8823266405        2.9159577139       30.7037603535  W2        26134           0.0000000000
     75341     25114  TIP3      H1            -14.1113466405        2.9752077139       29.7762603535  W2        26134           0.0000000000
     75342     25114  TIP3      H2            -14.3249866405        2.1245077139       31.0101703535  W2        26134           0.0000000000
     75343     25115  TIP3      OH2           -14.9519966405       16.8566677139       26.8643403535  W2        26135           0.0000000000
     75344     25115  TIP3      H1            -15.7841366405       17.3289377139       26.8914803535  W2        26135           0.0000000000
     75345     25115  TIP3      H2            -14.4061666405       17.3664277139       26.2656503535  W2        26135           0.0000000000
     75346     25116  TIP3      OH2            -6.9743266405       17.8965377139       21.1897403535  W2        26138           0.0000000000
     75347     25116  TIP3      H1             -7.6182266405       17.2653977139       21.5111103535  W2        26138           0.0000000000
     75348     25116  TIP3      H2             -6.2124966405       17.3653377139       20.9580903535  W2        26138           0.0000000000
     75349     25117  TIP3      OH2            -2.3700366405       17.7135277139       21.4235403535  W2        26140           0.0000000000
     75350     25117  TIP3      H1             -2.0869966405       16.9190477139       21.8762303535  W2        26140           0.0000000000
     75351     25117  TIP3      H2             -1.6302466405       17.9466277139       20.8626503535  W2        26140           0.0000000000
     75352     25118  TIP3      OH2           -11.4153066405       13.6230177139       21.2810303535  W2        26142           0.0000000000
     75353     25118  TIP3      H1            -11.3508966405       12.8289777139       21.8116703535  W2        26142           0.0000000000
     75354     25118  TIP3      H2            -10.7623866405       13.5042977139       20.5912303535  W2        26142           0.0000000000
     75355     25119  TIP3      OH2            -6.0629666405       14.6701877139       21.0168303535  W2        26144           0.0000000000
     75356     25119  TIP3      H1             -6.3315566405       14.8503977139       21.9177203535  W2        26144           0.0000000000
     75357     25119  TIP3      H2             -6.2694066405       13.7448077139       20.8854103535  W2        26144           0.0000000000
     75358     25120  TIP3      OH2           -10.2659266405       11.5956377139       23.5868303535  W2        26147           0.0000000000
     75359     25120  TIP3      H1            -10.7257266405       11.1114677139       24.2726803535  W2        26147           0.0000000000
     75360     25120  TIP3      H2            -10.0110566405       10.9271777139       22.9508803535  W2        26147           0.0000000000
     75361     25121  TIP3      OH2            -9.1948866405        9.8388177139       21.8491503535  W2        26149           0.0000000000
     75362     25121  TIP3      H1             -9.3753866405        9.6839377139       20.9219803535  W2        26149           0.0000000000
     75363     25121  TIP3      H2             -8.2448366405        9.9466877139       21.8939403535  W2        26149           0.0000000000
     75364     25122  TIP3      OH2             0.1949433595       12.1932377139       21.2949603535  W2        26151           0.0000000000
     75365     25122  TIP3      H1             -0.0785766405       11.7687877139       20.4817903535  W2        26151           0.0000000000
     75366     25122  TIP3      H2              0.2343533595       13.1246877139       21.0780003535  W2        26151           0.0000000000
     75367     25123  TIP3      OH2           -10.2250566405        5.2130077139       34.5178403535  W2        26153           0.0000000000
     75368     25123  TIP3      H1             -9.6893066405        5.6646777139       33.8657703535  W2        26153           0.0000000000
     75369     25123  TIP3      H2            -11.0770966405        5.1049877139       34.0952503535  W2        26153           0.0000000000
     75370     25124  TIP3      OH2            -8.6432166405       10.6526277139       34.7573603535  W2        26154           0.0000000000
     75371     25124  TIP3      H1             -7.8927366405       10.4963777139       34.1841403535  W2        26154           0.0000000000
     75372     25124  TIP3      H2             -8.9823866405       11.5042877139       34.4819103535  W2        26154           0.0000000000
     75373     25125  TIP3      OH2            -9.4195066405        2.6695777139       34.9492003535  W2        26158           0.0000000000
     75374     25125  TIP3      H1             -9.5175466405        3.6158977139       34.8438203535  W2        26158           0.0000000000
     75375     25125  TIP3      H2            -10.1618866405        2.2969577139       34.4735503535  W2        26158           0.0000000000
     75376     25126  TIP3      OH2            -9.2977166405       20.5291877139       22.8505103535  W2        26165           0.0000000000
     75377     25126  TIP3      H1             -8.3646466405       20.6870577139       22.9943503535  W2        26165           0.0000000000
     75378     25126  TIP3      H2             -9.5618366405       21.2044877139       22.2256603535  W2        26165           0.0000000000
     75379     25127  TIP3      OH2           -15.7292266405       15.1655677139       22.3333203535  W2        26166           0.0000000000
     75380     25127  TIP3      H1            -14.8153066405       15.2444577139       22.6067103535  W2        26166           0.0000000000
     75381     25127  TIP3      H2            -15.7219166405       14.4785277139       21.6668803535  W2        26166           0.0000000000
     75382     25128  TIP3      OH2           -17.0801666405       20.5584177139       27.4107103535  W2        26167           0.0000000000
     75383     25128  TIP3      H1            -17.7274566405       20.0965877139       26.8778303535  W2        26167           0.0000000000
     75384     25128  TIP3      H2            -16.7257066405       19.8867477139       27.9933303535  W2        26167           0.0000000000
     75385     25129  TIP3      OH2           -16.2102466405       18.6391177139       29.2153303535  W2        26168           0.0000000000
     75386     25129  TIP3      H1            -16.5445666405       17.7588477139       29.3873503535  W2        26168           0.0000000000
     75387     25129  TIP3      H2            -15.9880066405       18.9846177139       30.0798903535  W2        26168           0.0000000000
     75388     25130  TIP3      OH2             1.3382333595       19.4487577139       32.1958103535  W2        26169           0.0000000000
     75389     25130  TIP3      H1              1.3169033595       19.6335977139       33.1347503535  W2        26169           0.0000000000
     75390     25130  TIP3      H2              2.0288533595       20.0171577139       31.8549503535  W2        26169           0.0000000000
     75391     25131  TIP3      OH2             0.9015233595       19.0158677139       35.1177203535  W2        26170           0.0000000000
     75392     25131  TIP3      H1              0.4143933595       18.2802777139       34.7464603535  W2        26170           0.0000000000
     75393     25131  TIP3      H2              1.4507933595       18.6222577139       35.7956603535  W2        26170           0.0000000000
     75394     25132  TIP3      OH2             0.6532233595       13.0620477139       25.2700003535  W2        26172           0.0000000000
     75395     25132  TIP3      H1              1.5033633595       13.4831377139       25.3971603535  W2        26172           0.0000000000
     75396     25132  TIP3      H2              0.6587333595       12.3220577139       25.8771403535  W2        26172           0.0000000000
     75397     25133  TIP3      OH2             1.0477833595       11.1157877139       27.0935703535  W2        26173           0.0000000000
     75398     25133  TIP3      H1              0.3212433595       10.6360477139       27.4913303535  W2        26173           0.0000000000
     75399     25133  TIP3      H2              1.6291133595       11.3212577139       27.8257303535  W2        26173           0.0000000000
     75400     25134  TIP3      OH2             0.8069033595       13.9005377139       32.0413303535  W2        26174           0.0000000000
     75401     25134  TIP3      H1              1.6403233595       13.5225377139       31.7606903535  W2        26174           0.0000000000
     75402     25134  TIP3      H2              0.9189333595       14.8436577139       31.9222403535  W2        26174           0.0000000000
     75403     25135  TIP3      OH2            -0.7068666405       16.7782877139       34.3481703535  W2        26175           0.0000000000
     75404     25135  TIP3      H1             -1.3543366405       17.1034377139       34.9736903535  W2        26175           0.0000000000
     75405     25135  TIP3      H2             -1.2244666405       16.3380577139       33.6740003535  W2        26175           0.0000000000
     75406     25136  TIP3      OH2             1.3160933595       11.0166377139       23.4847003535  W2        26176           0.0000000000
     75407     25136  TIP3      H1              0.7942033595       11.3730477139       22.7657903535  W2        26176           0.0000000000
     75408     25136  TIP3      H2              1.2830133595       11.6914177139       24.1627903535  W2        26176           0.0000000000
     75409     25137  TIP3      OH2            -0.3350066405        8.2561977139       22.0354103535  W2        26177           0.0000000000
     75410     25137  TIP3      H1             -0.2385666405        8.9228977139       21.3553803535  W2        26177           0.0000000000
     75411     25137  TIP3      H2             -0.4750466405        7.4408277139       21.5539603535  W2        26177           0.0000000000
     75412     25138  TIP3      OH2            -1.1655366405        9.6364377139       27.6564403535  W2        26178           0.0000000000
     75413     25138  TIP3      H1             -1.3156566405        8.6912977139       27.6362203535  W2        26178           0.0000000000
     75414     25138  TIP3      H2             -1.5190866405        9.9175777139       28.5003503535  W2        26178           0.0000000000
     75415     25139  TIP3      OH2           -16.1302966405       11.7146577139       31.6668203535  W2        26179           0.0000000000
     75416     25139  TIP3      H1            -15.9460066405       11.6328277139       30.7311103535  W2        26179           0.0000000000
     75417     25139  TIP3      H2            -15.2810066405       11.5903577139       32.0904603535  W2        26179           0.0000000000
     75418     25140  TIP3      OH2            -1.0876266405        5.6641777139       21.1529603535  W2        26182           0.0000000000
     75419     25140  TIP3      H1             -0.4770466405        5.2928577139       21.7897803535  W2        26182           0.0000000000
     75420     25140  TIP3      H2             -1.9244766405        5.2428677139       21.3489603535  W2        26182           0.0000000000
     75421     25141  TIP3      OH2            -1.4550566405        7.2190177139       26.1189503535  W2        26183           0.0000000000
     75422     25141  TIP3      H1             -1.1753466405        6.3120577139       26.2431203535  W2        26183           0.0000000000
     75423     25141  TIP3      H2             -0.6958866405        7.6531677139       25.7298703535  W2        26183           0.0000000000
     75424     25142  TIP3      OH2            -0.8432266405        7.8007577139       31.5548403535  W2        26184           0.0000000000
     75425     25142  TIP3      H1              0.0895733595        8.0127477139       31.5204403535  W2        26184           0.0000000000
     75426     25142  TIP3      H2             -1.0784766405        7.9019677139       32.4771403535  W2        26184           0.0000000000
     75427     25143  TIP3      OH2            -0.8140366405        8.5372877139       34.3307803535  W2        26185           0.0000000000
     75428     25143  TIP3      H1             -1.6569066405        8.8053277139       34.6967603535  W2        26185           0.0000000000
     75429     25143  TIP3      H2             -0.3716066405        9.3594777139       34.1198903535  W2        26185           0.0000000000
     75430     25144  TIP3      OH2            -0.8415766405        4.4819477139       26.1671503535  W2        26188           0.0000000000
     75431     25144  TIP3      H1             -0.6590766405        4.0330977139       26.9926503535  W2        26188           0.0000000000
     75432     25144  TIP3      H2             -1.4412866405        3.8973877139       25.7036103535  W2        26188           0.0000000000
     75433     25145  TIP3      OH2           -15.3115666405        5.2973177139       30.6989903535  W2        26189           0.0000000000
     75434     25145  TIP3      H1            -14.8664066405        4.5055677139       31.0009603535  W2        26189           0.0000000000
     75435     25145  TIP3      H2            -14.8452666405        6.0138377139       31.1295503535  W2        26189           0.0000000000
     75436     25146  TIP3      OH2           -17.0075366405        8.2966177139       31.7680103535  W2        26190           0.0000000000
     75437     25146  TIP3      H1            -16.5155566405        8.0756677139       30.9772103535  W2        26190           0.0000000000
     75438     25146  TIP3      H2            -16.6454466405        9.1369577139       32.0489603535  W2        26190           0.0000000000
     75439     25147  TIP3      OH2             1.0250433595        4.5497577139       22.6951803535  W2        26192           0.0000000000
     75440     25147  TIP3      H1              1.4373033595        3.8283277139       22.2199803535  W2        26192           0.0000000000
     75441     25147  TIP3      H2              1.7066933595        5.2192177139       22.7536103535  W2        26192           0.0000000000
     75442     25148  TIP3      OH2           -16.6938866405        4.5545277139       25.8222503535  W2        26193           0.0000000000
     75443     25148  TIP3      H1            -17.6190466405        4.7631877139       25.6928003535  W2        26193           0.0000000000
     75444     25148  TIP3      H2            -16.2398966405        5.0386077139       25.1324803535  W2        26193           0.0000000000
     75445     25149  TIP3      OH2            -1.9231666405       19.5386977139       27.7679903535  W2        26194           0.0000000000
     75446     25149  TIP3      H1             -1.2708766405       19.1909077139       27.1599003535  W2        26194           0.0000000000
     75447     25149  TIP3      H2             -1.4127866405       20.0270177139       28.4139603535  W2        26194           0.0000000000
     75448     25150  TIP3      OH2           -16.7303466405        3.2924277139       34.1665003535  W2        26195           0.0000000000
     75449     25150  TIP3      H1            -17.3952966405        3.0464577139       34.8095903535  W2        26195           0.0000000000
     75450     25150  TIP3      H2            -17.1732166405        3.9144677139       33.5893003535  W2        26195           0.0000000000
     75451     25151  TIP3      OH2           -11.5841266405       17.4419577139       34.5694803535  W2        26197           0.0000000000
     75452     25151  TIP3      H1            -12.0090166405       18.2518077139       34.2869403535  W2        26197           0.0000000000
     75453     25151  TIP3      H2            -10.6798466405       17.5273677139       34.2674603535  W2        26197           0.0000000000
     75454     25152  TIP3      OH2           -14.1824566405       20.6983477139       34.6170103535  W2        26201           0.0000000000
     75455     25152  TIP3      H1            -14.9028166405       21.1384477139       34.1657803535  W2        26201           0.0000000000
     75456     25152  TIP3      H2            -14.5480566405       20.4478177139       35.4654103535  W2        26201           0.0000000000
     75457     25153  TIP3      OH2           -11.7151966405       20.2987377139       33.6467303535  W2        26202           0.0000000000
     75458     25153  TIP3      H1            -12.5799766405       20.3705877139       34.0507403535  W2        26202           0.0000000000
     75459     25153  TIP3      H2            -11.7702966405       20.8454677139       32.8629803535  W2        26202           0.0000000000
     75460     25154  TIP3      OH2            -7.0046366405       20.1866277139       32.8223303535  W2        26203           0.0000000000
     75461     25154  TIP3      H1             -7.4612366405       20.7155977139       32.1681703535  W2        26203           0.0000000000
     75462     25154  TIP3      H2             -6.8418366405       20.7897677139       33.5475603535  W2        26203           0.0000000000
     75463     25155  TIP3      OH2            -4.6770066405       19.0645877139       33.7673603535  W2        26204           0.0000000000
     75464     25155  TIP3      H1             -5.5816366405       19.2296077139       33.5015703535  W2        26204           0.0000000000
     75465     25155  TIP3      H2             -4.2481466405       19.9178077139       33.7017003535  W2        26204           0.0000000000
     75466     25156  TIP3      OH2            -2.0728166405       20.6344977139       34.0621403535  W2        26205           0.0000000000
     75467     25156  TIP3      H1             -2.2546166405       21.5503877139       33.8516303535  W2        26205           0.0000000000
     75468     25156  TIP3      H2             -1.8960366405       20.2242077139       33.2156003535  W2        26205           0.0000000000
     75469     25157  TIP3      OH2           -14.7676466405       19.3215977139       31.5271903535  W2        26206           0.0000000000
     75470     25157  TIP3      H1            -14.7860466405       18.8961077139       32.3844203535  W2        26206           0.0000000000
     75471     25157  TIP3      H2            -13.9628566405       19.0030977139       31.1184103535  W2        26206           0.0000000000
     75472     25158  TIP3      OH2           -12.6263366405       18.0314677139       30.1821803535  W2        26207           0.0000000000
     75473     25158  TIP3      H1            -12.8452666405       17.1152077139       30.3517803535  W2        26207           0.0000000000
     75474     25158  TIP3      H2            -11.8021166405       18.1715077139       30.6483203535  W2        26207           0.0000000000
     75475     25159  TIP3      OH2           -10.0890866405       18.5013977139       31.0309803535  W2        26208           0.0000000000
     75476     25159  TIP3      H1             -9.8765166405       17.6132977139       30.7440703535  W2        26208           0.0000000000
     75477     25159  TIP3      H2            -10.0245766405       18.4671677139       31.9853803535  W2        26208           0.0000000000
     75478     25160  TIP3      OH2            -6.5807166405        4.1654577139       30.1753103535  W2        26209           0.0000000000
     75479     25160  TIP3      H1             -7.2550366405        3.5360177139       30.4308903535  W2        26209           0.0000000000
     75480     25160  TIP3      H2             -6.0167966405        3.6813477139       29.5721003535  W2        26209           0.0000000000
     75481     25161  TIP3      OH2            -1.4379966405        2.2728577139       30.2880203535  W2        26210           0.0000000000
     75482     25161  TIP3      H1             -0.8342366405        2.8203977139       29.7861203535  W2        26210           0.0000000000
     75483     25161  TIP3      H2             -2.3077966405        2.5918977139       30.0474303535  W2        26210           0.0000000000
     75484     25162  TIP3      OH2             0.2890433595        3.4117277139       28.6211103535  W2        26211           0.0000000000
     75485     25162  TIP3      H1              0.9007933595        2.8972977139       28.0944703535  W2        26211           0.0000000000
     75486     25162  TIP3      H2              0.6713833595        4.2889377139       28.6445503535  W2        26211           0.0000000000
     75487     25163  TIP3      OH2           -14.2539666405        2.7994877139       27.9973003535  W2        26212           0.0000000000
     75488     25163  TIP3      H1            -15.0309866405        2.5649777139       27.4898903535  W2        26212           0.0000000000
     75489     25163  TIP3      H2            -13.7236066405        2.0026977139       28.0061003535  W2        26212           0.0000000000
     75490     25164  TIP3      OH2           -15.4176266405        2.5972977139       23.8009103535  W2        26213           0.0000000000
     75491     25164  TIP3      H1            -14.9785566405        3.2083477139       23.2092603535  W2        26213           0.0000000000
     75492     25164  TIP3      H2            -16.0513866405        3.1357077139       24.2749103535  W2        26213           0.0000000000
     75493     25165  TIP3      OH2            -9.6747066405        2.7261977139       27.8106103535  W2        26214           0.0000000000
     75494     25165  TIP3      H1             -8.8003666405        3.1146277139       27.7810403535  W2        26214           0.0000000000
     75495     25165  TIP3      H2             -9.8106266405        2.5109777139       28.7333303535  W2        26214           0.0000000000
     75496     25166  TIP3      OH2            -4.1178666405        2.7561777139       29.4597803535  W2        26215           0.0000000000
     75497     25166  TIP3      H1             -4.0417066405        2.8513377139       28.5103803535  W2        26215           0.0000000000
     75498     25166  TIP3      H2             -4.3929466405        1.8484677139       29.5886903535  W2        26215           0.0000000000
     75499     25167  TIP3      OH2            -2.7646066405        2.7819577139       25.1522803535  W2        26216           0.0000000000
     75500     25167  TIP3      H1             -3.4674966405        3.3968777139       24.9424203535  W2        26216           0.0000000000
     75501     25167  TIP3      H2             -3.2094666405        1.9446277139       25.2833703535  W2        26216           0.0000000000
     75502     25168  TIP3      OH2           -15.5166766405       18.5455177139       24.6984203535  W2        26217           0.0000000000
     75503     25168  TIP3      H1            -16.2016866405       18.5074077139       24.0309303535  W2        26217           0.0000000000
     75504     25168  TIP3      H2            -15.5129566405       19.4582777139       24.9866303535  W2        26217           0.0000000000
     75505     25169  TIP3      OH2           -13.5567166405        4.5134477139       22.2433203535  W2        26218           0.0000000000
     75506     25169  TIP3      H1            -13.0653766405        3.8836877139       21.7158703535  W2        26218           0.0000000000
     75507     25169  TIP3      H2            -12.9330866405        4.8093877139       22.9064403535  W2        26218           0.0000000000
     75508     25170  TIP3      OH2            -8.5307066405        4.8065977139       24.7003703535  W2        26219           0.0000000000
     75509     25170  TIP3      H1             -8.3525766405        4.1599177139       25.3832303535  W2        26219           0.0000000000
     75510     25170  TIP3      H2             -8.5840866405        5.6403677139       25.1674803535  W2        26219           0.0000000000
     75511     25171  TIP3      OH2            -6.6523266405       19.7550077139       23.0960403535  W2        26220           0.0000000000
     75512     25171  TIP3      H1             -5.7863066405       20.1217477139       22.9178603535  W2        26220           0.0000000000
     75513     25171  TIP3      H2             -6.8990466405       19.3158077139       22.2821203535  W2        26220           0.0000000000
     75514     25172  TIP3      OH2             0.0566333595       19.3180377139       25.7751503535  W2        26221           0.0000000000
     75515     25172  TIP3      H1             -0.1376566405       18.5702477139       25.2101103535  W2        26221           0.0000000000
     75516     25172  TIP3      H2              0.0176433595       20.0760477139       25.1919403535  W2        26221           0.0000000000
     75517     25173  TIP3      OH2           -13.6985566405       19.4655977139       21.7236303535  W2        26224           0.0000000000
     75518     25173  TIP3      H1            -13.9660966405       19.7518877139       22.5969403535  W2        26224           0.0000000000
     75519     25173  TIP3      H2            -12.9272966405       18.9195177139       21.8758803535  W2        26224           0.0000000000
     75520     25174  TIP3      OH2            13.6802933595       11.9557177139       27.9560503535  W2        26227           0.0000000000
     75521     25174  TIP3      H1             13.7694033595       12.8995377139       27.8237603535  W2        26227           0.0000000000
     75522     25174  TIP3      H2             13.0420533595       11.6803577139       27.2979903535  W2        26227           0.0000000000
     75523     25175  TIP3      OH2            12.6134233595       11.2107877139       31.3748703535  W2        26228           0.0000000000
     75524     25175  TIP3      H1             12.5751733595       10.5644177139       32.0798303535  W2        26228           0.0000000000
     75525     25175  TIP3      H2             12.2910733595       10.7442277139       30.6037403535  W2        26228           0.0000000000
     75526     25176  TIP3      OH2             4.9819233595       10.8249977139       32.9678603535  W2        26229           0.0000000000
     75527     25176  TIP3      H1              5.0231333595       10.1993277139       33.6911003535  W2        26229           0.0000000000
     75528     25176  TIP3      H2              5.6846933595       11.4488577139       33.1499003535  W2        26229           0.0000000000
     75529     25177  TIP3      OH2            16.3194433595       14.1498277139       29.6763803535  W2        26230           0.0000000000
     75530     25177  TIP3      H1             15.8787133595       13.4294277139       30.1269403535  W2        26230           0.0000000000
     75531     25177  TIP3      H2             16.3064133595       14.8705477139       30.3061503535  W2        26230           0.0000000000
     75532     25178  TIP3      OH2             5.9052333595       15.2748877139       31.5027703535  W2        26231           0.0000000000
     75533     25178  TIP3      H1              5.5357533595       14.4729377139       31.1332003535  W2        26231           0.0000000000
     75534     25178  TIP3      H2              6.8463433595       15.1063777139       31.5491103535  W2        26231           0.0000000000
     75535     25179  TIP3      OH2             2.5152833595        8.9351477139       26.8956503535  W2        26232           0.0000000000
     75536     25179  TIP3      H1              2.0676233595        9.7810177139       26.8773003535  W2        26232           0.0000000000
     75537     25179  TIP3      H2              1.9544033595        8.3555677139       26.3801603535  W2        26232           0.0000000000
     75538     25180  TIP3      OH2             3.2258933595       11.0971077139       29.0214503535  W2        26233           0.0000000000
     75539     25180  TIP3      H1              3.4392433595       10.3272677139       29.5487503535  W2        26233           0.0000000000
     75540     25180  TIP3      H2              3.9636533595       11.1867777139       28.4182103535  W2        26233           0.0000000000
     75541     25181  TIP3      OH2            13.4309933595       19.2539977139       29.8884203535  W2        26234           0.0000000000
     75542     25181  TIP3      H1             14.0506333595       18.5774677139       29.6153403535  W2        26234           0.0000000000
     75543     25181  TIP3      H2             13.2227333595       19.0360777139       30.7969103535  W2        26234           0.0000000000
     75544     25182  TIP3      OH2            11.0028633595       13.6429277139       31.7809703535  W2        26235           0.0000000000
     75545     25182  TIP3      H1             11.3066533595       12.9570677139       31.1863803535  W2        26235           0.0000000000
     75546     25182  TIP3      H2             11.7242633595       13.7617977139       32.3987703535  W2        26235           0.0000000000
     75547     25183  TIP3      OH2            19.6658433595        5.2444577139       32.6415903535  W2        26236           0.0000000000
     75548     25183  TIP3      H1             19.7150633595        5.8545777139       33.3775003535  W2        26236           0.0000000000
     75549     25183  TIP3      H2             20.0913533595        5.7055477139       31.9187003535  W2        26236           0.0000000000
     75550     25184  TIP3      OH2            14.1435633595        8.0371677139       32.1084503535  W2        26237           0.0000000000
     75551     25184  TIP3      H1             14.2861533595        7.0908677139       32.1286103535  W2        26237           0.0000000000
     75552     25184  TIP3      H2             14.0374633595        8.2441477139       31.1799403535  W2        26237           0.0000000000
     75553     25185  TIP3      OH2             7.2983933595        6.1388077139       29.3809303535  W2        26238           0.0000000000
     75554     25185  TIP3      H1              7.3415033595        6.9986577139       28.9625603535  W2        26238           0.0000000000
     75555     25185  TIP3      H2              6.8408033595        5.5862777139       28.7472503535  W2        26238           0.0000000000
     75556     25186  TIP3      OH2            15.0206633595        6.2693677139       27.7817603535  W2        26239           0.0000000000
     75557     25186  TIP3      H1             15.6670933595        5.9406877139       28.4065203535  W2        26239           0.0000000000
     75558     25186  TIP3      H2             15.5306033595        6.7872677139       27.1589003535  W2        26239           0.0000000000
     75559     25187  TIP3      OH2             3.9185433595        8.5353877139       30.1430703535  W2        26240           0.0000000000
     75560     25187  TIP3      H1              4.5722033595        7.9855577139       30.5750803535  W2        26240           0.0000000000
     75561     25187  TIP3      H2              3.9424733595        8.2612877139       29.2262703535  W2        26240           0.0000000000
     75562     25188  TIP3      OH2             9.0749933595       10.0855177139       29.3582203535  W2        26241           0.0000000000
     75563     25188  TIP3      H1              9.6910933595        9.5590577139       29.8676203535  W2        26241           0.0000000000
     75564     25188  TIP3      H2              8.4888733595        9.4453877139       28.9545803535  W2        26241           0.0000000000
     75565     25189  TIP3      OH2            20.0573033595        6.7223777139       34.8775703535  W2        26242           0.0000000000
     75566     25189  TIP3      H1             19.3687633595        7.3804477139       34.7822303535  W2        26242           0.0000000000
     75567     25189  TIP3      H2             20.0727633595        6.5251677139       35.8141103535  W2        26242           0.0000000000
     75568     25190  TIP3      OH2             6.1085833595        5.0566477139       33.4550103535  W2        26243           0.0000000000
     75569     25190  TIP3      H1              5.8897533595        5.5867077139       32.6886103535  W2        26243           0.0000000000
     75570     25190  TIP3      H2              5.4406733595        5.2831977139       34.1021503535  W2        26243           0.0000000000
     75571     25191  TIP3      OH2            13.4775633595       14.5567577139       26.9989203535  W2        26244           0.0000000000
     75572     25191  TIP3      H1             13.1820733595       14.2339877139       26.1476103535  W2        26244           0.0000000000
     75573     25191  TIP3      H2             13.1533433595       15.4564277139       27.0401803535  W2        26244           0.0000000000
     75574     25192  TIP3      OH2             8.6777233595       12.7322177139       33.7423803535  W2        26245           0.0000000000
     75575     25192  TIP3      H1              7.9376333595       13.3303677139       33.8459003535  W2        26245           0.0000000000
     75576     25192  TIP3      H2              9.3916733595       13.2861777139       33.4267403535  W2        26245           0.0000000000
     75577     25193  TIP3      OH2            16.7845033595        5.5602977139       29.7623503535  W2        26246           0.0000000000
     75578     25193  TIP3      H1             16.5693033595        4.7946377139       30.2949503535  W2        26246           0.0000000000
     75579     25193  TIP3      H2             17.4402433595        6.0327577139       30.2752003535  W2        26246           0.0000000000
     75580     25194  TIP3      OH2             5.7023133595        6.9488277139       31.4072303535  W2        26247           0.0000000000
     75581     25194  TIP3      H1              6.3159433595        7.5815877139       31.7804703535  W2        26247           0.0000000000
     75582     25194  TIP3      H2              6.2143833595        6.4763277139       30.7509203535  W2        26247           0.0000000000
     75583     25195  TIP3      OH2             7.0851533595       14.6965177139       34.5295303535  W2        26248           0.0000000000
     75584     25195  TIP3      H1              7.0799133595       15.5758677139       34.1514603535  W2        26248           0.0000000000
     75585     25195  TIP3      H2              6.2315633595       14.6129277139       34.9545203535  W2        26248           0.0000000000
     75586     25196  TIP3      OH2             3.2062433595       14.3673077139       25.3114603535  W2        26249           0.0000000000
     75587     25196  TIP3      H1              2.9343333595       14.5964077139       24.4227503535  W2        26249           0.0000000000
     75588     25196  TIP3      H2              3.2518133595       15.2051877139       25.7719903535  W2        26249           0.0000000000
     75589     25197  TIP3      OH2            16.8312133595       15.9888977139       32.0243103535  W2        26250           0.0000000000
     75590     25197  TIP3      H1             15.8895833595       16.0472877139       32.1860003535  W2        26250           0.0000000000
     75591     25197  TIP3      H2             17.1078233595       16.8949477139       31.8872803535  W2        26250           0.0000000000
     75592     25198  TIP3      OH2            17.1319133595        4.2754277139       33.4417003535  W2        26251           0.0000000000
     75593     25198  TIP3      H1             16.3958333595        4.8861377139       33.4038303535  W2        26251           0.0000000000
     75594     25198  TIP3      H2             17.8153133595        4.6903277139       32.9153403535  W2        26251           0.0000000000
     75595     25199  TIP3      OH2            10.1350533595        2.3621577139       30.9075003535  W2        26252           0.0000000000
     75596     25199  TIP3      H1             10.0174733595        1.4137577139       30.8533303535  W2        26252           0.0000000000
     75597     25199  TIP3      H2              9.2800633595        2.6947677139       31.1806103535  W2        26252           0.0000000000
     75598     25200  TIP3      OH2            15.0833333595       17.7702477139       28.6494703535  W2        26253           0.0000000000
     75599     25200  TIP3      H1             15.5085633595       17.0630377139       28.1644303535  W2        26253           0.0000000000
     75600     25200  TIP3      H2             15.4003333595       18.5715177139       28.2326903535  W2        26253           0.0000000000
     75601     25201  TIP3      OH2            16.2429833595       15.6710977139       27.1581303535  W2        26254           0.0000000000
     75602     25201  TIP3      H1             15.9854633595       14.9811077139       26.5467203535  W2        26254           0.0000000000
     75603     25201  TIP3      H2             16.3140633595       15.2282177139       28.0037203535  W2        26254           0.0000000000
     75604     25202  TIP3      OH2            12.4015433595       11.1997177139       25.4080803535  W2        26256           0.0000000000
     75605     25202  TIP3      H1             11.6900933595       11.7346877139       25.0561303535  W2        26256           0.0000000000
     75606     25202  TIP3      H2             13.0925033595       11.2549277139       24.7479703535  W2        26256           0.0000000000
     75607     25203  TIP3      OH2            12.4554633595        9.6571477139       22.4465803535  W2        26257           0.0000000000
     75608     25203  TIP3      H1             13.1564533595        9.6798377139       23.0979803535  W2        26257           0.0000000000
     75609     25203  TIP3      H2             12.7577533595        9.0291177139       21.7905103535  W2        26257           0.0000000000
     75610     25204  TIP3      OH2            19.7709333595       10.5775677139       33.7015203535  W2        26258           0.0000000000
     75611     25204  TIP3      H1             19.1183433595       11.2721277139       33.7906103535  W2        26258           0.0000000000
     75612     25204  TIP3      H2             20.2359633595       10.7876577139       32.8916803535  W2        26258           0.0000000000
     75613     25205  TIP3      OH2            15.8073133595       11.4090477139       26.3596703535  W2        26259           0.0000000000
     75614     25205  TIP3      H1             15.0754133595       11.6374177139       26.9327303535  W2        26259           0.0000000000
     75615     25205  TIP3      H2             16.2545333595       10.6953177139       26.8144203535  W2        26259           0.0000000000
     75616     25206  TIP3      OH2            15.7046633595        9.5833077139       35.4273703535  W2        26260           0.0000000000
     75617     25206  TIP3      H1             15.7845733595       10.3467477139       35.9992203535  W2        26260           0.0000000000
     75618     25206  TIP3      H2             15.1034333595        9.8625477139       34.7368803535  W2        26260           0.0000000000
     75619     25207  TIP3      OH2             7.4526833595       12.0396677139       28.2421703535  W2        26261           0.0000000000
     75620     25207  TIP3      H1              7.1222033595       11.6690077139       27.4238703535  W2        26261           0.0000000000
     75621     25207  TIP3      H2              8.0410933595       11.3690677139       28.5890003535  W2        26261           0.0000000000
     75622     25208  TIP3      OH2             8.8194333595       15.4677277139       30.9233903535  W2        26262           0.0000000000
     75623     25208  TIP3      H1              8.7245633595       14.8890377139       30.1668503535  W2        26262           0.0000000000
     75624     25208  TIP3      H2              9.5487933595       15.0962977139       31.4196703535  W2        26262           0.0000000000
     75625     25209  TIP3      OH2             7.8192333595       10.8082277139       31.8756703535  W2        26263           0.0000000000
     75626     25209  TIP3      H1              8.3844833595       10.9296477139       31.1127903535  W2        26263           0.0000000000
     75627     25209  TIP3      H2              8.1381233595       11.4457277139       32.5145203535  W2        26263           0.0000000000
     75628     25210  TIP3      OH2            14.1284533595       16.3114177139       32.6097203535  W2        26264           0.0000000000
     75629     25210  TIP3      H1             13.8881133595       16.9737277139       33.2576403535  W2        26264           0.0000000000
     75630     25210  TIP3      H2             13.9302733595       15.4769377139       33.0346803535  W2        26264           0.0000000000
     75631     25211  TIP3      OH2            14.6782633595       10.5713377139       24.0447903535  W2        26266           0.0000000000
     75632     25211  TIP3      H1             15.2578133595       10.7213677139       24.7916803535  W2        26266           0.0000000000
     75633     25211  TIP3      H2             15.0922633595       11.0420777139       23.3214303535  W2        26266           0.0000000000
     75634     25212  TIP3      OH2            12.4047533595       17.3081877139       27.4801003535  W2        26268           0.0000000000
     75635     25212  TIP3      H1             12.8785133595       17.6038177139       28.2575203535  W2        26268           0.0000000000
     75636     25212  TIP3      H2             11.8416833595       18.0463477139       27.2470603535  W2        26268           0.0000000000
     75637     25213  TIP3      OH2            18.3771033595        2.3213777139       23.8577603535  W2        26270           0.0000000000
     75638     25213  TIP3      H1             17.4771733595        2.4602777139       24.1528203535  W2        26270           0.0000000000
     75639     25213  TIP3      H2             18.6289433595        3.1528377139       23.4559303535  W2        26270           0.0000000000
     75640     25214  TIP3      OH2             6.4429533595       11.1090977139       25.8314503535  W2        26271           0.0000000000
     75641     25214  TIP3      H1              6.1510833595       11.8772677139       25.3405803535  W2        26271           0.0000000000
     75642     25214  TIP3      H2              5.7684733595       10.4497177139       25.6685903535  W2        26271           0.0000000000
     75643     25215  TIP3      OH2            19.5662433595       16.6876177139       22.2341503535  W2        26272           0.0000000000
     75644     25215  TIP3      H1             19.6395933595       17.6266377139       22.4046803535  W2        26272           0.0000000000
     75645     25215  TIP3      H2             20.4717533595       16.3824777139       22.1778803535  W2        26272           0.0000000000
     75646     25216  TIP3      OH2             2.5359633595       13.4720177139       34.6464303535  W2        26273           0.0000000000
     75647     25216  TIP3      H1              2.0348033595       13.4439577139       33.8314003535  W2        26273           0.0000000000
     75648     25216  TIP3      H2              2.5413333595       12.5663377139       34.9561603535  W2        26273           0.0000000000
     75649     25217  TIP3      OH2             2.2862333595       16.2523977139       31.5304503535  W2        26274           0.0000000000
     75650     25217  TIP3      H1              3.2322933595       16.1080977139       31.5114003535  W2        26274           0.0000000000
     75651     25217  TIP3      H2              2.1738633595       17.0366777139       32.0675703535  W2        26274           0.0000000000
     75652     25218  TIP3      OH2            11.8770633595       20.2646577139       25.8950203535  W2        26277           0.0000000000
     75653     25218  TIP3      H1             11.8016633595       20.1433777139       24.9485403535  W2        26277           0.0000000000
     75654     25218  TIP3      H2             11.9099333595       21.2139277139       26.0134803535  W2        26277           0.0000000000
     75655     25219  TIP3      OH2             5.5304433595       19.0533577139       27.6759203535  W2        26278           0.0000000000
     75656     25219  TIP3      H1              5.6824833595       18.7053977139       28.5545703535  W2        26278           0.0000000000
     75657     25219  TIP3      H2              4.6794833595       18.6970877139       27.4206403535  W2        26278           0.0000000000
     75658     25220  TIP3      OH2            14.9786633595       19.4186777139       22.8972603535  W2        26279           0.0000000000
     75659     25220  TIP3      H1             15.3535033595       18.6742877139       22.4265203535  W2        26279           0.0000000000
     75660     25220  TIP3      H2             14.9830333595       19.1487377139       23.8155903535  W2        26279           0.0000000000
     75661     25221  TIP3      OH2            14.6474733595       19.3443877139       25.6464803535  W2        26280           0.0000000000
     75662     25221  TIP3      H1             13.7124533595       19.4445777139       25.8251803535  W2        26280           0.0000000000
     75663     25221  TIP3      H2             14.9276633595       18.6349877139       26.2248003535  W2        26280           0.0000000000
     75664     25222  TIP3      OH2             7.4038133595        3.2656077139       31.6851303535  W2        26283           0.0000000000
     75665     25222  TIP3      H1              6.5421833595        3.1784277139       31.2774203535  W2        26283           0.0000000000
     75666     25222  TIP3      H2              7.3813833595        4.1216177139       32.1128903535  W2        26283           0.0000000000
     75667     25223  TIP3      OH2            12.0665933595        2.9876477139       35.0598303535  W2        26284           0.0000000000
     75668     25223  TIP3      H1             12.4869033595        2.5723577139       35.8128903535  W2        26284           0.0000000000
     75669     25223  TIP3      H2             11.1335533595        2.8089777139       35.1770303535  W2        26284           0.0000000000
     75670     25224  TIP3      OH2            16.1555733595       11.6041677139       21.6745803535  W2        26286           0.0000000000
     75671     25224  TIP3      H1             16.1976533595       11.3815577139       20.7445803535  W2        26286           0.0000000000
     75672     25224  TIP3      H2             17.0047833595       12.0028777139       21.8645703535  W2        26286           0.0000000000
     75673     25225  TIP3      OH2            11.7283233595        5.4799877139       22.3449103535  W2        26287           0.0000000000
     75674     25225  TIP3      H1             11.4748033595        5.4991477139       23.2677203535  W2        26287           0.0000000000
     75675     25225  TIP3      H2             11.4715333595        4.6085277139       22.0435303535  W2        26287           0.0000000000
     75676     25226  TIP3      OH2             7.4948233595        8.2310577139       32.7801503535  W2        26288           0.0000000000
     75677     25226  TIP3      H1              6.8530333595        8.1907877139       33.4891603535  W2        26288           0.0000000000
     75678     25226  TIP3      H2              7.5320233595        9.1575277139       32.5424503535  W2        26288           0.0000000000
     75679     25227  TIP3      OH2             7.4917333595        8.4520677139       27.6921503535  W2        26289           0.0000000000
     75680     25227  TIP3      H1              6.5990233595        8.1116777139       27.6335303535  W2        26289           0.0000000000
     75681     25227  TIP3      H2              7.9423933595        8.0751577139       26.9364703535  W2        26289           0.0000000000
     75682     25228  TIP3      OH2            13.0272833595        8.8680977139       26.5092303535  W2        26290           0.0000000000
     75683     25228  TIP3      H1             12.6183133595        9.6829577139       26.2177103535  W2        26290           0.0000000000
     75684     25228  TIP3      H2             13.7479033595        8.7281077139       25.8949403535  W2        26290           0.0000000000
     75685     25229  TIP3      OH2            14.0320533595        8.3141377139       29.3232003535  W2        26292           0.0000000000
     75686     25229  TIP3      H1             13.8365033595        8.9198177139       28.6082603535  W2        26292           0.0000000000
     75687     25229  TIP3      H2             14.2133133595        7.4806577139       28.8888303535  W2        26292           0.0000000000
     75688     25230  TIP3      OH2             5.2448733595        8.5514077139       34.6473503535  W2        26293           0.0000000000
     75689     25230  TIP3      H1              5.2068133595        8.9515677139       35.5160603535  W2        26293           0.0000000000
     75690     25230  TIP3      H2              4.7539833595        7.7346477139       34.7376403535  W2        26293           0.0000000000
     75691     25231  TIP3      OH2             8.6106133595        5.9256377139       21.4459503535  W2        26294           0.0000000000
     75692     25231  TIP3      H1              8.1796833595        5.4806477139       22.1756903535  W2        26294           0.0000000000
     75693     25231  TIP3      H2              7.8924833595        6.2972677139       20.9337003535  W2        26294           0.0000000000
     75694     25232  TIP3      OH2             1.8529533595        5.6675877139       28.4978203535  W2        26295           0.0000000000
     75695     25232  TIP3      H1              2.4837233595        5.6387977139       29.2172103535  W2        26295           0.0000000000
     75696     25232  TIP3      H2              2.3023833595        5.2424577139       27.7674103535  W2        26295           0.0000000000
     75697     25233  TIP3      OH2             3.1271633595        6.4137877139       23.9218603535  W2        26296           0.0000000000
     75698     25233  TIP3      H1              3.6013333595        7.0047777139       23.3369503535  W2        26296           0.0000000000
     75699     25233  TIP3      H2              2.4098033595        6.9440777139       24.2688703535  W2        26296           0.0000000000
     75700     25234  TIP3      OH2            13.2959733595        9.9522677139       33.9944403535  W2        26297           0.0000000000
     75701     25234  TIP3      H1             13.6194533595        9.3212377139       33.3514903535  W2        26297           0.0000000000
     75702     25234  TIP3      H2             12.8559033595        9.4174877139       34.6551803535  W2        26297           0.0000000000
     75703     25235  TIP3      OH2            10.0732633595        5.8798177139       28.7785603535  W2        26298           0.0000000000
     75704     25235  TIP3      H1              9.1623733595        5.9364977139       29.0671603535  W2        26298           0.0000000000
     75705     25235  TIP3      H2             10.5785533595        5.8193677139       29.5892803535  W2        26298           0.0000000000
     75706     25236  TIP3      OH2             4.9016033595        7.5084477139       27.6053203535  W2        26299           0.0000000000
     75707     25236  TIP3      H1              4.0124033595        7.6079977139       27.2652803535  W2        26299           0.0000000000
     75708     25236  TIP3      H2              5.1980933595        6.6667477139       27.2591103535  W2        26299           0.0000000000
     75709     25237  TIP3      OH2             8.5547833595        7.5087077139       25.2617803535  W2        26300           0.0000000000
     75710     25237  TIP3      H1              9.4863333595        7.6377077139       25.4400903535  W2        26300           0.0000000000
     75711     25237  TIP3      H2              8.3398133595        8.1781377139       24.6122503535  W2        26300           0.0000000000
     75712     25238  TIP3      OH2            14.4784533595        5.1144477139       32.0427403535  W2        26301           0.0000000000
     75713     25238  TIP3      H1             13.8016133595        5.2457577139       32.7067103535  W2        26301           0.0000000000
     75714     25238  TIP3      H2             13.9929433595        4.9593977139       31.2325103535  W2        26301           0.0000000000
     75715     25239  TIP3      OH2             7.2288033595        8.7029277139       22.8283903535  W2        26302           0.0000000000
     75716     25239  TIP3      H1              6.6863133595        8.3233077139       22.1371503535  W2        26302           0.0000000000
     75717     25239  TIP3      H2              8.0622933595        8.8973977139       22.3998003535  W2        26302           0.0000000000
     75718     25240  TIP3      OH2            11.3932333595        8.6671177139       30.6655203535  W2        26305           0.0000000000
     75719     25240  TIP3      H1             11.9575733595        8.1207777139       30.1184803535  W2        26305           0.0000000000
     75720     25240  TIP3      H2             11.2455733595        8.1453077139       31.4542803535  W2        26305           0.0000000000
     75721     25241  TIP3      OH2             6.3952033595        4.8037277139       27.0840003535  W2        26306           0.0000000000
     75722     25241  TIP3      H1              6.0781533595        3.9012577139       27.0485403535  W2        26306           0.0000000000
     75723     25241  TIP3      H2              7.1766133595        4.8054677139       26.5311603535  W2        26306           0.0000000000
     75724     25242  TIP3      OH2            10.0198233595        7.0557277139       33.0795603535  W2        26307           0.0000000000
     75725     25242  TIP3      H1              9.1843533595        7.5096777139       33.1898003535  W2        26307           0.0000000000
     75726     25242  TIP3      H2             10.5438833595        7.3315777139       33.8315503535  W2        26307           0.0000000000
     75727     25243  TIP3      OH2            10.5640833595       13.2684977139       24.7642003535  W2        26308           0.0000000000
     75728     25243  TIP3      H1              9.8191833595       12.7610277139       24.4419903535  W2        26308           0.0000000000
     75729     25243  TIP3      H2             10.4298033595       13.3172977139       25.7106803535  W2        26308           0.0000000000
     75730     25244  TIP3      OH2            17.7139733595       12.4013177139       33.5509603535  W2        26309           0.0000000000
     75731     25244  TIP3      H1             18.3558533595       12.8579477139       33.0071803535  W2        26309           0.0000000000
     75732     25244  TIP3      H2             16.8836633595       12.5145577139       33.0883703535  W2        26309           0.0000000000
     75733     25245  TIP3      OH2            14.4617633595        6.0824877139       22.9634603535  W2        26310           0.0000000000
     75734     25245  TIP3      H1             13.5231833595        6.1940477139       22.8123403535  W2        26310           0.0000000000
     75735     25245  TIP3      H2             14.7589733595        6.9391777139       23.2700303535  W2        26310           0.0000000000
     75736     25246  TIP3      OH2            15.1801133595        7.9497577139       24.6242003535  W2        26312           0.0000000000
     75737     25246  TIP3      H1             16.0720133595        7.8122577139       24.9433203535  W2        26312           0.0000000000
     75738     25246  TIP3      H2             15.2364733595        8.7403677139       24.0875503535  W2        26312           0.0000000000
     75739     25247  TIP3      OH2             5.6889133595       12.5634977139       30.5339903535  W2        26313           0.0000000000
     75740     25247  TIP3      H1              6.4336333595       12.5610677139       29.9326403535  W2        26313           0.0000000000
     75741     25247  TIP3      H2              5.7665733595       11.7398777139       31.0155003535  W2        26313           0.0000000000
     75742     25248  TIP3      OH2            12.6894933595       14.7269277139       23.7896603535  W2        26314           0.0000000000
     75743     25248  TIP3      H1             12.3943333595       15.5537177139       24.1711403535  W2        26314           0.0000000000
     75744     25248  TIP3      H2             11.9864933595       14.1076177139       23.9858003535  W2        26314           0.0000000000
     75745     25249  TIP3      OH2            20.0649833595        8.1591677139       24.3188703535  W2        26318           0.0000000000
     75746     25249  TIP3      H1             19.5106133595        7.7629677139       23.6466203535  W2        26318           0.0000000000
     75747     25249  TIP3      H2             20.1653433595        9.0696877139       24.0412003535  W2        26318           0.0000000000
     75748     25250  TIP3      OH2            18.3601533595       16.9452077139       24.7840803535  W2        26320           0.0000000000
     75749     25250  TIP3      H1             17.9872633595       16.1195877139       25.0931403535  W2        26320           0.0000000000
     75750     25250  TIP3      H2             18.6375033595       16.7621477139       23.8864203535  W2        26320           0.0000000000
     75751     25251  TIP3      OH2            15.5205433595       11.7531577139       31.8052703535  W2        26321           0.0000000000
     75752     25251  TIP3      H1             14.5922333595       11.5213477139       31.7782003535  W2        26321           0.0000000000
     75753     25251  TIP3      H2             15.9716533595       10.9761377139       31.4751503535  W2        26321           0.0000000000
     75754     25252  TIP3      OH2             8.0638533595       16.0813177139       27.9381403535  W2        26322           0.0000000000
     75755     25252  TIP3      H1              8.5910733595       16.8547577139       27.7380203535  W2        26322           0.0000000000
     75756     25252  TIP3      H2              7.1837033595       16.3062377139       27.6365403535  W2        26322           0.0000000000
     75757     25253  TIP3      OH2             3.8186233595       10.9437277139       22.5253803535  W2        26323           0.0000000000
     75758     25253  TIP3      H1              4.4346133595       11.5704477139       22.9048603535  W2        26323           0.0000000000
     75759     25253  TIP3      H2              2.9568833595       11.2597077139       22.7970303535  W2        26323           0.0000000000
     75760     25254  TIP3      OH2             9.4910833595       13.7443077139       27.5145703535  W2        26324           0.0000000000
     75761     25254  TIP3      H1              9.2500833595       14.6697477139       27.5561003535  W2        26324           0.0000000000
     75762     25254  TIP3      H2              8.7504433595       13.2854377139       27.9109603535  W2        26324           0.0000000000
     75763     25255  TIP3      OH2            10.0057433595       17.8936677139       33.8296803535  W2        26325           0.0000000000
     75764     25255  TIP3      H1             10.3682133595       18.7482277139       33.5961203535  W2        26325           0.0000000000
     75765     25255  TIP3      H2             10.5372633595       17.6018277139       34.5703103535  W2        26325           0.0000000000
     75766     25256  TIP3      OH2             8.1741633595       18.7660677139       27.0597903535  W2        26326           0.0000000000
     75767     25256  TIP3      H1              7.2242133595       18.8718077139       27.1111203535  W2        26326           0.0000000000
     75768     25256  TIP3      H2              8.5259733595       19.5868077139       27.4045403535  W2        26326           0.0000000000
     75769     25257  TIP3      OH2            13.5498233595       13.9927377139       33.5302403535  W2        26327           0.0000000000
     75770     25257  TIP3      H1             13.1239533595       13.7649077139       34.3566403535  W2        26327           0.0000000000
     75771     25257  TIP3      H2             14.1304033595       13.2539177139       33.3477703535  W2        26327           0.0000000000
     75772     25258  TIP3      OH2            15.7527133595       14.9217877139       22.6041403535  W2        26328           0.0000000000
     75773     25258  TIP3      H1             16.1060233595       14.5417677139       23.4084903535  W2        26328           0.0000000000
     75774     25258  TIP3      H2             14.8040633595       14.8282677139       22.6910703535  W2        26328           0.0000000000
     75775     25259  TIP3      OH2            20.2561533595       19.4010377139       22.8051603535  W2        26330           0.0000000000
     75776     25259  TIP3      H1             20.9999433595       19.9870877139       22.6653203535  W2        26330           0.0000000000
     75777     25259  TIP3      H2             19.5619633595       19.9696177139       23.1384003535  W2        26330           0.0000000000
     75778     25260  TIP3      OH2             4.3308333595        5.7774577139       35.4069803535  W2        26331           0.0000000000
     75779     25260  TIP3      H1              3.4380633595        6.1159977139       35.3393803535  W2        26331           0.0000000000
     75780     25260  TIP3      H2              4.2321133595        4.9220677139       35.8250603535  W2        26331           0.0000000000
     75781     25261  TIP3      OH2            16.6186433595       13.5939877139       24.8309303535  W2        26332           0.0000000000
     75782     25261  TIP3      H1             16.3414033595       12.8659177139       25.3870403535  W2        26332           0.0000000000
     75783     25261  TIP3      H2             17.5459433595       13.7131877139       25.0361903535  W2        26332           0.0000000000
     75784     25262  TIP3      OH2             3.9820333595       17.5818977139       33.8419203535  W2        26333           0.0000000000
     75785     25262  TIP3      H1              4.1990633595       16.6501377139       33.8108903535  W2        26333           0.0000000000
     75786     25262  TIP3      H2              4.2283833595       17.8563977139       34.7252003535  W2        26333           0.0000000000
     75787     25263  TIP3      OH2             9.8434933595       16.0333977139       21.0511403535  W2        26334           0.0000000000
     75788     25263  TIP3      H1             10.0824733595       15.2852077139       20.5040303535  W2        26334           0.0000000000
     75789     25263  TIP3      H2              9.5746233595       15.6455677139       21.8839203535  W2        26334           0.0000000000
     75790     25264  TIP3      OH2             8.7805533595       15.6037777139       23.5074003535  W2        26335           0.0000000000
     75791     25264  TIP3      H1              8.9273533595       15.0837577139       24.2974903535  W2        26335           0.0000000000
     75792     25264  TIP3      H2              8.7777233595       16.5105377139       23.8139903535  W2        26335           0.0000000000
     75793     25265  TIP3      OH2             5.2336633595       12.8561077139       24.0179403535  W2        26336           0.0000000000
     75794     25265  TIP3      H1              4.5475933595       13.2083577139       24.5849103535  W2        26336           0.0000000000
     75795     25265  TIP3      H2              5.7564533595       13.6190677139       23.7713703535  W2        26336           0.0000000000
     75796     25266  TIP3      OH2            13.0651733595        5.5184877139       34.2968403535  W2        26337           0.0000000000
     75797     25266  TIP3      H1             13.7639633595        5.5923577139       34.9468103535  W2        26337           0.0000000000
     75798     25266  TIP3      H2             12.6843133595        4.6539877139       34.4511303535  W2        26337           0.0000000000
     75799     25267  TIP3      OH2            13.8496633595        5.1706577139       25.3940703535  W2        26338           0.0000000000
     75800     25267  TIP3      H1             14.0694933595        5.6421977139       24.5906103535  W2        26338           0.0000000000
     75801     25267  TIP3      H2             14.4080633595        5.5649177139       26.0641303535  W2        26338           0.0000000000
     75802     25268  TIP3      OH2            11.5182733595       17.3011377139       24.2568203535  W2        26339           0.0000000000
     75803     25268  TIP3      H1             10.7018833595       17.7981077139       24.3092503535  W2        26339           0.0000000000
     75804     25268  TIP3      H2             12.0479033595       17.7764877139       23.6167003535  W2        26339           0.0000000000
     75805     25269  TIP3      OH2            11.0496533595        6.8985377139       26.2289103535  W2        26340           0.0000000000
     75806     25269  TIP3      H1             11.8619133595        7.4028577139       26.2750803535  W2        26340           0.0000000000
     75807     25269  TIP3      H2             10.8049533595        6.7535077139       27.1428703535  W2        26340           0.0000000000
     75808     25270  TIP3      OH2            11.5852933595        7.8848077139       35.4135703535  W2        26341           0.0000000000
     75809     25270  TIP3      H1             11.7043233595        8.4583477139       36.1706103535  W2        26341           0.0000000000
     75810     25270  TIP3      H2             12.2407533595        7.1967477139       35.5283503535  W2        26341           0.0000000000
     75811     25271  TIP3      OH2            11.9333233595        3.9798377139       27.1670203535  W2        26342           0.0000000000
     75812     25271  TIP3      H1             11.5866733595        4.5968977139       27.8114503535  W2        26342           0.0000000000
     75813     25271  TIP3      H2             12.5920133595        4.4804077139       26.6855703535  W2        26342           0.0000000000
     75814     25272  TIP3      OH2             8.8565833595       18.3448577139       24.2385103535  W2        26343           0.0000000000
     75815     25272  TIP3      H1              9.0174533595       19.1446077139       23.7377703535  W2        26343           0.0000000000
     75816     25272  TIP3      H2              8.6593633595       18.6514577139       25.1235703535  W2        26343           0.0000000000
     75817     25273  TIP3      OH2             7.5910233595        5.0427777139       23.8542703535  W2        26344           0.0000000000
     75818     25273  TIP3      H1              7.5075033595        5.9310877139       24.2009103535  W2        26344           0.0000000000
     75819     25273  TIP3      H2              8.4810533595        4.7774477139       24.0859503535  W2        26344           0.0000000000
     75820     25274  TIP3      OH2            16.3919733595        9.5419377139       30.3442703535  W2        26346           0.0000000000
     75821     25274  TIP3      H1             15.5944133595        9.1269577139       30.0157703535  W2        26346           0.0000000000
     75822     25274  TIP3      H2             16.8370833595        8.8513077139       30.8353203535  W2        26346           0.0000000000
     75823     25275  TIP3      OH2             5.8495533595       15.4699977139       22.9147203535  W2        26347           0.0000000000
     75824     25275  TIP3      H1              6.4417033595       16.1694777139       23.1909603535  W2        26347           0.0000000000
     75825     25275  TIP3      H2              6.3088533595       15.0369477139       22.1951803535  W2        26347           0.0000000000
     75826     25276  TIP3      OH2             4.1654733595        8.1342977139       22.0306603535  W2        26348           0.0000000000
     75827     25276  TIP3      H1              4.1207333595        9.0736077139       22.2093603535  W2        26348           0.0000000000
     75828     25276  TIP3      H2              3.2777933595        7.8987877139       21.7608703535  W2        26348           0.0000000000
     75829     25277  TIP3      OH2            17.4784333595       18.7981877139       31.9666203535  W2        26349           0.0000000000
     75830     25277  TIP3      H1             17.3228633595       19.4766277139       31.3095503535  W2        26349           0.0000000000
     75831     25277  TIP3      H2             18.4110733595       18.8701177139       32.1696803535  W2        26349           0.0000000000
     75832     25278  TIP3      OH2             4.9736733595        2.9159577139       30.7037603535  W2        26350           0.0000000000
     75833     25278  TIP3      H1              4.7446533595        2.9752077139       29.7762603535  W2        26350           0.0000000000
     75834     25278  TIP3      H2              4.5310133595        2.1245077139       31.0101703535  W2        26350           0.0000000000
     75835     25279  TIP3      OH2             3.9040033595       16.8566677139       26.8643403535  W2        26351           0.0000000000
     75836     25279  TIP3      H1              3.0718633595       17.3289377139       26.8914803535  W2        26351           0.0000000000
     75837     25279  TIP3      H2              4.4498333595       17.3664277139       26.2656503535  W2        26351           0.0000000000
     75838     25280  TIP3      OH2            11.8816733595       17.8965377139       21.1897403535  W2        26354           0.0000000000
     75839     25280  TIP3      H1             11.2377733595       17.2653977139       21.5111103535  W2        26354           0.0000000000
     75840     25280  TIP3      H2             12.6435033595       17.3653377139       20.9580903535  W2        26354           0.0000000000
     75841     25281  TIP3      OH2            16.4859633595       17.7135277139       21.4235403535  W2        26356           0.0000000000
     75842     25281  TIP3      H1             16.7690033595       16.9190477139       21.8762303535  W2        26356           0.0000000000
     75843     25281  TIP3      H2             17.2257533595       17.9466277139       20.8626503535  W2        26356           0.0000000000
     75844     25282  TIP3      OH2             7.4406933595       13.6230177139       21.2810303535  W2        26358           0.0000000000
     75845     25282  TIP3      H1              7.5051033595       12.8289777139       21.8116703535  W2        26358           0.0000000000
     75846     25282  TIP3      H2              8.0936133595       13.5042977139       20.5912303535  W2        26358           0.0000000000
     75847     25283  TIP3      OH2            12.7930333595       14.6701877139       21.0168303535  W2        26360           0.0000000000
     75848     25283  TIP3      H1             12.5244433595       14.8503977139       21.9177203535  W2        26360           0.0000000000
     75849     25283  TIP3      H2             12.5865933595       13.7448077139       20.8854103535  W2        26360           0.0000000000
     75850     25284  TIP3      OH2             8.5900733595       11.5956377139       23.5868303535  W2        26363           0.0000000000
     75851     25284  TIP3      H1              8.1302733595       11.1114677139       24.2726803535  W2        26363           0.0000000000
     75852     25284  TIP3      H2              8.8449433595       10.9271777139       22.9508803535  W2        26363           0.0000000000
     75853     25285  TIP3      OH2             9.6611133595        9.8388177139       21.8491503535  W2        26365           0.0000000000
     75854     25285  TIP3      H1              9.4806133595        9.6839377139       20.9219803535  W2        26365           0.0000000000
     75855     25285  TIP3      H2             10.6111633595        9.9466877139       21.8939403535  W2        26365           0.0000000000
     75856     25286  TIP3      OH2            19.0509433595       12.1932377139       21.2949603535  W2        26367           0.0000000000
     75857     25286  TIP3      H1             18.7774233595       11.7687877139       20.4817903535  W2        26367           0.0000000000
     75858     25286  TIP3      H2             19.0903533595       13.1246877139       21.0780003535  W2        26367           0.0000000000
     75859     25287  TIP3      OH2             8.6309433595        5.2130077139       34.5178403535  W2        26369           0.0000000000
     75860     25287  TIP3      H1              9.1666933595        5.6646777139       33.8657703535  W2        26369           0.0000000000
     75861     25287  TIP3      H2              7.7789033595        5.1049877139       34.0952503535  W2        26369           0.0000000000
     75862     25288  TIP3      OH2            10.2127833595       10.6526277139       34.7573603535  W2        26370           0.0000000000
     75863     25288  TIP3      H1             10.9632633595       10.4963777139       34.1841403535  W2        26370           0.0000000000
     75864     25288  TIP3      H2              9.8736133595       11.5042877139       34.4819103535  W2        26370           0.0000000000
     75865     25289  TIP3      OH2             9.4364933595        2.6695777139       34.9492003535  W2        26374           0.0000000000
     75866     25289  TIP3      H1              9.3384533595        3.6158977139       34.8438203535  W2        26374           0.0000000000
     75867     25289  TIP3      H2              8.6941133595        2.2969577139       34.4735503535  W2        26374           0.0000000000
     75868     25290  TIP3      OH2             9.5582833595       20.5291877139       22.8505103535  W2        26381           0.0000000000
     75869     25290  TIP3      H1             10.4913533595       20.6870577139       22.9943503535  W2        26381           0.0000000000
     75870     25290  TIP3      H2              9.2941633595       21.2044877139       22.2256603535  W2        26381           0.0000000000
     75871     25291  TIP3      OH2             3.1267733595       15.1655677139       22.3333203535  W2        26382           0.0000000000
     75872     25291  TIP3      H1              4.0406933595       15.2444577139       22.6067103535  W2        26382           0.0000000000
     75873     25291  TIP3      H2              3.1340833595       14.4785277139       21.6668803535  W2        26382           0.0000000000
     75874     25292  TIP3      OH2             1.7758333595       20.5584177139       27.4107103535  W2        26383           0.0000000000
     75875     25292  TIP3      H1              1.1285433595       20.0965877139       26.8778303535  W2        26383           0.0000000000
     75876     25292  TIP3      H2              2.1302933595       19.8867477139       27.9933303535  W2        26383           0.0000000000
     75877     25293  TIP3      OH2             2.6457533595       18.6391177139       29.2153303535  W2        26384           0.0000000000
     75878     25293  TIP3      H1              2.3114333595       17.7588477139       29.3873503535  W2        26384           0.0000000000
     75879     25293  TIP3      H2              2.8679933595       18.9846177139       30.0798903535  W2        26384           0.0000000000
     75880     25294  TIP3      OH2            20.1942333595       19.4487577139       32.1958103535  W2        26385           0.0000000000
     75881     25294  TIP3      H1             20.1729033595       19.6335977139       33.1347503535  W2        26385           0.0000000000
     75882     25294  TIP3      H2             20.8848533595       20.0171577139       31.8549503535  W2        26385           0.0000000000
     75883     25295  TIP3      OH2            19.7575233595       19.0158677139       35.1177203535  W2        26386           0.0000000000
     75884     25295  TIP3      H1             19.2703933595       18.2802777139       34.7464603535  W2        26386           0.0000000000
     75885     25295  TIP3      H2             20.3067933595       18.6222577139       35.7956603535  W2        26386           0.0000000000
     75886     25296  TIP3      OH2            19.5092233595       13.0620477139       25.2700003535  W2        26388           0.0000000000
     75887     25296  TIP3      H1             20.3593633595       13.4831377139       25.3971603535  W2        26388           0.0000000000
     75888     25296  TIP3      H2             19.5147333595       12.3220577139       25.8771403535  W2        26388           0.0000000000
     75889     25297  TIP3      OH2            19.9037833595       11.1157877139       27.0935703535  W2        26389           0.0000000000
     75890     25297  TIP3      H1             19.1772433595       10.6360477139       27.4913303535  W2        26389           0.0000000000
     75891     25297  TIP3      H2             20.4851133595       11.3212577139       27.8257303535  W2        26389           0.0000000000
     75892     25298  TIP3      OH2            19.6629033595       13.9005377139       32.0413303535  W2        26390           0.0000000000
     75893     25298  TIP3      H1             20.4963233595       13.5225377139       31.7606903535  W2        26390           0.0000000000
     75894     25298  TIP3      H2             19.7749333595       14.8436577139       31.9222403535  W2        26390           0.0000000000
     75895     25299  TIP3      OH2            18.1491333595       16.7782877139       34.3481703535  W2        26391           0.0000000000
     75896     25299  TIP3      H1             17.5016633595       17.1034377139       34.9736903535  W2        26391           0.0000000000
     75897     25299  TIP3      H2             17.6315333595       16.3380577139       33.6740003535  W2        26391           0.0000000000
     75898     25300  TIP3      OH2            20.1720933595       11.0166377139       23.4847003535  W2        26392           0.0000000000
     75899     25300  TIP3      H1             19.6502033595       11.3730477139       22.7657903535  W2        26392           0.0000000000
     75900     25300  TIP3      H2             20.1390133595       11.6914177139       24.1627903535  W2        26392           0.0000000000
     75901     25301  TIP3      OH2            18.5209933595        8.2561977139       22.0354103535  W2        26393           0.0000000000
     75902     25301  TIP3      H1             18.6174333595        8.9228977139       21.3553803535  W2        26393           0.0000000000
     75903     25301  TIP3      H2             18.3809533595        7.4408277139       21.5539603535  W2        26393           0.0000000000
     75904     25302  TIP3      OH2            17.6904633595        9.6364377139       27.6564403535  W2        26394           0.0000000000
     75905     25302  TIP3      H1             17.5403433595        8.6912977139       27.6362203535  W2        26394           0.0000000000
     75906     25302  TIP3      H2             17.3369133595        9.9175777139       28.5003503535  W2        26394           0.0000000000
     75907     25303  TIP3      OH2             2.7257033595       11.7146577139       31.6668203535  W2        26395           0.0000000000
     75908     25303  TIP3      H1              2.9099933595       11.6328277139       30.7311103535  W2        26395           0.0000000000
     75909     25303  TIP3      H2              3.5749933595       11.5903577139       32.0904603535  W2        26395           0.0000000000
     75910     25304  TIP3      OH2            17.7683733595        5.6641777139       21.1529603535  W2        26398           0.0000000000
     75911     25304  TIP3      H1             18.3789533595        5.2928577139       21.7897803535  W2        26398           0.0000000000
     75912     25304  TIP3      H2             16.9315233595        5.2428677139       21.3489603535  W2        26398           0.0000000000
     75913     25305  TIP3      OH2            17.4009433595        7.2190177139       26.1189503535  W2        26399           0.0000000000
     75914     25305  TIP3      H1             17.6806533595        6.3120577139       26.2431203535  W2        26399           0.0000000000
     75915     25305  TIP3      H2             18.1601133595        7.6531677139       25.7298703535  W2        26399           0.0000000000
     75916     25306  TIP3      OH2            18.0127733595        7.8007577139       31.5548403535  W2        26400           0.0000000000
     75917     25306  TIP3      H1             18.9455733595        8.0127477139       31.5204403535  W2        26400           0.0000000000
     75918     25306  TIP3      H2             17.7775233595        7.9019677139       32.4771403535  W2        26400           0.0000000000
     75919     25307  TIP3      OH2            18.0419633595        8.5372877139       34.3307803535  W2        26401           0.0000000000
     75920     25307  TIP3      H1             17.1990933595        8.8053277139       34.6967603535  W2        26401           0.0000000000
     75921     25307  TIP3      H2             18.4843933595        9.3594777139       34.1198903535  W2        26401           0.0000000000
     75922     25308  TIP3      OH2            18.0144233595        4.4819477139       26.1671503535  W2        26404           0.0000000000
     75923     25308  TIP3      H1             18.1969233595        4.0330977139       26.9926503535  W2        26404           0.0000000000
     75924     25308  TIP3      H2             17.4147133595        3.8973877139       25.7036103535  W2        26404           0.0000000000
     75925     25309  TIP3      OH2             3.5444333595        5.2973177139       30.6989903535  W2        26405           0.0000000000
     75926     25309  TIP3      H1              3.9895933595        4.5055677139       31.0009603535  W2        26405           0.0000000000
     75927     25309  TIP3      H2              4.0107333595        6.0138377139       31.1295503535  W2        26405           0.0000000000
     75928     25310  TIP3      OH2             1.8484633595        8.2966177139       31.7680103535  W2        26406           0.0000000000
     75929     25310  TIP3      H1              2.3404433595        8.0756677139       30.9772103535  W2        26406           0.0000000000
     75930     25310  TIP3      H2              2.2105533595        9.1369577139       32.0489603535  W2        26406           0.0000000000
     75931     25311  TIP3      OH2            19.8810433595        4.5497577139       22.6951803535  W2        26408           0.0000000000
     75932     25311  TIP3      H1             20.2933033595        3.8283277139       22.2199803535  W2        26408           0.0000000000
     75933     25311  TIP3      H2             20.5626933595        5.2192177139       22.7536103535  W2        26408           0.0000000000
     75934     25312  TIP3      OH2             2.1621133595        4.5545277139       25.8222503535  W2        26409           0.0000000000
     75935     25312  TIP3      H1              1.2369533595        4.7631877139       25.6928003535  W2        26409           0.0000000000
     75936     25312  TIP3      H2              2.6161033595        5.0386077139       25.1324803535  W2        26409           0.0000000000
     75937     25313  TIP3      OH2            16.9328333595       19.5386977139       27.7679903535  W2        26410           0.0000000000
     75938     25313  TIP3      H1             17.5851233595       19.1909077139       27.1599003535  W2        26410           0.0000000000
     75939     25313  TIP3      H2             17.4432133595       20.0270177139       28.4139603535  W2        26410           0.0000000000
     75940     25314  TIP3      OH2             2.1256533595        3.2924277139       34.1665003535  W2        26411           0.0000000000
     75941     25314  TIP3      H1              1.4607033595        3.0464577139       34.8095903535  W2        26411           0.0000000000
     75942     25314  TIP3      H2              1.6827833595        3.9144677139       33.5893003535  W2        26411           0.0000000000
     75943     25315  TIP3      OH2             7.2718733595       17.4419577139       34.5694803535  W2        26413           0.0000000000
     75944     25315  TIP3      H1              6.8469833595       18.2518077139       34.2869403535  W2        26413           0.0000000000
     75945     25315  TIP3      H2              8.1761533595       17.5273677139       34.2674603535  W2        26413           0.0000000000
     75946     25316  TIP3      OH2             4.6735433595       20.6983477139       34.6170103535  W2        26417           0.0000000000
     75947     25316  TIP3      H1              3.9531833595       21.1384477139       34.1657803535  W2        26417           0.0000000000
     75948     25316  TIP3      H2              4.3079433595       20.4478177139       35.4654103535  W2        26417           0.0000000000
     75949     25317  TIP3      OH2             7.1408033595       20.2987377139       33.6467303535  W2        26418           0.0000000000
     75950     25317  TIP3      H1              6.2760233595       20.3705877139       34.0507403535  W2        26418           0.0000000000
     75951     25317  TIP3      H2              7.0857033595       20.8454677139       32.8629803535  W2        26418           0.0000000000
     75952     25318  TIP3      OH2            11.8513633595       20.1866277139       32.8223303535  W2        26419           0.0000000000
     75953     25318  TIP3      H1             11.3947633595       20.7155977139       32.1681703535  W2        26419           0.0000000000
     75954     25318  TIP3      H2             12.0141633595       20.7897677139       33.5475603535  W2        26419           0.0000000000
     75955     25319  TIP3      OH2            14.1789933595       19.0645877139       33.7673603535  W2        26420           0.0000000000
     75956     25319  TIP3      H1             13.2743633595       19.2296077139       33.5015703535  W2        26420           0.0000000000
     75957     25319  TIP3      H2             14.6078533595       19.9178077139       33.7017003535  W2        26420           0.0000000000
     75958     25320  TIP3      OH2            16.7831833595       20.6344977139       34.0621403535  W2        26421           0.0000000000
     75959     25320  TIP3      H1             16.6013833595       21.5503877139       33.8516303535  W2        26421           0.0000000000
     75960     25320  TIP3      H2             16.9599633595       20.2242077139       33.2156003535  W2        26421           0.0000000000
     75961     25321  TIP3      OH2             4.0883533595       19.3215977139       31.5271903535  W2        26422           0.0000000000
     75962     25321  TIP3      H1              4.0699533595       18.8961077139       32.3844203535  W2        26422           0.0000000000
     75963     25321  TIP3      H2              4.8931433595       19.0030977139       31.1184103535  W2        26422           0.0000000000
     75964     25322  TIP3      OH2             6.2296633595       18.0314677139       30.1821803535  W2        26423           0.0000000000
     75965     25322  TIP3      H1              6.0107333595       17.1152077139       30.3517803535  W2        26423           0.0000000000
     75966     25322  TIP3      H2              7.0538833595       18.1715077139       30.6483203535  W2        26423           0.0000000000
     75967     25323  TIP3      OH2             8.7669133595       18.5013977139       31.0309803535  W2        26424           0.0000000000
     75968     25323  TIP3      H1              8.9794833595       17.6132977139       30.7440703535  W2        26424           0.0000000000
     75969     25323  TIP3      H2              8.8314233595       18.4671677139       31.9853803535  W2        26424           0.0000000000
     75970     25324  TIP3      OH2            12.2752833595        4.1654577139       30.1753103535  W2        26425           0.0000000000
     75971     25324  TIP3      H1             11.6009633595        3.5360177139       30.4308903535  W2        26425           0.0000000000
     75972     25324  TIP3      H2             12.8392033595        3.6813477139       29.5721003535  W2        26425           0.0000000000
     75973     25325  TIP3      OH2            17.4180033595        2.2728577139       30.2880203535  W2        26426           0.0000000000
     75974     25325  TIP3      H1             18.0217633595        2.8203977139       29.7861203535  W2        26426           0.0000000000
     75975     25325  TIP3      H2             16.5482033595        2.5918977139       30.0474303535  W2        26426           0.0000000000
     75976     25326  TIP3      OH2            19.1450433595        3.4117277139       28.6211103535  W2        26427           0.0000000000
     75977     25326  TIP3      H1             19.7567933595        2.8972977139       28.0944703535  W2        26427           0.0000000000
     75978     25326  TIP3      H2             19.5273833595        4.2889377139       28.6445503535  W2        26427           0.0000000000
     75979     25327  TIP3      OH2             4.6020333595        2.7994877139       27.9973003535  W2        26428           0.0000000000
     75980     25327  TIP3      H1              3.8250133595        2.5649777139       27.4898903535  W2        26428           0.0000000000
     75981     25327  TIP3      H2              5.1323933595        2.0026977139       28.0061003535  W2        26428           0.0000000000
     75982     25328  TIP3      OH2             3.4383733595        2.5972977139       23.8009103535  W2        26429           0.0000000000
     75983     25328  TIP3      H1              3.8774433595        3.2083477139       23.2092603535  W2        26429           0.0000000000
     75984     25328  TIP3      H2              2.8046133595        3.1357077139       24.2749103535  W2        26429           0.0000000000
     75985     25329  TIP3      OH2             9.1812933595        2.7261977139       27.8106103535  W2        26430           0.0000000000
     75986     25329  TIP3      H1             10.0556333595        3.1146277139       27.7810403535  W2        26430           0.0000000000
     75987     25329  TIP3      H2              9.0453733595        2.5109777139       28.7333303535  W2        26430           0.0000000000
     75988     25330  TIP3      OH2            14.7381333595        2.7561777139       29.4597803535  W2        26431           0.0000000000
     75989     25330  TIP3      H1             14.8142933595        2.8513377139       28.5103803535  W2        26431           0.0000000000
     75990     25330  TIP3      H2             14.4630533595        1.8484677139       29.5886903535  W2        26431           0.0000000000
     75991     25331  TIP3      OH2            16.0913933595        2.7819577139       25.1522803535  W2        26432           0.0000000000
     75992     25331  TIP3      H1             15.3885033595        3.3968777139       24.9424203535  W2        26432           0.0000000000
     75993     25331  TIP3      H2             15.6465333595        1.9446277139       25.2833703535  W2        26432           0.0000000000
     75994     25332  TIP3      OH2             3.3393233595       18.5455177139       24.6984203535  W2        26433           0.0000000000
     75995     25332  TIP3      H1              2.6543133595       18.5074077139       24.0309303535  W2        26433           0.0000000000
     75996     25332  TIP3      H2              3.3430433595       19.4582777139       24.9866303535  W2        26433           0.0000000000
     75997     25333  TIP3      OH2             5.2992833595        4.5134477139       22.2433203535  W2        26434           0.0000000000
     75998     25333  TIP3      H1              5.7906233595        3.8836877139       21.7158703535  W2        26434           0.0000000000
     75999     25333  TIP3      H2              5.9229133595        4.8093877139       22.9064403535  W2        26434           0.0000000000
     76000     25334  TIP3      OH2            10.3252933595        4.8065977139       24.7003703535  W2        26435           0.0000000000
     76001     25334  TIP3      H1             10.5034233595        4.1599177139       25.3832303535  W2        26435           0.0000000000
     76002     25334  TIP3      H2             10.2719133595        5.6403677139       25.1674803535  W2        26435           0.0000000000
     76003     25335  TIP3      OH2            12.2036733595       19.7550077139       23.0960403535  W2        26436           0.0000000000
     76004     25335  TIP3      H1             13.0696933595       20.1217477139       22.9178603535  W2        26436           0.0000000000
     76005     25335  TIP3      H2             11.9569533595       19.3158077139       22.2821203535  W2        26436           0.0000000000
     76006     25336  TIP3      OH2            18.9126333595       19.3180377139       25.7751503535  W2        26437           0.0000000000
     76007     25336  TIP3      H1             18.7183433595       18.5702477139       25.2101103535  W2        26437           0.0000000000
     76008     25336  TIP3      H2             18.8736433595       20.0760477139       25.1919403535  W2        26437           0.0000000000
     76009     25337  TIP3      OH2             5.1574433595       19.4655977139       21.7236303535  W2        26440           0.0000000000
     76010     25337  TIP3      H1              4.8899033595       19.7518877139       22.5969403535  W2        26440           0.0000000000
     76011     25337  TIP3      H2              5.9287033595       18.9195177139       21.8758803535  W2        26440           0.0000000000
     76012     25338  TIP3      OH2            32.5362933595       11.9557177139       27.9560503535  W2        26443           0.0000000000
     76013     25338  TIP3      H1             32.6254033595       12.8995377139       27.8237603535  W2        26443           0.0000000000
     76014     25338  TIP3      H2             31.8980533595       11.6803577139       27.2979903535  W2        26443           0.0000000000
     76015     25339  TIP3      OH2            31.4694233595       11.2107877139       31.3748703535  W2        26444           0.0000000000
     76016     25339  TIP3      H1             31.4311733595       10.5644177139       32.0798303535  W2        26444           0.0000000000
     76017     25339  TIP3      H2             31.1470733595       10.7442277139       30.6037403535  W2        26444           0.0000000000
     76018     25340  TIP3      OH2            23.8379233595       10.8249977139       32.9678603535  W2        26445           0.0000000000
     76019     25340  TIP3      H1             23.8791333595       10.1993277139       33.6911003535  W2        26445           0.0000000000
     76020     25340  TIP3      H2             24.5406933595       11.4488577139       33.1499003535  W2        26445           0.0000000000
     76021     25341  TIP3      OH2            35.1754433595       14.1498277139       29.6763803535  W2        26446           0.0000000000
     76022     25341  TIP3      H1             34.7347133595       13.4294277139       30.1269403535  W2        26446           0.0000000000
     76023     25341  TIP3      H2             35.1624133595       14.8705477139       30.3061503535  W2        26446           0.0000000000
     76024     25342  TIP3      OH2            24.7612333595       15.2748877139       31.5027703535  W2        26447           0.0000000000
     76025     25342  TIP3      H1             24.3917533595       14.4729377139       31.1332003535  W2        26447           0.0000000000
     76026     25342  TIP3      H2             25.7023433595       15.1063777139       31.5491103535  W2        26447           0.0000000000
     76027     25343  TIP3      OH2            21.3712833595        8.9351477139       26.8956503535  W2        26448           0.0000000000
     76028     25343  TIP3      H1             20.9236233595        9.7810177139       26.8773003535  W2        26448           0.0000000000
     76029     25343  TIP3      H2             20.8104033595        8.3555677139       26.3801603535  W2        26448           0.0000000000
     76030     25344  TIP3      OH2            22.0818933595       11.0971077139       29.0214503535  W2        26449           0.0000000000
     76031     25344  TIP3      H1             22.2952433595       10.3272677139       29.5487503535  W2        26449           0.0000000000
     76032     25344  TIP3      H2             22.8196533595       11.1867777139       28.4182103535  W2        26449           0.0000000000
     76033     25345  TIP3      OH2            32.2869933595       19.2539977139       29.8884203535  W2        26450           0.0000000000
     76034     25345  TIP3      H1             32.9066333595       18.5774677139       29.6153403535  W2        26450           0.0000000000
     76035     25345  TIP3      H2             32.0787333595       19.0360777139       30.7969103535  W2        26450           0.0000000000
     76036     25346  TIP3      OH2            29.8588633595       13.6429277139       31.7809703535  W2        26451           0.0000000000
     76037     25346  TIP3      H1             30.1626533595       12.9570677139       31.1863803535  W2        26451           0.0000000000
     76038     25346  TIP3      H2             30.5802633595       13.7617977139       32.3987703535  W2        26451           0.0000000000
     76039     25347  TIP3      OH2            38.5218433595        5.2444577139       32.6415903535  W2        26452           0.0000000000
     76040     25347  TIP3      H1             38.5710633595        5.8545777139       33.3775003535  W2        26452           0.0000000000
     76041     25347  TIP3      H2             38.9473533595        5.7055477139       31.9187003535  W2        26452           0.0000000000
     76042     25348  TIP3      OH2            32.9995633595        8.0371677139       32.1084503535  W2        26453           0.0000000000
     76043     25348  TIP3      H1             33.1421533595        7.0908677139       32.1286103535  W2        26453           0.0000000000
     76044     25348  TIP3      H2             32.8934633595        8.2441477139       31.1799403535  W2        26453           0.0000000000
     76045     25349  TIP3      OH2            26.1543933595        6.1388077139       29.3809303535  W2        26454           0.0000000000
     76046     25349  TIP3      H1             26.1975033595        6.9986577139       28.9625603535  W2        26454           0.0000000000
     76047     25349  TIP3      H2             25.6968033595        5.5862777139       28.7472503535  W2        26454           0.0000000000
     76048     25350  TIP3      OH2            33.8766633595        6.2693677139       27.7817603535  W2        26455           0.0000000000
     76049     25350  TIP3      H1             34.5230933595        5.9406877139       28.4065203535  W2        26455           0.0000000000
     76050     25350  TIP3      H2             34.3866033595        6.7872677139       27.1589003535  W2        26455           0.0000000000
     76051     25351  TIP3      OH2            22.7745433595        8.5353877139       30.1430703535  W2        26456           0.0000000000
     76052     25351  TIP3      H1             23.4282033595        7.9855577139       30.5750803535  W2        26456           0.0000000000
     76053     25351  TIP3      H2             22.7984733595        8.2612877139       29.2262703535  W2        26456           0.0000000000
     76054     25352  TIP3      OH2            27.9309933595       10.0855177139       29.3582203535  W2        26457           0.0000000000
     76055     25352  TIP3      H1             28.5470933595        9.5590577139       29.8676203535  W2        26457           0.0000000000
     76056     25352  TIP3      H2             27.3448733595        9.4453877139       28.9545803535  W2        26457           0.0000000000
     76057     25353  TIP3      OH2            38.9133033595        6.7223777139       34.8775703535  W2        26458           0.0000000000
     76058     25353  TIP3      H1             38.2247633595        7.3804477139       34.7822303535  W2        26458           0.0000000000
     76059     25353  TIP3      H2             38.9287633595        6.5251677139       35.8141103535  W2        26458           0.0000000000
     76060     25354  TIP3      OH2            24.9645833595        5.0566477139       33.4550103535  W2        26459           0.0000000000
     76061     25354  TIP3      H1             24.7457533595        5.5867077139       32.6886103535  W2        26459           0.0000000000
     76062     25354  TIP3      H2             24.2966733595        5.2831977139       34.1021503535  W2        26459           0.0000000000
     76063     25355  TIP3      OH2            32.3335633595       14.5567577139       26.9989203535  W2        26460           0.0000000000
     76064     25355  TIP3      H1             32.0380733595       14.2339877139       26.1476103535  W2        26460           0.0000000000
     76065     25355  TIP3      H2             32.0093433595       15.4564277139       27.0401803535  W2        26460           0.0000000000
     76066     25356  TIP3      OH2            27.5337233595       12.7322177139       33.7423803535  W2        26461           0.0000000000
     76067     25356  TIP3      H1             26.7936333595       13.3303677139       33.8459003535  W2        26461           0.0000000000
     76068     25356  TIP3      H2             28.2476733595       13.2861777139       33.4267403535  W2        26461           0.0000000000
     76069     25357  TIP3      OH2            35.6405033595        5.5602977139       29.7623503535  W2        26462           0.0000000000
     76070     25357  TIP3      H1             35.4253033595        4.7946377139       30.2949503535  W2        26462           0.0000000000
     76071     25357  TIP3      H2             36.2962433595        6.0327577139       30.2752003535  W2        26462           0.0000000000
     76072     25358  TIP3      OH2            24.5583133595        6.9488277139       31.4072303535  W2        26463           0.0000000000
     76073     25358  TIP3      H1             25.1719433595        7.5815877139       31.7804703535  W2        26463           0.0000000000
     76074     25358  TIP3      H2             25.0703833595        6.4763277139       30.7509203535  W2        26463           0.0000000000
     76075     25359  TIP3      OH2            25.9411533595       14.6965177139       34.5295303535  W2        26464           0.0000000000
     76076     25359  TIP3      H1             25.9359133595       15.5758677139       34.1514603535  W2        26464           0.0000000000
     76077     25359  TIP3      H2             25.0875633595       14.6129277139       34.9545203535  W2        26464           0.0000000000
     76078     25360  TIP3      OH2            22.0622433595       14.3673077139       25.3114603535  W2        26465           0.0000000000
     76079     25360  TIP3      H1             21.7903333595       14.5964077139       24.4227503535  W2        26465           0.0000000000
     76080     25360  TIP3      H2             22.1078133595       15.2051877139       25.7719903535  W2        26465           0.0000000000
     76081     25361  TIP3      OH2            35.6872133595       15.9888977139       32.0243103535  W2        26466           0.0000000000
     76082     25361  TIP3      H1             34.7455833595       16.0472877139       32.1860003535  W2        26466           0.0000000000
     76083     25361  TIP3      H2             35.9638233595       16.8949477139       31.8872803535  W2        26466           0.0000000000
     76084     25362  TIP3      OH2            35.9879133595        4.2754277139       33.4417003535  W2        26467           0.0000000000
     76085     25362  TIP3      H1             35.2518333595        4.8861377139       33.4038303535  W2        26467           0.0000000000
     76086     25362  TIP3      H2             36.6713133595        4.6903277139       32.9153403535  W2        26467           0.0000000000
     76087     25363  TIP3      OH2            28.9910533595        2.3621577139       30.9075003535  W2        26468           0.0000000000
     76088     25363  TIP3      H1             28.8734733595        1.4137577139       30.8533303535  W2        26468           0.0000000000
     76089     25363  TIP3      H2             28.1360633595        2.6947677139       31.1806103535  W2        26468           0.0000000000
     76090     25364  TIP3      OH2            33.9393333595       17.7702477139       28.6494703535  W2        26469           0.0000000000
     76091     25364  TIP3      H1             34.3645633595       17.0630377139       28.1644303535  W2        26469           0.0000000000
     76092     25364  TIP3      H2             34.2563333595       18.5715177139       28.2326903535  W2        26469           0.0000000000
     76093     25365  TIP3      OH2            35.0989833595       15.6710977139       27.1581303535  W2        26470           0.0000000000
     76094     25365  TIP3      H1             34.8414633595       14.9811077139       26.5467203535  W2        26470           0.0000000000
     76095     25365  TIP3      H2             35.1700633595       15.2282177139       28.0037203535  W2        26470           0.0000000000
     76096     25366  TIP3      OH2            31.2575433595       11.1997177139       25.4080803535  W2        26472           0.0000000000
     76097     25366  TIP3      H1             30.5460933595       11.7346877139       25.0561303535  W2        26472           0.0000000000
     76098     25366  TIP3      H2             31.9485033595       11.2549277139       24.7479703535  W2        26472           0.0000000000
     76099     25367  TIP3      OH2            31.3114633595        9.6571477139       22.4465803535  W2        26473           0.0000000000
     76100     25367  TIP3      H1             32.0124533595        9.6798377139       23.0979803535  W2        26473           0.0000000000
     76101     25367  TIP3      H2             31.6137533595        9.0291177139       21.7905103535  W2        26473           0.0000000000
     76102     25368  TIP3      OH2            38.6269333595       10.5775677139       33.7015203535  W2        26474           0.0000000000
     76103     25368  TIP3      H1             37.9743433595       11.2721277139       33.7906103535  W2        26474           0.0000000000
     76104     25368  TIP3      H2             39.0919633595       10.7876577139       32.8916803535  W2        26474           0.0000000000
     76105     25369  TIP3      OH2            34.6633133595       11.4090477139       26.3596703535  W2        26475           0.0000000000
     76106     25369  TIP3      H1             33.9314133595       11.6374177139       26.9327303535  W2        26475           0.0000000000
     76107     25369  TIP3      H2             35.1105333595       10.6953177139       26.8144203535  W2        26475           0.0000000000
     76108     25370  TIP3      OH2            34.5606633595        9.5833077139       35.4273703535  W2        26476           0.0000000000
     76109     25370  TIP3      H1             34.6405733595       10.3467477139       35.9992203535  W2        26476           0.0000000000
     76110     25370  TIP3      H2             33.9594333595        9.8625477139       34.7368803535  W2        26476           0.0000000000
     76111     25371  TIP3      OH2            26.3086833595       12.0396677139       28.2421703535  W2        26477           0.0000000000
     76112     25371  TIP3      H1             25.9782033595       11.6690077139       27.4238703535  W2        26477           0.0000000000
     76113     25371  TIP3      H2             26.8970933595       11.3690677139       28.5890003535  W2        26477           0.0000000000
     76114     25372  TIP3      OH2            27.6754333595       15.4677277139       30.9233903535  W2        26478           0.0000000000
     76115     25372  TIP3      H1             27.5805633595       14.8890377139       30.1668503535  W2        26478           0.0000000000
     76116     25372  TIP3      H2             28.4047933595       15.0962977139       31.4196703535  W2        26478           0.0000000000
     76117     25373  TIP3      OH2            26.6752333595       10.8082277139       31.8756703535  W2        26479           0.0000000000
     76118     25373  TIP3      H1             27.2404833595       10.9296477139       31.1127903535  W2        26479           0.0000000000
     76119     25373  TIP3      H2             26.9941233595       11.4457277139       32.5145203535  W2        26479           0.0000000000
     76120     25374  TIP3      OH2            32.9844533595       16.3114177139       32.6097203535  W2        26480           0.0000000000
     76121     25374  TIP3      H1             32.7441133595       16.9737277139       33.2576403535  W2        26480           0.0000000000
     76122     25374  TIP3      H2             32.7862733595       15.4769377139       33.0346803535  W2        26480           0.0000000000
     76123     25375  TIP3      OH2            33.5342633595       10.5713377139       24.0447903535  W2        26482           0.0000000000
     76124     25375  TIP3      H1             34.1138133595       10.7213677139       24.7916803535  W2        26482           0.0000000000
     76125     25375  TIP3      H2             33.9482633595       11.0420777139       23.3214303535  W2        26482           0.0000000000
     76126     25376  TIP3      OH2            31.2607533595       17.3081877139       27.4801003535  W2        26484           0.0000000000
     76127     25376  TIP3      H1             31.7345133595       17.6038177139       28.2575203535  W2        26484           0.0000000000
     76128     25376  TIP3      H2             30.6976833595       18.0463477139       27.2470603535  W2        26484           0.0000000000
     76129     25377  TIP3      OH2            37.2331033595        2.3213777139       23.8577603535  W2        26486           0.0000000000
     76130     25377  TIP3      H1             36.3331733595        2.4602777139       24.1528203535  W2        26486           0.0000000000
     76131     25377  TIP3      H2             37.4849433595        3.1528377139       23.4559303535  W2        26486           0.0000000000
     76132     25378  TIP3      OH2            25.2989533595       11.1090977139       25.8314503535  W2        26487           0.0000000000
     76133     25378  TIP3      H1             25.0070833595       11.8772677139       25.3405803535  W2        26487           0.0000000000
     76134     25378  TIP3      H2             24.6244733595       10.4497177139       25.6685903535  W2        26487           0.0000000000
     76135     25379  TIP3      OH2            38.4222433595       16.6876177139       22.2341503535  W2        26488           0.0000000000
     76136     25379  TIP3      H1             38.4955933595       17.6266377139       22.4046803535  W2        26488           0.0000000000
     76137     25379  TIP3      H2             39.3277533595       16.3824777139       22.1778803535  W2        26488           0.0000000000
     76138     25380  TIP3      OH2            21.3919633595       13.4720177139       34.6464303535  W2        26489           0.0000000000
     76139     25380  TIP3      H1             20.8908033595       13.4439577139       33.8314003535  W2        26489           0.0000000000
     76140     25380  TIP3      H2             21.3973333595       12.5663377139       34.9561603535  W2        26489           0.0000000000
     76141     25381  TIP3      OH2            21.1422333595       16.2523977139       31.5304503535  W2        26490           0.0000000000
     76142     25381  TIP3      H1             22.0882933595       16.1080977139       31.5114003535  W2        26490           0.0000000000
     76143     25381  TIP3      H2             21.0298633595       17.0366777139       32.0675703535  W2        26490           0.0000000000
     76144     25382  TIP3      OH2            30.7330633595       20.2646577139       25.8950203535  W2        26493           0.0000000000
     76145     25382  TIP3      H1             30.6576633595       20.1433777139       24.9485403535  W2        26493           0.0000000000
     76146     25382  TIP3      H2             30.7659333595       21.2139277139       26.0134803535  W2        26493           0.0000000000
     76147     25383  TIP3      OH2            24.3864433595       19.0533577139       27.6759203535  W2        26494           0.0000000000
     76148     25383  TIP3      H1             24.5384833595       18.7053977139       28.5545703535  W2        26494           0.0000000000
     76149     25383  TIP3      H2             23.5354833595       18.6970877139       27.4206403535  W2        26494           0.0000000000
     76150     25384  TIP3      OH2            33.8346633595       19.4186777139       22.8972603535  W2        26495           0.0000000000
     76151     25384  TIP3      H1             34.2095033595       18.6742877139       22.4265203535  W2        26495           0.0000000000
     76152     25384  TIP3      H2             33.8390333595       19.1487377139       23.8155903535  W2        26495           0.0000000000
     76153     25385  TIP3      OH2            33.5034733595       19.3443877139       25.6464803535  W2        26496           0.0000000000
     76154     25385  TIP3      H1             32.5684533595       19.4445777139       25.8251803535  W2        26496           0.0000000000
     76155     25385  TIP3      H2             33.7836633595       18.6349877139       26.2248003535  W2        26496           0.0000000000
     76156     25386  TIP3      OH2            26.2598133595        3.2656077139       31.6851303535  W2        26499           0.0000000000
     76157     25386  TIP3      H1             25.3981833595        3.1784277139       31.2774203535  W2        26499           0.0000000000
     76158     25386  TIP3      H2             26.2373833595        4.1216177139       32.1128903535  W2        26499           0.0000000000
     76159     25387  TIP3      OH2            30.9225933595        2.9876477139       35.0598303535  W2        26500           0.0000000000
     76160     25387  TIP3      H1             31.3429033595        2.5723577139       35.8128903535  W2        26500           0.0000000000
     76161     25387  TIP3      H2             29.9895533595        2.8089777139       35.1770303535  W2        26500           0.0000000000
     76162     25388  TIP3      OH2            35.0115733595       11.6041677139       21.6745803535  W2        26502           0.0000000000
     76163     25388  TIP3      H1             35.0536533595       11.3815577139       20.7445803535  W2        26502           0.0000000000
     76164     25388  TIP3      H2             35.8607833595       12.0028777139       21.8645703535  W2        26502           0.0000000000
     76165     25389  TIP3      OH2            30.5843233595        5.4799877139       22.3449103535  W2        26503           0.0000000000
     76166     25389  TIP3      H1             30.3308033595        5.4991477139       23.2677203535  W2        26503           0.0000000000
     76167     25389  TIP3      H2             30.3275333595        4.6085277139       22.0435303535  W2        26503           0.0000000000
     76168     25390  TIP3      OH2            26.3508233595        8.2310577139       32.7801503535  W2        26504           0.0000000000
     76169     25390  TIP3      H1             25.7090333595        8.1907877139       33.4891603535  W2        26504           0.0000000000
     76170     25390  TIP3      H2             26.3880233595        9.1575277139       32.5424503535  W2        26504           0.0000000000
     76171     25391  TIP3      OH2            26.3477333595        8.4520677139       27.6921503535  W2        26505           0.0000000000
     76172     25391  TIP3      H1             25.4550233595        8.1116777139       27.6335303535  W2        26505           0.0000000000
     76173     25391  TIP3      H2             26.7983933595        8.0751577139       26.9364703535  W2        26505           0.0000000000
     76174     25392  TIP3      OH2            31.8832833595        8.8680977139       26.5092303535  W2        26506           0.0000000000
     76175     25392  TIP3      H1             31.4743133595        9.6829577139       26.2177103535  W2        26506           0.0000000000
     76176     25392  TIP3      H2             32.6039033595        8.7281077139       25.8949403535  W2        26506           0.0000000000
     76177     25393  TIP3      OH2            32.8880533595        8.3141377139       29.3232003535  W2        26508           0.0000000000
     76178     25393  TIP3      H1             32.6925033595        8.9198177139       28.6082603535  W2        26508           0.0000000000
     76179     25393  TIP3      H2             33.0693133595        7.4806577139       28.8888303535  W2        26508           0.0000000000
     76180     25394  TIP3      OH2            24.1008733595        8.5514077139       34.6473503535  W2        26509           0.0000000000
     76181     25394  TIP3      H1             24.0628133595        8.9515677139       35.5160603535  W2        26509           0.0000000000
     76182     25394  TIP3      H2             23.6099833595        7.7346477139       34.7376403535  W2        26509           0.0000000000
     76183     25395  TIP3      OH2            27.4666133595        5.9256377139       21.4459503535  W2        26510           0.0000000000
     76184     25395  TIP3      H1             27.0356833595        5.4806477139       22.1756903535  W2        26510           0.0000000000
     76185     25395  TIP3      H2             26.7484833595        6.2972677139       20.9337003535  W2        26510           0.0000000000
     76186     25396  TIP3      OH2            20.7089533595        5.6675877139       28.4978203535  W2        26511           0.0000000000
     76187     25396  TIP3      H1             21.3397233595        5.6387977139       29.2172103535  W2        26511           0.0000000000
     76188     25396  TIP3      H2             21.1583833595        5.2424577139       27.7674103535  W2        26511           0.0000000000
     76189     25397  TIP3      OH2            21.9831633595        6.4137877139       23.9218603535  W2        26512           0.0000000000
     76190     25397  TIP3      H1             22.4573333595        7.0047777139       23.3369503535  W2        26512           0.0000000000
     76191     25397  TIP3      H2             21.2658033595        6.9440777139       24.2688703535  W2        26512           0.0000000000
     76192     25398  TIP3      OH2            32.1519733595        9.9522677139       33.9944403535  W2        26513           0.0000000000
     76193     25398  TIP3      H1             32.4754533595        9.3212377139       33.3514903535  W2        26513           0.0000000000
     76194     25398  TIP3      H2             31.7119033595        9.4174877139       34.6551803535  W2        26513           0.0000000000
     76195     25399  TIP3      OH2            28.9292633595        5.8798177139       28.7785603535  W2        26514           0.0000000000
     76196     25399  TIP3      H1             28.0183733595        5.9364977139       29.0671603535  W2        26514           0.0000000000
     76197     25399  TIP3      H2             29.4345533595        5.8193677139       29.5892803535  W2        26514           0.0000000000
     76198     25400  TIP3      OH2            23.7576033595        7.5084477139       27.6053203535  W2        26515           0.0000000000
     76199     25400  TIP3      H1             22.8684033595        7.6079977139       27.2652803535  W2        26515           0.0000000000
     76200     25400  TIP3      H2             24.0540933595        6.6667477139       27.2591103535  W2        26515           0.0000000000
     76201     25401  TIP3      OH2            27.4107833595        7.5087077139       25.2617803535  W2        26516           0.0000000000
     76202     25401  TIP3      H1             28.3423333595        7.6377077139       25.4400903535  W2        26516           0.0000000000
     76203     25401  TIP3      H2             27.1958133595        8.1781377139       24.6122503535  W2        26516           0.0000000000
     76204     25402  TIP3      OH2            33.3344533595        5.1144477139       32.0427403535  W2        26517           0.0000000000
     76205     25402  TIP3      H1             32.6576133595        5.2457577139       32.7067103535  W2        26517           0.0000000000
     76206     25402  TIP3      H2             32.8489433595        4.9593977139       31.2325103535  W2        26517           0.0000000000
     76207     25403  TIP3      OH2            26.0848033595        8.7029277139       22.8283903535  W2        26518           0.0000000000
     76208     25403  TIP3      H1             25.5423133595        8.3233077139       22.1371503535  W2        26518           0.0000000000
     76209     25403  TIP3      H2             26.9182933595        8.8973977139       22.3998003535  W2        26518           0.0000000000
     76210     25404  TIP3      OH2            30.2492333595        8.6671177139       30.6655203535  W2        26521           0.0000000000
     76211     25404  TIP3      H1             30.8135733595        8.1207777139       30.1184803535  W2        26521           0.0000000000
     76212     25404  TIP3      H2             30.1015733595        8.1453077139       31.4542803535  W2        26521           0.0000000000
     76213     25405  TIP3      OH2            25.2512033595        4.8037277139       27.0840003535  W2        26522           0.0000000000
     76214     25405  TIP3      H1             24.9341533595        3.9012577139       27.0485403535  W2        26522           0.0000000000
     76215     25405  TIP3      H2             26.0326133595        4.8054677139       26.5311603535  W2        26522           0.0000000000
     76216     25406  TIP3      OH2            28.8758233595        7.0557277139       33.0795603535  W2        26523           0.0000000000
     76217     25406  TIP3      H1             28.0403533595        7.5096777139       33.1898003535  W2        26523           0.0000000000
     76218     25406  TIP3      H2             29.3998833595        7.3315777139       33.8315503535  W2        26523           0.0000000000
     76219     25407  TIP3      OH2            29.4200833595       13.2684977139       24.7642003535  W2        26524           0.0000000000
     76220     25407  TIP3      H1             28.6751833595       12.7610277139       24.4419903535  W2        26524           0.0000000000
     76221     25407  TIP3      H2             29.2858033595       13.3172977139       25.7106803535  W2        26524           0.0000000000
     76222     25408  TIP3      OH2            36.5699733595       12.4013177139       33.5509603535  W2        26525           0.0000000000
     76223     25408  TIP3      H1             37.2118533595       12.8579477139       33.0071803535  W2        26525           0.0000000000
     76224     25408  TIP3      H2             35.7396633595       12.5145577139       33.0883703535  W2        26525           0.0000000000
     76225     25409  TIP3      OH2            33.3177633595        6.0824877139       22.9634603535  W2        26526           0.0000000000
     76226     25409  TIP3      H1             32.3791833595        6.1940477139       22.8123403535  W2        26526           0.0000000000
     76227     25409  TIP3      H2             33.6149733595        6.9391777139       23.2700303535  W2        26526           0.0000000000
     76228     25410  TIP3      OH2            34.0361133595        7.9497577139       24.6242003535  W2        26528           0.0000000000
     76229     25410  TIP3      H1             34.9280133595        7.8122577139       24.9433203535  W2        26528           0.0000000000
     76230     25410  TIP3      H2             34.0924733595        8.7403677139       24.0875503535  W2        26528           0.0000000000
     76231     25411  TIP3      OH2            24.5449133595       12.5634977139       30.5339903535  W2        26529           0.0000000000
     76232     25411  TIP3      H1             25.2896333595       12.5610677139       29.9326403535  W2        26529           0.0000000000
     76233     25411  TIP3      H2             24.6225733595       11.7398777139       31.0155003535  W2        26529           0.0000000000
     76234     25412  TIP3      OH2            31.5454933595       14.7269277139       23.7896603535  W2        26530           0.0000000000
     76235     25412  TIP3      H1             31.2503333595       15.5537177139       24.1711403535  W2        26530           0.0000000000
     76236     25412  TIP3      H2             30.8424933595       14.1076177139       23.9858003535  W2        26530           0.0000000000
     76237     25413  TIP3      OH2            38.9209833595        8.1591677139       24.3188703535  W2        26534           0.0000000000
     76238     25413  TIP3      H1             38.3666133595        7.7629677139       23.6466203535  W2        26534           0.0000000000
     76239     25413  TIP3      H2             39.0213433595        9.0696877139       24.0412003535  W2        26534           0.0000000000
     76240     25414  TIP3      OH2            37.2161533595       16.9452077139       24.7840803535  W2        26536           0.0000000000
     76241     25414  TIP3      H1             36.8432633595       16.1195877139       25.0931403535  W2        26536           0.0000000000
     76242     25414  TIP3      H2             37.4935033595       16.7621477139       23.8864203535  W2        26536           0.0000000000
     76243     25415  TIP3      OH2            34.3765433595       11.7531577139       31.8052703535  W2        26537           0.0000000000
     76244     25415  TIP3      H1             33.4482333595       11.5213477139       31.7782003535  W2        26537           0.0000000000
     76245     25415  TIP3      H2             34.8276533595       10.9761377139       31.4751503535  W2        26537           0.0000000000
     76246     25416  TIP3      OH2            26.9198533595       16.0813177139       27.9381403535  W2        26538           0.0000000000
     76247     25416  TIP3      H1             27.4470733595       16.8547577139       27.7380203535  W2        26538           0.0000000000
     76248     25416  TIP3      H2             26.0397033595       16.3062377139       27.6365403535  W2        26538           0.0000000000
     76249     25417  TIP3      OH2            22.6746233595       10.9437277139       22.5253803535  W2        26539           0.0000000000
     76250     25417  TIP3      H1             23.2906133595       11.5704477139       22.9048603535  W2        26539           0.0000000000
     76251     25417  TIP3      H2             21.8128833595       11.2597077139       22.7970303535  W2        26539           0.0000000000
     76252     25418  TIP3      OH2            28.3470833595       13.7443077139       27.5145703535  W2        26540           0.0000000000
     76253     25418  TIP3      H1             28.1060833595       14.6697477139       27.5561003535  W2        26540           0.0000000000
     76254     25418  TIP3      H2             27.6064433595       13.2854377139       27.9109603535  W2        26540           0.0000000000
     76255     25419  TIP3      OH2            28.8617433595       17.8936677139       33.8296803535  W2        26541           0.0000000000
     76256     25419  TIP3      H1             29.2242133595       18.7482277139       33.5961203535  W2        26541           0.0000000000
     76257     25419  TIP3      H2             29.3932633595       17.6018277139       34.5703103535  W2        26541           0.0000000000
     76258     25420  TIP3      OH2            27.0301633595       18.7660677139       27.0597903535  W2        26542           0.0000000000
     76259     25420  TIP3      H1             26.0802133595       18.8718077139       27.1111203535  W2        26542           0.0000000000
     76260     25420  TIP3      H2             27.3819733595       19.5868077139       27.4045403535  W2        26542           0.0000000000
     76261     25421  TIP3      OH2            32.4058233595       13.9927377139       33.5302403535  W2        26543           0.0000000000
     76262     25421  TIP3      H1             31.9799533595       13.7649077139       34.3566403535  W2        26543           0.0000000000
     76263     25421  TIP3      H2             32.9864033595       13.2539177139       33.3477703535  W2        26543           0.0000000000
     76264     25422  TIP3      OH2            34.6087133595       14.9217877139       22.6041403535  W2        26544           0.0000000000
     76265     25422  TIP3      H1             34.9620233595       14.5417677139       23.4084903535  W2        26544           0.0000000000
     76266     25422  TIP3      H2             33.6600633595       14.8282677139       22.6910703535  W2        26544           0.0000000000
     76267     25423  TIP3      OH2            39.1121533595       19.4010377139       22.8051603535  W2        26546           0.0000000000
     76268     25423  TIP3      H1             39.8559433595       19.9870877139       22.6653203535  W2        26546           0.0000000000
     76269     25423  TIP3      H2             38.4179633595       19.9696177139       23.1384003535  W2        26546           0.0000000000
     76270     25424  TIP3      OH2            23.1868333595        5.7774577139       35.4069803535  W2        26547           0.0000000000
     76271     25424  TIP3      H1             22.2940633595        6.1159977139       35.3393803535  W2        26547           0.0000000000
     76272     25424  TIP3      H2             23.0881133595        4.9220677139       35.8250603535  W2        26547           0.0000000000
     76273     25425  TIP3      OH2            35.4746433595       13.5939877139       24.8309303535  W2        26548           0.0000000000
     76274     25425  TIP3      H1             35.1974033595       12.8659177139       25.3870403535  W2        26548           0.0000000000
     76275     25425  TIP3      H2             36.4019433595       13.7131877139       25.0361903535  W2        26548           0.0000000000
     76276     25426  TIP3      OH2            22.8380333595       17.5818977139       33.8419203535  W2        26549           0.0000000000
     76277     25426  TIP3      H1             23.0550633595       16.6501377139       33.8108903535  W2        26549           0.0000000000
     76278     25426  TIP3      H2             23.0843833595       17.8563977139       34.7252003535  W2        26549           0.0000000000
     76279     25427  TIP3      OH2            28.6994933595       16.0333977139       21.0511403535  W2        26550           0.0000000000
     76280     25427  TIP3      H1             28.9384733595       15.2852077139       20.5040303535  W2        26550           0.0000000000
     76281     25427  TIP3      H2             28.4306233595       15.6455677139       21.8839203535  W2        26550           0.0000000000
     76282     25428  TIP3      OH2            27.6365533595       15.6037777139       23.5074003535  W2        26551           0.0000000000
     76283     25428  TIP3      H1             27.7833533595       15.0837577139       24.2974903535  W2        26551           0.0000000000
     76284     25428  TIP3      H2             27.6337233595       16.5105377139       23.8139903535  W2        26551           0.0000000000
     76285     25429  TIP3      OH2            24.0896633595       12.8561077139       24.0179403535  W2        26552           0.0000000000
     76286     25429  TIP3      H1             23.4035933595       13.2083577139       24.5849103535  W2        26552           0.0000000000
     76287     25429  TIP3      H2             24.6124533595       13.6190677139       23.7713703535  W2        26552           0.0000000000
     76288     25430  TIP3      OH2            31.9211733595        5.5184877139       34.2968403535  W2        26553           0.0000000000
     76289     25430  TIP3      H1             32.6199633595        5.5923577139       34.9468103535  W2        26553           0.0000000000
     76290     25430  TIP3      H2             31.5403133595        4.6539877139       34.4511303535  W2        26553           0.0000000000
     76291     25431  TIP3      OH2            32.7056633595        5.1706577139       25.3940703535  W2        26554           0.0000000000
     76292     25431  TIP3      H1             32.9254933595        5.6421977139       24.5906103535  W2        26554           0.0000000000
     76293     25431  TIP3      H2             33.2640633595        5.5649177139       26.0641303535  W2        26554           0.0000000000
     76294     25432  TIP3      OH2            30.3742733595       17.3011377139       24.2568203535  W2        26555           0.0000000000
     76295     25432  TIP3      H1             29.5578833595       17.7981077139       24.3092503535  W2        26555           0.0000000000
     76296     25432  TIP3      H2             30.9039033595       17.7764877139       23.6167003535  W2        26555           0.0000000000
     76297     25433  TIP3      OH2            29.9056533595        6.8985377139       26.2289103535  W2        26556           0.0000000000
     76298     25433  TIP3      H1             30.7179133595        7.4028577139       26.2750803535  W2        26556           0.0000000000
     76299     25433  TIP3      H2             29.6609533595        6.7535077139       27.1428703535  W2        26556           0.0000000000
     76300     25434  TIP3      OH2            30.4412933595        7.8848077139       35.4135703535  W2        26557           0.0000000000
     76301     25434  TIP3      H1             30.5603233595        8.4583477139       36.1706103535  W2        26557           0.0000000000
     76302     25434  TIP3      H2             31.0967533595        7.1967477139       35.5283503535  W2        26557           0.0000000000
     76303     25435  TIP3      OH2            30.7893233595        3.9798377139       27.1670203535  W2        26558           0.0000000000
     76304     25435  TIP3      H1             30.4426733595        4.5968977139       27.8114503535  W2        26558           0.0000000000
     76305     25435  TIP3      H2             31.4480133595        4.4804077139       26.6855703535  W2        26558           0.0000000000
     76306     25436  TIP3      OH2            27.7125833595       18.3448577139       24.2385103535  W2        26559           0.0000000000
     76307     25436  TIP3      H1             27.8734533595       19.1446077139       23.7377703535  W2        26559           0.0000000000
     76308     25436  TIP3      H2             27.5153633595       18.6514577139       25.1235703535  W2        26559           0.0000000000
     76309     25437  TIP3      OH2            26.4470233595        5.0427777139       23.8542703535  W2        26560           0.0000000000
     76310     25437  TIP3      H1             26.3635033595        5.9310877139       24.2009103535  W2        26560           0.0000000000
     76311     25437  TIP3      H2             27.3370533595        4.7774477139       24.0859503535  W2        26560           0.0000000000
     76312     25438  TIP3      OH2            35.2479733595        9.5419377139       30.3442703535  W2        26562           0.0000000000
     76313     25438  TIP3      H1             34.4504133595        9.1269577139       30.0157703535  W2        26562           0.0000000000
     76314     25438  TIP3      H2             35.6930833595        8.8513077139       30.8353203535  W2        26562           0.0000000000
     76315     25439  TIP3      OH2            24.7055533595       15.4699977139       22.9147203535  W2        26563           0.0000000000
     76316     25439  TIP3      H1             25.2977033595       16.1694777139       23.1909603535  W2        26563           0.0000000000
     76317     25439  TIP3      H2             25.1648533595       15.0369477139       22.1951803535  W2        26563           0.0000000000
     76318     25440  TIP3      OH2            23.0214733595        8.1342977139       22.0306603535  W2        26564           0.0000000000
     76319     25440  TIP3      H1             22.9767333595        9.0736077139       22.2093603535  W2        26564           0.0000000000
     76320     25440  TIP3      H2             22.1337933595        7.8987877139       21.7608703535  W2        26564           0.0000000000
     76321     25441  TIP3      OH2            36.3344333595       18.7981877139       31.9666203535  W2        26565           0.0000000000
     76322     25441  TIP3      H1             36.1788633595       19.4766277139       31.3095503535  W2        26565           0.0000000000
     76323     25441  TIP3      H2             37.2670733595       18.8701177139       32.1696803535  W2        26565           0.0000000000
     76324     25442  TIP3      OH2            23.8296733595        2.9159577139       30.7037603535  W2        26566           0.0000000000
     76325     25442  TIP3      H1             23.6006533595        2.9752077139       29.7762603535  W2        26566           0.0000000000
     76326     25442  TIP3      H2             23.3870133595        2.1245077139       31.0101703535  W2        26566           0.0000000000
     76327     25443  TIP3      OH2            22.7600033595       16.8566677139       26.8643403535  W2        26567           0.0000000000
     76328     25443  TIP3      H1             21.9278633595       17.3289377139       26.8914803535  W2        26567           0.0000000000
     76329     25443  TIP3      H2             23.3058333595       17.3664277139       26.2656503535  W2        26567           0.0000000000
     76330     25444  TIP3      OH2            30.7376733595       17.8965377139       21.1897403535  W2        26570           0.0000000000
     76331     25444  TIP3      H1             30.0937733595       17.2653977139       21.5111103535  W2        26570           0.0000000000
     76332     25444  TIP3      H2             31.4995033595       17.3653377139       20.9580903535  W2        26570           0.0000000000
     76333     25445  TIP3      OH2            35.3419633595       17.7135277139       21.4235403535  W2        26572           0.0000000000
     76334     25445  TIP3      H1             35.6250033595       16.9190477139       21.8762303535  W2        26572           0.0000000000
     76335     25445  TIP3      H2             36.0817533595       17.9466277139       20.8626503535  W2        26572           0.0000000000
     76336     25446  TIP3      OH2            26.2966933595       13.6230177139       21.2810303535  W2        26574           0.0000000000
     76337     25446  TIP3      H1             26.3611033595       12.8289777139       21.8116703535  W2        26574           0.0000000000
     76338     25446  TIP3      H2             26.9496133595       13.5042977139       20.5912303535  W2        26574           0.0000000000
     76339     25447  TIP3      OH2            31.6490333595       14.6701877139       21.0168303535  W2        26576           0.0000000000
     76340     25447  TIP3      H1             31.3804433595       14.8503977139       21.9177203535  W2        26576           0.0000000000
     76341     25447  TIP3      H2             31.4425933595       13.7448077139       20.8854103535  W2        26576           0.0000000000
     76342     25448  TIP3      OH2            27.4460733595       11.5956377139       23.5868303535  W2        26579           0.0000000000
     76343     25448  TIP3      H1             26.9862733595       11.1114677139       24.2726803535  W2        26579           0.0000000000
     76344     25448  TIP3      H2             27.7009433595       10.9271777139       22.9508803535  W2        26579           0.0000000000
     76345     25449  TIP3      OH2            28.5171133595        9.8388177139       21.8491503535  W2        26581           0.0000000000
     76346     25449  TIP3      H1             28.3366133595        9.6839377139       20.9219803535  W2        26581           0.0000000000
     76347     25449  TIP3      H2             29.4671633595        9.9466877139       21.8939403535  W2        26581           0.0000000000
     76348     25450  TIP3      OH2            37.9069433595       12.1932377139       21.2949603535  W2        26583           0.0000000000
     76349     25450  TIP3      H1             37.6334233595       11.7687877139       20.4817903535  W2        26583           0.0000000000
     76350     25450  TIP3      H2             37.9463533595       13.1246877139       21.0780003535  W2        26583           0.0000000000
     76351     25451  TIP3      OH2            27.4869433595        5.2130077139       34.5178403535  W2        26585           0.0000000000
     76352     25451  TIP3      H1             28.0226933595        5.6646777139       33.8657703535  W2        26585           0.0000000000
     76353     25451  TIP3      H2             26.6349033595        5.1049877139       34.0952503535  W2        26585           0.0000000000
     76354     25452  TIP3      OH2            29.0687833595       10.6526277139       34.7573603535  W2        26586           0.0000000000
     76355     25452  TIP3      H1             29.8192633595       10.4963777139       34.1841403535  W2        26586           0.0000000000
     76356     25452  TIP3      H2             28.7296133595       11.5042877139       34.4819103535  W2        26586           0.0000000000
     76357     25453  TIP3      OH2            28.2924933595        2.6695777139       34.9492003535  W2        26590           0.0000000000
     76358     25453  TIP3      H1             28.1944533595        3.6158977139       34.8438203535  W2        26590           0.0000000000
     76359     25453  TIP3      H2             27.5501133595        2.2969577139       34.4735503535  W2        26590           0.0000000000
     76360     25454  TIP3      OH2            28.4142833595       20.5291877139       22.8505103535  W2        26597           0.0000000000
     76361     25454  TIP3      H1             29.3473533595       20.6870577139       22.9943503535  W2        26597           0.0000000000
     76362     25454  TIP3      H2             28.1501633595       21.2044877139       22.2256603535  W2        26597           0.0000000000
     76363     25455  TIP3      OH2            21.9827733595       15.1655677139       22.3333203535  W2        26598           0.0000000000
     76364     25455  TIP3      H1             22.8966933595       15.2444577139       22.6067103535  W2        26598           0.0000000000
     76365     25455  TIP3      H2             21.9900833595       14.4785277139       21.6668803535  W2        26598           0.0000000000
     76366     25456  TIP3      OH2            20.6318333595       20.5584177139       27.4107103535  W2        26599           0.0000000000
     76367     25456  TIP3      H1             19.9845433595       20.0965877139       26.8778303535  W2        26599           0.0000000000
     76368     25456  TIP3      H2             20.9862933595       19.8867477139       27.9933303535  W2        26599           0.0000000000
     76369     25457  TIP3      OH2            21.5017533595       18.6391177139       29.2153303535  W2        26600           0.0000000000
     76370     25457  TIP3      H1             21.1674333595       17.7588477139       29.3873503535  W2        26600           0.0000000000
     76371     25457  TIP3      H2             21.7239933595       18.9846177139       30.0798903535  W2        26600           0.0000000000
     76372     25458  TIP3      OH2            39.0502333595       19.4487577139       32.1958103535  W2        26601           0.0000000000
     76373     25458  TIP3      H1             39.0289033595       19.6335977139       33.1347503535  W2        26601           0.0000000000
     76374     25458  TIP3      H2             39.7408533595       20.0171577139       31.8549503535  W2        26601           0.0000000000
     76375     25459  TIP3      OH2            38.6135233595       19.0158677139       35.1177203535  W2        26602           0.0000000000
     76376     25459  TIP3      H1             38.1263933595       18.2802777139       34.7464603535  W2        26602           0.0000000000
     76377     25459  TIP3      H2             39.1627933595       18.6222577139       35.7956603535  W2        26602           0.0000000000
     76378     25460  TIP3      OH2            38.3652233595       13.0620477139       25.2700003535  W2        26604           0.0000000000
     76379     25460  TIP3      H1             39.2153633595       13.4831377139       25.3971603535  W2        26604           0.0000000000
     76380     25460  TIP3      H2             38.3707333595       12.3220577139       25.8771403535  W2        26604           0.0000000000
     76381     25461  TIP3      OH2            38.7597833595       11.1157877139       27.0935703535  W2        26605           0.0000000000
     76382     25461  TIP3      H1             38.0332433595       10.6360477139       27.4913303535  W2        26605           0.0000000000
     76383     25461  TIP3      H2             39.3411133595       11.3212577139       27.8257303535  W2        26605           0.0000000000
     76384     25462  TIP3      OH2            38.5189033595       13.9005377139       32.0413303535  W2        26606           0.0000000000
     76385     25462  TIP3      H1             39.3523233595       13.5225377139       31.7606903535  W2        26606           0.0000000000
     76386     25462  TIP3      H2             38.6309333595       14.8436577139       31.9222403535  W2        26606           0.0000000000
     76387     25463  TIP3      OH2            37.0051333595       16.7782877139       34.3481703535  W2        26607           0.0000000000
     76388     25463  TIP3      H1             36.3576633595       17.1034377139       34.9736903535  W2        26607           0.0000000000
     76389     25463  TIP3      H2             36.4875333595       16.3380577139       33.6740003535  W2        26607           0.0000000000
     76390     25464  TIP3      OH2            39.0280933595       11.0166377139       23.4847003535  W2        26608           0.0000000000
     76391     25464  TIP3      H1             38.5062033595       11.3730477139       22.7657903535  W2        26608           0.0000000000
     76392     25464  TIP3      H2             38.9950133595       11.6914177139       24.1627903535  W2        26608           0.0000000000
     76393     25465  TIP3      OH2            37.3769933595        8.2561977139       22.0354103535  W2        26609           0.0000000000
     76394     25465  TIP3      H1             37.4734333595        8.9228977139       21.3553803535  W2        26609           0.0000000000
     76395     25465  TIP3      H2             37.2369533595        7.4408277139       21.5539603535  W2        26609           0.0000000000
     76396     25466  TIP3      OH2            36.5464633595        9.6364377139       27.6564403535  W2        26610           0.0000000000
     76397     25466  TIP3      H1             36.3963433595        8.6912977139       27.6362203535  W2        26610           0.0000000000
     76398     25466  TIP3      H2             36.1929133595        9.9175777139       28.5003503535  W2        26610           0.0000000000
     76399     25467  TIP3      OH2            21.5817033595       11.7146577139       31.6668203535  W2        26611           0.0000000000
     76400     25467  TIP3      H1             21.7659933595       11.6328277139       30.7311103535  W2        26611           0.0000000000
     76401     25467  TIP3      H2             22.4309933595       11.5903577139       32.0904603535  W2        26611           0.0000000000
     76402     25468  TIP3      OH2            36.6243733595        5.6641777139       21.1529603535  W2        26614           0.0000000000
     76403     25468  TIP3      H1             37.2349533595        5.2928577139       21.7897803535  W2        26614           0.0000000000
     76404     25468  TIP3      H2             35.7875233595        5.2428677139       21.3489603535  W2        26614           0.0000000000
     76405     25469  TIP3      OH2            36.2569433595        7.2190177139       26.1189503535  W2        26615           0.0000000000
     76406     25469  TIP3      H1             36.5366533595        6.3120577139       26.2431203535  W2        26615           0.0000000000
     76407     25469  TIP3      H2             37.0161133595        7.6531677139       25.7298703535  W2        26615           0.0000000000
     76408     25470  TIP3      OH2            36.8687733595        7.8007577139       31.5548403535  W2        26616           0.0000000000
     76409     25470  TIP3      H1             37.8015733595        8.0127477139       31.5204403535  W2        26616           0.0000000000
     76410     25470  TIP3      H2             36.6335233595        7.9019677139       32.4771403535  W2        26616           0.0000000000
     76411     25471  TIP3      OH2            36.8979633595        8.5372877139       34.3307803535  W2        26617           0.0000000000
     76412     25471  TIP3      H1             36.0550933595        8.8053277139       34.6967603535  W2        26617           0.0000000000
     76413     25471  TIP3      H2             37.3403933595        9.3594777139       34.1198903535  W2        26617           0.0000000000
     76414     25472  TIP3      OH2            36.8704233595        4.4819477139       26.1671503535  W2        26620           0.0000000000
     76415     25472  TIP3      H1             37.0529233595        4.0330977139       26.9926503535  W2        26620           0.0000000000
     76416     25472  TIP3      H2             36.2707133595        3.8973877139       25.7036103535  W2        26620           0.0000000000
     76417     25473  TIP3      OH2            22.4004333595        5.2973177139       30.6989903535  W2        26621           0.0000000000
     76418     25473  TIP3      H1             22.8455933595        4.5055677139       31.0009603535  W2        26621           0.0000000000
     76419     25473  TIP3      H2             22.8667333595        6.0138377139       31.1295503535  W2        26621           0.0000000000
     76420     25474  TIP3      OH2            20.7044633595        8.2966177139       31.7680103535  W2        26622           0.0000000000
     76421     25474  TIP3      H1             21.1964433595        8.0756677139       30.9772103535  W2        26622           0.0000000000
     76422     25474  TIP3      H2             21.0665533595        9.1369577139       32.0489603535  W2        26622           0.0000000000
     76423     25475  TIP3      OH2            38.7370433595        4.5497577139       22.6951803535  W2        26624           0.0000000000
     76424     25475  TIP3      H1             39.1493033595        3.8283277139       22.2199803535  W2        26624           0.0000000000
     76425     25475  TIP3      H2             39.4186933595        5.2192177139       22.7536103535  W2        26624           0.0000000000
     76426     25476  TIP3      OH2            21.0181133595        4.5545277139       25.8222503535  W2        26625           0.0000000000
     76427     25476  TIP3      H1             20.0929533595        4.7631877139       25.6928003535  W2        26625           0.0000000000
     76428     25476  TIP3      H2             21.4721033595        5.0386077139       25.1324803535  W2        26625           0.0000000000
     76429     25477  TIP3      OH2            35.7888333595       19.5386977139       27.7679903535  W2        26626           0.0000000000
     76430     25477  TIP3      H1             36.4411233595       19.1909077139       27.1599003535  W2        26626           0.0000000000
     76431     25477  TIP3      H2             36.2992133595       20.0270177139       28.4139603535  W2        26626           0.0000000000
     76432     25478  TIP3      OH2            20.9816533595        3.2924277139       34.1665003535  W2        26627           0.0000000000
     76433     25478  TIP3      H1             20.3167033595        3.0464577139       34.8095903535  W2        26627           0.0000000000
     76434     25478  TIP3      H2             20.5387833595        3.9144677139       33.5893003535  W2        26627           0.0000000000
     76435     25479  TIP3      OH2            26.1278733595       17.4419577139       34.5694803535  W2        26629           0.0000000000
     76436     25479  TIP3      H1             25.7029833595       18.2518077139       34.2869403535  W2        26629           0.0000000000
     76437     25479  TIP3      H2             27.0321533595       17.5273677139       34.2674603535  W2        26629           0.0000000000
     76438     25480  TIP3      OH2            23.5295433595       20.6983477139       34.6170103535  W2        26633           0.0000000000
     76439     25480  TIP3      H1             22.8091833595       21.1384477139       34.1657803535  W2        26633           0.0000000000
     76440     25480  TIP3      H2             23.1639433595       20.4478177139       35.4654103535  W2        26633           0.0000000000
     76441     25481  TIP3      OH2            25.9968033595       20.2987377139       33.6467303535  W2        26634           0.0000000000
     76442     25481  TIP3      H1             25.1320233595       20.3705877139       34.0507403535  W2        26634           0.0000000000
     76443     25481  TIP3      H2             25.9417033595       20.8454677139       32.8629803535  W2        26634           0.0000000000
     76444     25482  TIP3      OH2            30.7073633595       20.1866277139       32.8223303535  W2        26635           0.0000000000
     76445     25482  TIP3      H1             30.2507633595       20.7155977139       32.1681703535  W2        26635           0.0000000000
     76446     25482  TIP3      H2             30.8701633595       20.7897677139       33.5475603535  W2        26635           0.0000000000
     76447     25483  TIP3      OH2            33.0349933595       19.0645877139       33.7673603535  W2        26636           0.0000000000
     76448     25483  TIP3      H1             32.1303633595       19.2296077139       33.5015703535  W2        26636           0.0000000000
     76449     25483  TIP3      H2             33.4638533595       19.9178077139       33.7017003535  W2        26636           0.0000000000
     76450     25484  TIP3      OH2            35.6391833595       20.6344977139       34.0621403535  W2        26637           0.0000000000
     76451     25484  TIP3      H1             35.4573833595       21.5503877139       33.8516303535  W2        26637           0.0000000000
     76452     25484  TIP3      H2             35.8159633595       20.2242077139       33.2156003535  W2        26637           0.0000000000
     76453     25485  TIP3      OH2            22.9443533595       19.3215977139       31.5271903535  W2        26638           0.0000000000
     76454     25485  TIP3      H1             22.9259533595       18.8961077139       32.3844203535  W2        26638           0.0000000000
     76455     25485  TIP3      H2             23.7491433595       19.0030977139       31.1184103535  W2        26638           0.0000000000
     76456     25486  TIP3      OH2            25.0856633595       18.0314677139       30.1821803535  W2        26639           0.0000000000
     76457     25486  TIP3      H1             24.8667333595       17.1152077139       30.3517803535  W2        26639           0.0000000000
     76458     25486  TIP3      H2             25.9098833595       18.1715077139       30.6483203535  W2        26639           0.0000000000
     76459     25487  TIP3      OH2            27.6229133595       18.5013977139       31.0309803535  W2        26640           0.0000000000
     76460     25487  TIP3      H1             27.8354833595       17.6132977139       30.7440703535  W2        26640           0.0000000000
     76461     25487  TIP3      H2             27.6874233595       18.4671677139       31.9853803535  W2        26640           0.0000000000
     76462     25488  TIP3      OH2            31.1312833595        4.1654577139       30.1753103535  W2        26641           0.0000000000
     76463     25488  TIP3      H1             30.4569633595        3.5360177139       30.4308903535  W2        26641           0.0000000000
     76464     25488  TIP3      H2             31.6952033595        3.6813477139       29.5721003535  W2        26641           0.0000000000
     76465     25489  TIP3      OH2            36.2740033595        2.2728577139       30.2880203535  W2        26642           0.0000000000
     76466     25489  TIP3      H1             36.8777633595        2.8203977139       29.7861203535  W2        26642           0.0000000000
     76467     25489  TIP3      H2             35.4042033595        2.5918977139       30.0474303535  W2        26642           0.0000000000
     76468     25490  TIP3      OH2            38.0010433595        3.4117277139       28.6211103535  W2        26643           0.0000000000
     76469     25490  TIP3      H1             38.6127933595        2.8972977139       28.0944703535  W2        26643           0.0000000000
     76470     25490  TIP3      H2             38.3833833595        4.2889377139       28.6445503535  W2        26643           0.0000000000
     76471     25491  TIP3      OH2            23.4580333595        2.7994877139       27.9973003535  W2        26644           0.0000000000
     76472     25491  TIP3      H1             22.6810133595        2.5649777139       27.4898903535  W2        26644           0.0000000000
     76473     25491  TIP3      H2             23.9883933595        2.0026977139       28.0061003535  W2        26644           0.0000000000
     76474     25492  TIP3      OH2            22.2943733595        2.5972977139       23.8009103535  W2        26645           0.0000000000
     76475     25492  TIP3      H1             22.7334433595        3.2083477139       23.2092603535  W2        26645           0.0000000000
     76476     25492  TIP3      H2             21.6606133595        3.1357077139       24.2749103535  W2        26645           0.0000000000
     76477     25493  TIP3      OH2            28.0372933595        2.7261977139       27.8106103535  W2        26646           0.0000000000
     76478     25493  TIP3      H1             28.9116333595        3.1146277139       27.7810403535  W2        26646           0.0000000000
     76479     25493  TIP3      H2             27.9013733595        2.5109777139       28.7333303535  W2        26646           0.0000000000
     76480     25494  TIP3      OH2            33.5941333595        2.7561777139       29.4597803535  W2        26647           0.0000000000
     76481     25494  TIP3      H1             33.6702933595        2.8513377139       28.5103803535  W2        26647           0.0000000000
     76482     25494  TIP3      H2             33.3190533595        1.8484677139       29.5886903535  W2        26647           0.0000000000
     76483     25495  TIP3      OH2            34.9473933595        2.7819577139       25.1522803535  W2        26648           0.0000000000
     76484     25495  TIP3      H1             34.2445033595        3.3968777139       24.9424203535  W2        26648           0.0000000000
     76485     25495  TIP3      H2             34.5025333595        1.9446277139       25.2833703535  W2        26648           0.0000000000
     76486     25496  TIP3      OH2            22.1953233595       18.5455177139       24.6984203535  W2        26649           0.0000000000
     76487     25496  TIP3      H1             21.5103133595       18.5074077139       24.0309303535  W2        26649           0.0000000000
     76488     25496  TIP3      H2             22.1990433595       19.4582777139       24.9866303535  W2        26649           0.0000000000
     76489     25497  TIP3      OH2            24.1552833595        4.5134477139       22.2433203535  W2        26650           0.0000000000
     76490     25497  TIP3      H1             24.6466233595        3.8836877139       21.7158703535  W2        26650           0.0000000000
     76491     25497  TIP3      H2             24.7789133595        4.8093877139       22.9064403535  W2        26650           0.0000000000
     76492     25498  TIP3      OH2            29.1812933595        4.8065977139       24.7003703535  W2        26651           0.0000000000
     76493     25498  TIP3      H1             29.3594233595        4.1599177139       25.3832303535  W2        26651           0.0000000000
     76494     25498  TIP3      H2             29.1279133595        5.6403677139       25.1674803535  W2        26651           0.0000000000
     76495     25499  TIP3      OH2            31.0596733595       19.7550077139       23.0960403535  W2        26652           0.0000000000
     76496     25499  TIP3      H1             31.9256933595       20.1217477139       22.9178603535  W2        26652           0.0000000000
     76497     25499  TIP3      H2             30.8129533595       19.3158077139       22.2821203535  W2        26652           0.0000000000
     76498     25500  TIP3      OH2            37.7686333595       19.3180377139       25.7751503535  W2        26653           0.0000000000
     76499     25500  TIP3      H1             37.5743433595       18.5702477139       25.2101103535  W2        26653           0.0000000000
     76500     25500  TIP3      H2             37.7296433595       20.0760477139       25.1919403535  W2        26653           0.0000000000
     76501     25501  TIP3      OH2            24.0134433595       19.4655977139       21.7236303535  W2        26656           0.0000000000
     76502     25501  TIP3      H1             23.7459033595       19.7518877139       22.5969403535  W2        26656           0.0000000000
     76503     25501  TIP3      H2             24.7847033595       18.9195177139       21.8758803535  W2        26656           0.0000000000
     76504     25502  TIP3      OH2            51.3922933595       11.9557177139       27.9560503535  W2        26659           0.0000000000
     76505     25502  TIP3      H1             51.4814033595       12.8995377139       27.8237603535  W2        26659           0.0000000000
     76506     25502  TIP3      H2             50.7540533595       11.6803577139       27.2979903535  W2        26659           0.0000000000
     76507     25503  TIP3      OH2            50.3254233595       11.2107877139       31.3748703535  W2        26660           0.0000000000
     76508     25503  TIP3      H1             50.2871733595       10.5644177139       32.0798303535  W2        26660           0.0000000000
     76509     25503  TIP3      H2             50.0030733595       10.7442277139       30.6037403535  W2        26660           0.0000000000
     76510     25504  TIP3      OH2            42.6939233595       10.8249977139       32.9678603535  W2        26661           0.0000000000
     76511     25504  TIP3      H1             42.7351333595       10.1993277139       33.6911003535  W2        26661           0.0000000000
     76512     25504  TIP3      H2             43.3966933595       11.4488577139       33.1499003535  W2        26661           0.0000000000
     76513     25505  TIP3      OH2            54.0314433595       14.1498277139       29.6763803535  W2        26662           0.0000000000
     76514     25505  TIP3      H1             53.5907133595       13.4294277139       30.1269403535  W2        26662           0.0000000000
     76515     25505  TIP3      H2             54.0184133595       14.8705477139       30.3061503535  W2        26662           0.0000000000
     76516     25506  TIP3      OH2            43.6172333595       15.2748877139       31.5027703535  W2        26663           0.0000000000
     76517     25506  TIP3      H1             43.2477533595       14.4729377139       31.1332003535  W2        26663           0.0000000000
     76518     25506  TIP3      H2             44.5583433595       15.1063777139       31.5491103535  W2        26663           0.0000000000
     76519     25507  TIP3      OH2            40.2272833595        8.9351477139       26.8956503535  W2        26664           0.0000000000
     76520     25507  TIP3      H1             39.7796233595        9.7810177139       26.8773003535  W2        26664           0.0000000000
     76521     25507  TIP3      H2             39.6664033595        8.3555677139       26.3801603535  W2        26664           0.0000000000
     76522     25508  TIP3      OH2            40.9378933595       11.0971077139       29.0214503535  W2        26665           0.0000000000
     76523     25508  TIP3      H1             41.1512433595       10.3272677139       29.5487503535  W2        26665           0.0000000000
     76524     25508  TIP3      H2             41.6756533595       11.1867777139       28.4182103535  W2        26665           0.0000000000
     76525     25509  TIP3      OH2            51.1429933595       19.2539977139       29.8884203535  W2        26666           0.0000000000
     76526     25509  TIP3      H1             51.7626333595       18.5774677139       29.6153403535  W2        26666           0.0000000000
     76527     25509  TIP3      H2             50.9347333595       19.0360777139       30.7969103535  W2        26666           0.0000000000
     76528     25510  TIP3      OH2            48.7148633595       13.6429277139       31.7809703535  W2        26667           0.0000000000
     76529     25510  TIP3      H1             49.0186533595       12.9570677139       31.1863803535  W2        26667           0.0000000000
     76530     25510  TIP3      H2             49.4362633595       13.7617977139       32.3987703535  W2        26667           0.0000000000
     76531     25511  TIP3      OH2            51.8555633595        8.0371677139       32.1084503535  W2        26668           0.0000000000
     76532     25511  TIP3      H1             51.9981533595        7.0908677139       32.1286103535  W2        26668           0.0000000000
     76533     25511  TIP3      H2             51.7494633595        8.2441477139       31.1799403535  W2        26668           0.0000000000
     76534     25512  TIP3      OH2            45.0103933595        6.1388077139       29.3809303535  W2        26669           0.0000000000
     76535     25512  TIP3      H1             45.0535033595        6.9986577139       28.9625603535  W2        26669           0.0000000000
     76536     25512  TIP3      H2             44.5528033595        5.5862777139       28.7472503535  W2        26669           0.0000000000
     76537     25513  TIP3      OH2            52.7326633595        6.2693677139       27.7817603535  W2        26670           0.0000000000
     76538     25513  TIP3      H1             53.3790933595        5.9406877139       28.4065203535  W2        26670           0.0000000000
     76539     25513  TIP3      H2             53.2426033595        6.7872677139       27.1589003535  W2        26670           0.0000000000
     76540     25514  TIP3      OH2            41.6305433595        8.5353877139       30.1430703535  W2        26671           0.0000000000
     76541     25514  TIP3      H1             42.2842033595        7.9855577139       30.5750803535  W2        26671           0.0000000000
     76542     25514  TIP3      H2             41.6544733595        8.2612877139       29.2262703535  W2        26671           0.0000000000
     76543     25515  TIP3      OH2            46.7869933595       10.0855177139       29.3582203535  W2        26672           0.0000000000
     76544     25515  TIP3      H1             47.4030933595        9.5590577139       29.8676203535  W2        26672           0.0000000000
     76545     25515  TIP3      H2             46.2008733595        9.4453877139       28.9545803535  W2        26672           0.0000000000
     76546     25516  TIP3      OH2            43.8205833595        5.0566477139       33.4550103535  W2        26673           0.0000000000
     76547     25516  TIP3      H1             43.6017533595        5.5867077139       32.6886103535  W2        26673           0.0000000000
     76548     25516  TIP3      H2             43.1526733595        5.2831977139       34.1021503535  W2        26673           0.0000000000
     76549     25517  TIP3      OH2            51.1895633595       14.5567577139       26.9989203535  W2        26674           0.0000000000
     76550     25517  TIP3      H1             50.8940733595       14.2339877139       26.1476103535  W2        26674           0.0000000000
     76551     25517  TIP3      H2             50.8653433595       15.4564277139       27.0401803535  W2        26674           0.0000000000
     76552     25518  TIP3      OH2            46.3897233595       12.7322177139       33.7423803535  W2        26675           0.0000000000
     76553     25518  TIP3      H1             45.6496333595       13.3303677139       33.8459003535  W2        26675           0.0000000000
     76554     25518  TIP3      H2             47.1036733595       13.2861777139       33.4267403535  W2        26675           0.0000000000
     76555     25519  TIP3      OH2            54.4965033595        5.5602977139       29.7623503535  W2        26676           0.0000000000
     76556     25519  TIP3      H1             54.2813033595        4.7946377139       30.2949503535  W2        26676           0.0000000000
     76557     25519  TIP3      H2             55.1522433595        6.0327577139       30.2752003535  W2        26676           0.0000000000
     76558     25520  TIP3      OH2            43.4143133595        6.9488277139       31.4072303535  W2        26677           0.0000000000
     76559     25520  TIP3      H1             44.0279433595        7.5815877139       31.7804703535  W2        26677           0.0000000000
     76560     25520  TIP3      H2             43.9263833595        6.4763277139       30.7509203535  W2        26677           0.0000000000
     76561     25521  TIP3      OH2            44.7971533595       14.6965177139       34.5295303535  W2        26678           0.0000000000
     76562     25521  TIP3      H1             44.7919133595       15.5758677139       34.1514603535  W2        26678           0.0000000000
     76563     25521  TIP3      H2             43.9435633595       14.6129277139       34.9545203535  W2        26678           0.0000000000
     76564     25522  TIP3      OH2            40.9182433595       14.3673077139       25.3114603535  W2        26679           0.0000000000
     76565     25522  TIP3      H1             40.6463333595       14.5964077139       24.4227503535  W2        26679           0.0000000000
     76566     25522  TIP3      H2             40.9638133595       15.2051877139       25.7719903535  W2        26679           0.0000000000
     76567     25523  TIP3      OH2            54.5432133595       15.9888977139       32.0243103535  W2        26680           0.0000000000
     76568     25523  TIP3      H1             53.6015833595       16.0472877139       32.1860003535  W2        26680           0.0000000000
     76569     25523  TIP3      H2             54.8198233595       16.8949477139       31.8872803535  W2        26680           0.0000000000
     76570     25524  TIP3      OH2            47.8470533595        2.3621577139       30.9075003535  W2        26681           0.0000000000
     76571     25524  TIP3      H1             47.7294733595        1.4137577139       30.8533303535  W2        26681           0.0000000000
     76572     25524  TIP3      H2             46.9920633595        2.6947677139       31.1806103535  W2        26681           0.0000000000
     76573     25525  TIP3      OH2            52.7953333595       17.7702477139       28.6494703535  W2        26682           0.0000000000
     76574     25525  TIP3      H1             53.2205633595       17.0630377139       28.1644303535  W2        26682           0.0000000000
     76575     25525  TIP3      H2             53.1123333595       18.5715177139       28.2326903535  W2        26682           0.0000000000
     76576     25526  TIP3      OH2            53.9549833595       15.6710977139       27.1581303535  W2        26683           0.0000000000
     76577     25526  TIP3      H1             53.6974633595       14.9811077139       26.5467203535  W2        26683           0.0000000000
     76578     25526  TIP3      H2             54.0260633595       15.2282177139       28.0037203535  W2        26683           0.0000000000
     76579     25527  TIP3      OH2            50.1135433595       11.1997177139       25.4080803535  W2        26684           0.0000000000
     76580     25527  TIP3      H1             49.4020933595       11.7346877139       25.0561303535  W2        26684           0.0000000000
     76581     25527  TIP3      H2             50.8045033595       11.2549277139       24.7479703535  W2        26684           0.0000000000
     76582     25528  TIP3      OH2            50.1674633595        9.6571477139       22.4465803535  W2        26685           0.0000000000
     76583     25528  TIP3      H1             50.8684533595        9.6798377139       23.0979803535  W2        26685           0.0000000000
     76584     25528  TIP3      H2             50.4697533595        9.0291177139       21.7905103535  W2        26685           0.0000000000
     76585     25529  TIP3      OH2            53.5193133595       11.4090477139       26.3596703535  W2        26686           0.0000000000
     76586     25529  TIP3      H1             52.7874133595       11.6374177139       26.9327303535  W2        26686           0.0000000000
     76587     25529  TIP3      H2             53.9665333595       10.6953177139       26.8144203535  W2        26686           0.0000000000
     76588     25530  TIP3      OH2            53.4166633595        9.5833077139       35.4273703535  W2        26687           0.0000000000
     76589     25530  TIP3      H1             53.4965733595       10.3467477139       35.9992203535  W2        26687           0.0000000000
     76590     25530  TIP3      H2             52.8154333595        9.8625477139       34.7368803535  W2        26687           0.0000000000
     76591     25531  TIP3      OH2            45.1646833595       12.0396677139       28.2421703535  W2        26688           0.0000000000
     76592     25531  TIP3      H1             44.8342033595       11.6690077139       27.4238703535  W2        26688           0.0000000000
     76593     25531  TIP3      H2             45.7530933595       11.3690677139       28.5890003535  W2        26688           0.0000000000
     76594     25532  TIP3      OH2            46.5314333595       15.4677277139       30.9233903535  W2        26689           0.0000000000
     76595     25532  TIP3      H1             46.4365633595       14.8890377139       30.1668503535  W2        26689           0.0000000000
     76596     25532  TIP3      H2             47.2607933595       15.0962977139       31.4196703535  W2        26689           0.0000000000
     76597     25533  TIP3      OH2            45.5312333595       10.8082277139       31.8756703535  W2        26690           0.0000000000
     76598     25533  TIP3      H1             46.0964833595       10.9296477139       31.1127903535  W2        26690           0.0000000000
     76599     25533  TIP3      H2             45.8501233595       11.4457277139       32.5145203535  W2        26690           0.0000000000
     76600     25534  TIP3      OH2            51.8404533595       16.3114177139       32.6097203535  W2        26691           0.0000000000
     76601     25534  TIP3      H1             51.6001133595       16.9737277139       33.2576403535  W2        26691           0.0000000000
     76602     25534  TIP3      H2             51.6422733595       15.4769377139       33.0346803535  W2        26691           0.0000000000
     76603     25535  TIP3      OH2            52.3902633595       10.5713377139       24.0447903535  W2        26693           0.0000000000
     76604     25535  TIP3      H1             52.9698133595       10.7213677139       24.7916803535  W2        26693           0.0000000000
     76605     25535  TIP3      H2             52.8042633595       11.0420777139       23.3214303535  W2        26693           0.0000000000
     76606     25536  TIP3      OH2            50.1167533595       17.3081877139       27.4801003535  W2        26695           0.0000000000
     76607     25536  TIP3      H1             50.5905133595       17.6038177139       28.2575203535  W2        26695           0.0000000000
     76608     25536  TIP3      H2             49.5536833595       18.0463477139       27.2470603535  W2        26695           0.0000000000
     76609     25537  TIP3      OH2            44.1549533595       11.1090977139       25.8314503535  W2        26697           0.0000000000
     76610     25537  TIP3      H1             43.8630833595       11.8772677139       25.3405803535  W2        26697           0.0000000000
     76611     25537  TIP3      H2             43.4804733595       10.4497177139       25.6685903535  W2        26697           0.0000000000
     76612     25538  TIP3      OH2            40.2479633595       13.4720177139       34.6464303535  W2        26698           0.0000000000
     76613     25538  TIP3      H1             39.7468033595       13.4439577139       33.8314003535  W2        26698           0.0000000000
     76614     25538  TIP3      H2             40.2533333595       12.5663377139       34.9561603535  W2        26698           0.0000000000
     76615     25539  TIP3      OH2            39.9982333595       16.2523977139       31.5304503535  W2        26699           0.0000000000
     76616     25539  TIP3      H1             40.9442933595       16.1080977139       31.5114003535  W2        26699           0.0000000000
     76617     25539  TIP3      H2             39.8858633595       17.0366777139       32.0675703535  W2        26699           0.0000000000
     76618     25540  TIP3      OH2            49.5890633595       20.2646577139       25.8950203535  W2        26701           0.0000000000
     76619     25540  TIP3      H1             49.5136633595       20.1433777139       24.9485403535  W2        26701           0.0000000000
     76620     25540  TIP3      H2             49.6219333595       21.2139277139       26.0134803535  W2        26701           0.0000000000
     76621     25541  TIP3      OH2            43.2424433595       19.0533577139       27.6759203535  W2        26702           0.0000000000
     76622     25541  TIP3      H1             43.3944833595       18.7053977139       28.5545703535  W2        26702           0.0000000000
     76623     25541  TIP3      H2             42.3914833595       18.6970877139       27.4206403535  W2        26702           0.0000000000
     76624     25542  TIP3      OH2            52.6906633595       19.4186777139       22.8972603535  W2        26703           0.0000000000
     76625     25542  TIP3      H1             53.0655033595       18.6742877139       22.4265203535  W2        26703           0.0000000000
     76626     25542  TIP3      H2             52.6950333595       19.1487377139       23.8155903535  W2        26703           0.0000000000
     76627     25543  TIP3      OH2            52.3594733595       19.3443877139       25.6464803535  W2        26704           0.0000000000
     76628     25543  TIP3      H1             51.4244533595       19.4445777139       25.8251803535  W2        26704           0.0000000000
     76629     25543  TIP3      H2             52.6396633595       18.6349877139       26.2248003535  W2        26704           0.0000000000
     76630     25544  TIP3      OH2            45.1158133595        3.2656077139       31.6851303535  W2        26706           0.0000000000
     76631     25544  TIP3      H1             44.2541833595        3.1784277139       31.2774203535  W2        26706           0.0000000000
     76632     25544  TIP3      H2             45.0933833595        4.1216177139       32.1128903535  W2        26706           0.0000000000
     76633     25545  TIP3      OH2            49.7785933595        2.9876477139       35.0598303535  W2        26707           0.0000000000
     76634     25545  TIP3      H1             50.1989033595        2.5723577139       35.8128903535  W2        26707           0.0000000000
     76635     25545  TIP3      H2             48.8455533595        2.8089777139       35.1770303535  W2        26707           0.0000000000
     76636     25546  TIP3      OH2            53.8675733595       11.6041677139       21.6745803535  W2        26709           0.0000000000
     76637     25546  TIP3      H1             53.9096533595       11.3815577139       20.7445803535  W2        26709           0.0000000000
     76638     25546  TIP3      H2             54.7167833595       12.0028777139       21.8645703535  W2        26709           0.0000000000
     76639     25547  TIP3      OH2            49.4403233595        5.4799877139       22.3449103535  W2        26710           0.0000000000
     76640     25547  TIP3      H1             49.1868033595        5.4991477139       23.2677203535  W2        26710           0.0000000000
     76641     25547  TIP3      H2             49.1835333595        4.6085277139       22.0435303535  W2        26710           0.0000000000
     76642     25548  TIP3      OH2            45.2068233595        8.2310577139       32.7801503535  W2        26711           0.0000000000
     76643     25548  TIP3      H1             44.5650333595        8.1907877139       33.4891603535  W2        26711           0.0000000000
     76644     25548  TIP3      H2             45.2440233595        9.1575277139       32.5424503535  W2        26711           0.0000000000
     76645     25549  TIP3      OH2            45.2037333595        8.4520677139       27.6921503535  W2        26712           0.0000000000
     76646     25549  TIP3      H1             44.3110233595        8.1116777139       27.6335303535  W2        26712           0.0000000000
     76647     25549  TIP3      H2             45.6543933595        8.0751577139       26.9364703535  W2        26712           0.0000000000
     76648     25550  TIP3      OH2            50.7392833595        8.8680977139       26.5092303535  W2        26713           0.0000000000
     76649     25550  TIP3      H1             50.3303133595        9.6829577139       26.2177103535  W2        26713           0.0000000000
     76650     25550  TIP3      H2             51.4599033595        8.7281077139       25.8949403535  W2        26713           0.0000000000
     76651     25551  TIP3      OH2            51.7440533595        8.3141377139       29.3232003535  W2        26715           0.0000000000
     76652     25551  TIP3      H1             51.5485033595        8.9198177139       28.6082603535  W2        26715           0.0000000000
     76653     25551  TIP3      H2             51.9253133595        7.4806577139       28.8888303535  W2        26715           0.0000000000
     76654     25552  TIP3      OH2            42.9568733595        8.5514077139       34.6473503535  W2        26716           0.0000000000
     76655     25552  TIP3      H1             42.9188133595        8.9515677139       35.5160603535  W2        26716           0.0000000000
     76656     25552  TIP3      H2             42.4659833595        7.7346477139       34.7376403535  W2        26716           0.0000000000
     76657     25553  TIP3      OH2            46.3226133595        5.9256377139       21.4459503535  W2        26717           0.0000000000
     76658     25553  TIP3      H1             45.8916833595        5.4806477139       22.1756903535  W2        26717           0.0000000000
     76659     25553  TIP3      H2             45.6044833595        6.2972677139       20.9337003535  W2        26717           0.0000000000
     76660     25554  TIP3      OH2            39.5649533595        5.6675877139       28.4978203535  W2        26718           0.0000000000
     76661     25554  TIP3      H1             40.1957233595        5.6387977139       29.2172103535  W2        26718           0.0000000000
     76662     25554  TIP3      H2             40.0143833595        5.2424577139       27.7674103535  W2        26718           0.0000000000
     76663     25555  TIP3      OH2            40.8391633595        6.4137877139       23.9218603535  W2        26719           0.0000000000
     76664     25555  TIP3      H1             41.3133333595        7.0047777139       23.3369503535  W2        26719           0.0000000000
     76665     25555  TIP3      H2             40.1218033595        6.9440777139       24.2688703535  W2        26719           0.0000000000
     76666     25556  TIP3      OH2            51.0079733595        9.9522677139       33.9944403535  W2        26720           0.0000000000
     76667     25556  TIP3      H1             51.3314533595        9.3212377139       33.3514903535  W2        26720           0.0000000000
     76668     25556  TIP3      H2             50.5679033595        9.4174877139       34.6551803535  W2        26720           0.0000000000
     76669     25557  TIP3      OH2            47.7852633595        5.8798177139       28.7785603535  W2        26721           0.0000000000
     76670     25557  TIP3      H1             46.8743733595        5.9364977139       29.0671603535  W2        26721           0.0000000000
     76671     25557  TIP3      H2             48.2905533595        5.8193677139       29.5892803535  W2        26721           0.0000000000
     76672     25558  TIP3      OH2            42.6136033595        7.5084477139       27.6053203535  W2        26722           0.0000000000
     76673     25558  TIP3      H1             41.7244033595        7.6079977139       27.2652803535  W2        26722           0.0000000000
     76674     25558  TIP3      H2             42.9100933595        6.6667477139       27.2591103535  W2        26722           0.0000000000
     76675     25559  TIP3      OH2            46.2667833595        7.5087077139       25.2617803535  W2        26723           0.0000000000
     76676     25559  TIP3      H1             47.1983333595        7.6377077139       25.4400903535  W2        26723           0.0000000000
     76677     25559  TIP3      H2             46.0518133595        8.1781377139       24.6122503535  W2        26723           0.0000000000
     76678     25560  TIP3      OH2            52.1904533595        5.1144477139       32.0427403535  W2        26724           0.0000000000
     76679     25560  TIP3      H1             51.5136133595        5.2457577139       32.7067103535  W2        26724           0.0000000000
     76680     25560  TIP3      H2             51.7049433595        4.9593977139       31.2325103535  W2        26724           0.0000000000
     76681     25561  TIP3      OH2            44.9408033595        8.7029277139       22.8283903535  W2        26725           0.0000000000
     76682     25561  TIP3      H1             44.3983133595        8.3233077139       22.1371503535  W2        26725           0.0000000000
     76683     25561  TIP3      H2             45.7742933595        8.8973977139       22.3998003535  W2        26725           0.0000000000
     76684     25562  TIP3      OH2            49.1052333595        8.6671177139       30.6655203535  W2        26727           0.0000000000
     76685     25562  TIP3      H1             49.6695733595        8.1207777139       30.1184803535  W2        26727           0.0000000000
     76686     25562  TIP3      H2             48.9575733595        8.1453077139       31.4542803535  W2        26727           0.0000000000
     76687     25563  TIP3      OH2            44.1072033595        4.8037277139       27.0840003535  W2        26728           0.0000000000
     76688     25563  TIP3      H1             43.7901533595        3.9012577139       27.0485403535  W2        26728           0.0000000000
     76689     25563  TIP3      H2             44.8886133595        4.8054677139       26.5311603535  W2        26728           0.0000000000
     76690     25564  TIP3      OH2            47.7318233595        7.0557277139       33.0795603535  W2        26729           0.0000000000
     76691     25564  TIP3      H1             46.8963533595        7.5096777139       33.1898003535  W2        26729           0.0000000000
     76692     25564  TIP3      H2             48.2558833595        7.3315777139       33.8315503535  W2        26729           0.0000000000
     76693     25565  TIP3      OH2            48.2760833595       13.2684977139       24.7642003535  W2        26730           0.0000000000
     76694     25565  TIP3      H1             47.5311833595       12.7610277139       24.4419903535  W2        26730           0.0000000000
     76695     25565  TIP3      H2             48.1418033595       13.3172977139       25.7106803535  W2        26730           0.0000000000
     76696     25566  TIP3      OH2            52.1737633595        6.0824877139       22.9634603535  W2        26731           0.0000000000
     76697     25566  TIP3      H1             51.2351833595        6.1940477139       22.8123403535  W2        26731           0.0000000000
     76698     25566  TIP3      H2             52.4709733595        6.9391777139       23.2700303535  W2        26731           0.0000000000
     76699     25567  TIP3      OH2            52.8921133595        7.9497577139       24.6242003535  W2        26733           0.0000000000
     76700     25567  TIP3      H1             53.7840133595        7.8122577139       24.9433203535  W2        26733           0.0000000000
     76701     25567  TIP3      H2             52.9484733595        8.7403677139       24.0875503535  W2        26733           0.0000000000
     76702     25568  TIP3      OH2            43.4009133595       12.5634977139       30.5339903535  W2        26734           0.0000000000
     76703     25568  TIP3      H1             44.1456333595       12.5610677139       29.9326403535  W2        26734           0.0000000000
     76704     25568  TIP3      H2             43.4785733595       11.7398777139       31.0155003535  W2        26734           0.0000000000
     76705     25569  TIP3      OH2            50.4014933595       14.7269277139       23.7896603535  W2        26735           0.0000000000
     76706     25569  TIP3      H1             50.1063333595       15.5537177139       24.1711403535  W2        26735           0.0000000000
     76707     25569  TIP3      H2             49.6984933595       14.1076177139       23.9858003535  W2        26735           0.0000000000
     76708     25570  TIP3      OH2            53.2325433595       11.7531577139       31.8052703535  W2        26739           0.0000000000
     76709     25570  TIP3      H1             52.3042333595       11.5213477139       31.7782003535  W2        26739           0.0000000000
     76710     25570  TIP3      H2             53.6836533595       10.9761377139       31.4751503535  W2        26739           0.0000000000
     76711     25571  TIP3      OH2            45.7758533595       16.0813177139       27.9381403535  W2        26740           0.0000000000
     76712     25571  TIP3      H1             46.3030733595       16.8547577139       27.7380203535  W2        26740           0.0000000000
     76713     25571  TIP3      H2             44.8957033595       16.3062377139       27.6365403535  W2        26740           0.0000000000
     76714     25572  TIP3      OH2            41.5306233595       10.9437277139       22.5253803535  W2        26741           0.0000000000
     76715     25572  TIP3      H1             42.1466133595       11.5704477139       22.9048603535  W2        26741           0.0000000000
     76716     25572  TIP3      H2             40.6688833595       11.2597077139       22.7970303535  W2        26741           0.0000000000
     76717     25573  TIP3      OH2            47.2030833595       13.7443077139       27.5145703535  W2        26742           0.0000000000
     76718     25573  TIP3      H1             46.9620833595       14.6697477139       27.5561003535  W2        26742           0.0000000000
     76719     25573  TIP3      H2             46.4624433595       13.2854377139       27.9109603535  W2        26742           0.0000000000
     76720     25574  TIP3      OH2            47.7177433595       17.8936677139       33.8296803535  W2        26743           0.0000000000
     76721     25574  TIP3      H1             48.0802133595       18.7482277139       33.5961203535  W2        26743           0.0000000000
     76722     25574  TIP3      H2             48.2492633595       17.6018277139       34.5703103535  W2        26743           0.0000000000
     76723     25575  TIP3      OH2            45.8861633595       18.7660677139       27.0597903535  W2        26744           0.0000000000
     76724     25575  TIP3      H1             44.9362133595       18.8718077139       27.1111203535  W2        26744           0.0000000000
     76725     25575  TIP3      H2             46.2379733595       19.5868077139       27.4045403535  W2        26744           0.0000000000
     76726     25576  TIP3      OH2            51.2618233595       13.9927377139       33.5302403535  W2        26745           0.0000000000
     76727     25576  TIP3      H1             50.8359533595       13.7649077139       34.3566403535  W2        26745           0.0000000000
     76728     25576  TIP3      H2             51.8424033595       13.2539177139       33.3477703535  W2        26745           0.0000000000
     76729     25577  TIP3      OH2            53.4647133595       14.9217877139       22.6041403535  W2        26746           0.0000000000
     76730     25577  TIP3      H1             53.8180233595       14.5417677139       23.4084903535  W2        26746           0.0000000000
     76731     25577  TIP3      H2             52.5160633595       14.8282677139       22.6910703535  W2        26746           0.0000000000
     76732     25578  TIP3      OH2            42.0428333595        5.7774577139       35.4069803535  W2        26748           0.0000000000
     76733     25578  TIP3      H1             41.1500633595        6.1159977139       35.3393803535  W2        26748           0.0000000000
     76734     25578  TIP3      H2             41.9441133595        4.9220677139       35.8250603535  W2        26748           0.0000000000
     76735     25579  TIP3      OH2            54.3306433595       13.5939877139       24.8309303535  W2        26749           0.0000000000
     76736     25579  TIP3      H1             54.0534033595       12.8659177139       25.3870403535  W2        26749           0.0000000000
     76737     25579  TIP3      H2             55.2579433595       13.7131877139       25.0361903535  W2        26749           0.0000000000
     76738     25580  TIP3      OH2            41.6940333595       17.5818977139       33.8419203535  W2        26750           0.0000000000
     76739     25580  TIP3      H1             41.9110633595       16.6501377139       33.8108903535  W2        26750           0.0000000000
     76740     25580  TIP3      H2             41.9403833595       17.8563977139       34.7252003535  W2        26750           0.0000000000
     76741     25581  TIP3      OH2            47.5554933595       16.0333977139       21.0511403535  W2        26751           0.0000000000
     76742     25581  TIP3      H1             47.7944733595       15.2852077139       20.5040303535  W2        26751           0.0000000000
     76743     25581  TIP3      H2             47.2866233595       15.6455677139       21.8839203535  W2        26751           0.0000000000
     76744     25582  TIP3      OH2            46.4925533595       15.6037777139       23.5074003535  W2        26752           0.0000000000
     76745     25582  TIP3      H1             46.6393533595       15.0837577139       24.2974903535  W2        26752           0.0000000000
     76746     25582  TIP3      H2             46.4897233595       16.5105377139       23.8139903535  W2        26752           0.0000000000
     76747     25583  TIP3      OH2            42.9456633595       12.8561077139       24.0179403535  W2        26753           0.0000000000
     76748     25583  TIP3      H1             42.2595933595       13.2083577139       24.5849103535  W2        26753           0.0000000000
     76749     25583  TIP3      H2             43.4684533595       13.6190677139       23.7713703535  W2        26753           0.0000000000
     76750     25584  TIP3      OH2            50.7771733595        5.5184877139       34.2968403535  W2        26754           0.0000000000
     76751     25584  TIP3      H1             51.4759633595        5.5923577139       34.9468103535  W2        26754           0.0000000000
     76752     25584  TIP3      H2             50.3963133595        4.6539877139       34.4511303535  W2        26754           0.0000000000
     76753     25585  TIP3      OH2            51.5616633595        5.1706577139       25.3940703535  W2        26755           0.0000000000
     76754     25585  TIP3      H1             51.7814933595        5.6421977139       24.5906103535  W2        26755           0.0000000000
     76755     25585  TIP3      H2             52.1200633595        5.5649177139       26.0641303535  W2        26755           0.0000000000
     76756     25586  TIP3      OH2            49.2302733595       17.3011377139       24.2568203535  W2        26756           0.0000000000
     76757     25586  TIP3      H1             48.4138833595       17.7981077139       24.3092503535  W2        26756           0.0000000000
     76758     25586  TIP3      H2             49.7599033595       17.7764877139       23.6167003535  W2        26756           0.0000000000
     76759     25587  TIP3      OH2            48.7616533595        6.8985377139       26.2289103535  W2        26757           0.0000000000
     76760     25587  TIP3      H1             49.5739133595        7.4028577139       26.2750803535  W2        26757           0.0000000000
     76761     25587  TIP3      H2             48.5169533595        6.7535077139       27.1428703535  W2        26757           0.0000000000
     76762     25588  TIP3      OH2            49.2972933595        7.8848077139       35.4135703535  W2        26758           0.0000000000
     76763     25588  TIP3      H1             49.4163233595        8.4583477139       36.1706103535  W2        26758           0.0000000000
     76764     25588  TIP3      H2             49.9527533595        7.1967477139       35.5283503535  W2        26758           0.0000000000
     76765     25589  TIP3      OH2            49.6453233595        3.9798377139       27.1670203535  W2        26759           0.0000000000
     76766     25589  TIP3      H1             49.2986733595        4.5968977139       27.8114503535  W2        26759           0.0000000000
     76767     25589  TIP3      H2             50.3040133595        4.4804077139       26.6855703535  W2        26759           0.0000000000
     76768     25590  TIP3      OH2            46.5685833595       18.3448577139       24.2385103535  W2        26760           0.0000000000
     76769     25590  TIP3      H1             46.7294533595       19.1446077139       23.7377703535  W2        26760           0.0000000000
     76770     25590  TIP3      H2             46.3713633595       18.6514577139       25.1235703535  W2        26760           0.0000000000
     76771     25591  TIP3      OH2            45.3030233595        5.0427777139       23.8542703535  W2        26761           0.0000000000
     76772     25591  TIP3      H1             45.2195033595        5.9310877139       24.2009103535  W2        26761           0.0000000000
     76773     25591  TIP3      H2             46.1930533595        4.7774477139       24.0859503535  W2        26761           0.0000000000
     76774     25592  TIP3      OH2            54.1039733595        9.5419377139       30.3442703535  W2        26762           0.0000000000
     76775     25592  TIP3      H1             53.3064133595        9.1269577139       30.0157703535  W2        26762           0.0000000000
     76776     25592  TIP3      H2             54.5490833595        8.8513077139       30.8353203535  W2        26762           0.0000000000
     76777     25593  TIP3      OH2            43.5615533595       15.4699977139       22.9147203535  W2        26763           0.0000000000
     76778     25593  TIP3      H1             44.1537033595       16.1694777139       23.1909603535  W2        26763           0.0000000000
     76779     25593  TIP3      H2             44.0208533595       15.0369477139       22.1951803535  W2        26763           0.0000000000
     76780     25594  TIP3      OH2            41.8774733595        8.1342977139       22.0306603535  W2        26764           0.0000000000
     76781     25594  TIP3      H1             41.8327333595        9.0736077139       22.2093603535  W2        26764           0.0000000000
     76782     25594  TIP3      H2             40.9897933595        7.8987877139       21.7608703535  W2        26764           0.0000000000
     76783     25595  TIP3      OH2            42.6856733595        2.9159577139       30.7037603535  W2        26765           0.0000000000
     76784     25595  TIP3      H1             42.4566533595        2.9752077139       29.7762603535  W2        26765           0.0000000000
     76785     25595  TIP3      H2             42.2430133595        2.1245077139       31.0101703535  W2        26765           0.0000000000
     76786     25596  TIP3      OH2            41.6160033595       16.8566677139       26.8643403535  W2        26766           0.0000000000
     76787     25596  TIP3      H1             40.7838633595       17.3289377139       26.8914803535  W2        26766           0.0000000000
     76788     25596  TIP3      H2             42.1618333595       17.3664277139       26.2656503535  W2        26766           0.0000000000
     76789     25597  TIP3      OH2            49.5936733595       17.8965377139       21.1897403535  W2        26769           0.0000000000
     76790     25597  TIP3      H1             48.9497733595       17.2653977139       21.5111103535  W2        26769           0.0000000000
     76791     25597  TIP3      H2             50.3555033595       17.3653377139       20.9580903535  W2        26769           0.0000000000
     76792     25598  TIP3      OH2            54.1979633595       17.7135277139       21.4235403535  W2        26771           0.0000000000
     76793     25598  TIP3      H1             54.4810033595       16.9190477139       21.8762303535  W2        26771           0.0000000000
     76794     25598  TIP3      H2             54.9377533595       17.9466277139       20.8626503535  W2        26771           0.0000000000
     76795     25599  TIP3      OH2            45.1526933595       13.6230177139       21.2810303535  W2        26773           0.0000000000
     76796     25599  TIP3      H1             45.2171033595       12.8289777139       21.8116703535  W2        26773           0.0000000000
     76797     25599  TIP3      H2             45.8056133595       13.5042977139       20.5912303535  W2        26773           0.0000000000
     76798     25600  TIP3      OH2            50.5050333595       14.6701877139       21.0168303535  W2        26775           0.0000000000
     76799     25600  TIP3      H1             50.2364433595       14.8503977139       21.9177203535  W2        26775           0.0000000000
     76800     25600  TIP3      H2             50.2985933595       13.7448077139       20.8854103535  W2        26775           0.0000000000
     76801     25601  TIP3      OH2            46.3020733595       11.5956377139       23.5868303535  W2        26778           0.0000000000
     76802     25601  TIP3      H1             45.8422733595       11.1114677139       24.2726803535  W2        26778           0.0000000000
     76803     25601  TIP3      H2             46.5569433595       10.9271777139       22.9508803535  W2        26778           0.0000000000
     76804     25602  TIP3      OH2            47.3731133595        9.8388177139       21.8491503535  W2        26780           0.0000000000
     76805     25602  TIP3      H1             47.1926133595        9.6839377139       20.9219803535  W2        26780           0.0000000000
     76806     25602  TIP3      H2             48.3231633595        9.9466877139       21.8939403535  W2        26780           0.0000000000
     76807     25603  TIP3      OH2            46.3429433595        5.2130077139       34.5178403535  W2        26783           0.0000000000
     76808     25603  TIP3      H1             46.8786933595        5.6646777139       33.8657703535  W2        26783           0.0000000000
     76809     25603  TIP3      H2             45.4909033595        5.1049877139       34.0952503535  W2        26783           0.0000000000
     76810     25604  TIP3      OH2            47.9247833595       10.6526277139       34.7573603535  W2        26784           0.0000000000
     76811     25604  TIP3      H1             48.6752633595       10.4963777139       34.1841403535  W2        26784           0.0000000000
     76812     25604  TIP3      H2             47.5856133595       11.5042877139       34.4819103535  W2        26784           0.0000000000
     76813     25605  TIP3      OH2            47.1484933595        2.6695777139       34.9492003535  W2        26788           0.0000000000
     76814     25605  TIP3      H1             47.0504533595        3.6158977139       34.8438203535  W2        26788           0.0000000000
     76815     25605  TIP3      H2             46.4061133595        2.2969577139       34.4735503535  W2        26788           0.0000000000
     76816     25606  TIP3      OH2            47.2702833595       20.5291877139       22.8505103535  W2        26795           0.0000000000
     76817     25606  TIP3      H1             48.2033533595       20.6870577139       22.9943503535  W2        26795           0.0000000000
     76818     25606  TIP3      H2             47.0061633595       21.2044877139       22.2256603535  W2        26795           0.0000000000
     76819     25607  TIP3      OH2            40.8387733595       15.1655677139       22.3333203535  W2        26796           0.0000000000
     76820     25607  TIP3      H1             41.7526933595       15.2444577139       22.6067103535  W2        26796           0.0000000000
     76821     25607  TIP3      H2             40.8460833595       14.4785277139       21.6668803535  W2        26796           0.0000000000
     76822     25608  TIP3      OH2            39.4878333595       20.5584177139       27.4107103535  W2        26797           0.0000000000
     76823     25608  TIP3      H1             38.8405433595       20.0965877139       26.8778303535  W2        26797           0.0000000000
     76824     25608  TIP3      H2             39.8422933595       19.8867477139       27.9933303535  W2        26797           0.0000000000
     76825     25609  TIP3      OH2            40.3577533595       18.6391177139       29.2153303535  W2        26798           0.0000000000
     76826     25609  TIP3      H1             40.0234333595       17.7588477139       29.3873503535  W2        26798           0.0000000000
     76827     25609  TIP3      H2             40.5799933595       18.9846177139       30.0798903535  W2        26798           0.0000000000
     76828     25610  TIP3      OH2            40.4377033595       11.7146577139       31.6668203535  W2        26799           0.0000000000
     76829     25610  TIP3      H1             40.6219933595       11.6328277139       30.7311103535  W2        26799           0.0000000000
     76830     25610  TIP3      H2             41.2869933595       11.5903577139       32.0904603535  W2        26799           0.0000000000
     76831     25611  TIP3      OH2            41.2564333595        5.2973177139       30.6989903535  W2        26801           0.0000000000
     76832     25611  TIP3      H1             41.7015933595        4.5055677139       31.0009603535  W2        26801           0.0000000000
     76833     25611  TIP3      H2             41.7227333595        6.0138377139       31.1295503535  W2        26801           0.0000000000
     76834     25612  TIP3      OH2            39.5604633595        8.2966177139       31.7680103535  W2        26802           0.0000000000
     76835     25612  TIP3      H1             40.0524433595        8.0756677139       30.9772103535  W2        26802           0.0000000000
     76836     25612  TIP3      H2             39.9225533595        9.1369577139       32.0489603535  W2        26802           0.0000000000
     76837     25613  TIP3      OH2            39.8741133595        4.5545277139       25.8222503535  W2        26803           0.0000000000
     76838     25613  TIP3      H1             38.9489533595        4.7631877139       25.6928003535  W2        26803           0.0000000000
     76839     25613  TIP3      H2             40.3281033595        5.0386077139       25.1324803535  W2        26803           0.0000000000
     76840     25614  TIP3      OH2            54.6448333595       19.5386977139       27.7679903535  W2        26804           0.0000000000
     76841     25614  TIP3      H1             55.2971233595       19.1909077139       27.1599003535  W2        26804           0.0000000000
     76842     25614  TIP3      H2             55.1552133595       20.0270177139       28.4139603535  W2        26804           0.0000000000
     76843     25615  TIP3      OH2            39.8376533595        3.2924277139       34.1665003535  W2        26805           0.0000000000
     76844     25615  TIP3      H1             39.1727033595        3.0464577139       34.8095903535  W2        26805           0.0000000000
     76845     25615  TIP3      H2             39.3947833595        3.9144677139       33.5893003535  W2        26805           0.0000000000
     76846     25616  TIP3      OH2            44.9838733595       17.4419577139       34.5694803535  W2        26807           0.0000000000
     76847     25616  TIP3      H1             44.5589833595       18.2518077139       34.2869403535  W2        26807           0.0000000000
     76848     25616  TIP3      H2             45.8881533595       17.5273677139       34.2674603535  W2        26807           0.0000000000
     76849     25617  TIP3      OH2            42.3855433595       20.6983477139       34.6170103535  W2        26810           0.0000000000
     76850     25617  TIP3      H1             41.6651833595       21.1384477139       34.1657803535  W2        26810           0.0000000000
     76851     25617  TIP3      H2             42.0199433595       20.4478177139       35.4654103535  W2        26810           0.0000000000
     76852     25618  TIP3      OH2            44.8528033595       20.2987377139       33.6467303535  W2        26811           0.0000000000
     76853     25618  TIP3      H1             43.9880233595       20.3705877139       34.0507403535  W2        26811           0.0000000000
     76854     25618  TIP3      H2             44.7977033595       20.8454677139       32.8629803535  W2        26811           0.0000000000
     76855     25619  TIP3      OH2            49.5633633595       20.1866277139       32.8223303535  W2        26812           0.0000000000
     76856     25619  TIP3      H1             49.1067633595       20.7155977139       32.1681703535  W2        26812           0.0000000000
     76857     25619  TIP3      H2             49.7261633595       20.7897677139       33.5475603535  W2        26812           0.0000000000
     76858     25620  TIP3      OH2            51.8909933595       19.0645877139       33.7673603535  W2        26813           0.0000000000
     76859     25620  TIP3      H1             50.9863633595       19.2296077139       33.5015703535  W2        26813           0.0000000000
     76860     25620  TIP3      H2             52.3198533595       19.9178077139       33.7017003535  W2        26813           0.0000000000
     76861     25621  TIP3      OH2            54.4951833595       20.6344977139       34.0621403535  W2        26814           0.0000000000
     76862     25621  TIP3      H1             54.3133833595       21.5503877139       33.8516303535  W2        26814           0.0000000000
     76863     25621  TIP3      H2             54.6719633595       20.2242077139       33.2156003535  W2        26814           0.0000000000
     76864     25622  TIP3      OH2            41.8003533595       19.3215977139       31.5271903535  W2        26815           0.0000000000
     76865     25622  TIP3      H1             41.7819533595       18.8961077139       32.3844203535  W2        26815           0.0000000000
     76866     25622  TIP3      H2             42.6051433595       19.0030977139       31.1184103535  W2        26815           0.0000000000
     76867     25623  TIP3      OH2            43.9416633595       18.0314677139       30.1821803535  W2        26816           0.0000000000
     76868     25623  TIP3      H1             43.7227333595       17.1152077139       30.3517803535  W2        26816           0.0000000000
     76869     25623  TIP3      H2             44.7658833595       18.1715077139       30.6483203535  W2        26816           0.0000000000
     76870     25624  TIP3      OH2            46.4789133595       18.5013977139       31.0309803535  W2        26817           0.0000000000
     76871     25624  TIP3      H1             46.6914833595       17.6132977139       30.7440703535  W2        26817           0.0000000000
     76872     25624  TIP3      H2             46.5434233595       18.4671677139       31.9853803535  W2        26817           0.0000000000
     76873     25625  TIP3      OH2            49.9872833595        4.1654577139       30.1753103535  W2        26818           0.0000000000
     76874     25625  TIP3      H1             49.3129633595        3.5360177139       30.4308903535  W2        26818           0.0000000000
     76875     25625  TIP3      H2             50.5512033595        3.6813477139       29.5721003535  W2        26818           0.0000000000
     76876     25626  TIP3      OH2            42.3140333595        2.7994877139       27.9973003535  W2        26819           0.0000000000
     76877     25626  TIP3      H1             41.5370133595        2.5649777139       27.4898903535  W2        26819           0.0000000000
     76878     25626  TIP3      H2             42.8443933595        2.0026977139       28.0061003535  W2        26819           0.0000000000
     76879     25627  TIP3      OH2            41.1503733595        2.5972977139       23.8009103535  W2        26820           0.0000000000
     76880     25627  TIP3      H1             41.5894433595        3.2083477139       23.2092603535  W2        26820           0.0000000000
     76881     25627  TIP3      H2             40.5166133595        3.1357077139       24.2749103535  W2        26820           0.0000000000
     76882     25628  TIP3      OH2            46.8932933595        2.7261977139       27.8106103535  W2        26821           0.0000000000
     76883     25628  TIP3      H1             47.7676333595        3.1146277139       27.7810403535  W2        26821           0.0000000000
     76884     25628  TIP3      H2             46.7573733595        2.5109777139       28.7333303535  W2        26821           0.0000000000
     76885     25629  TIP3      OH2            52.4501333595        2.7561777139       29.4597803535  W2        26822           0.0000000000
     76886     25629  TIP3      H1             52.5262933595        2.8513377139       28.5103803535  W2        26822           0.0000000000
     76887     25629  TIP3      H2             52.1750533595        1.8484677139       29.5886903535  W2        26822           0.0000000000
     76888     25630  TIP3      OH2            53.8033933595        2.7819577139       25.1522803535  W2        26823           0.0000000000
     76889     25630  TIP3      H1             53.1005033595        3.3968777139       24.9424203535  W2        26823           0.0000000000
     76890     25630  TIP3      H2             53.3585333595        1.9446277139       25.2833703535  W2        26823           0.0000000000
     76891     25631  TIP3      OH2            41.0513233595       18.5455177139       24.6984203535  W2        26824           0.0000000000
     76892     25631  TIP3      H1             40.3663133595       18.5074077139       24.0309303535  W2        26824           0.0000000000
     76893     25631  TIP3      H2             41.0550433595       19.4582777139       24.9866303535  W2        26824           0.0000000000
     76894     25632  TIP3      OH2            43.0112833595        4.5134477139       22.2433203535  W2        26825           0.0000000000
     76895     25632  TIP3      H1             43.5026233595        3.8836877139       21.7158703535  W2        26825           0.0000000000
     76896     25632  TIP3      H2             43.6349133595        4.8093877139       22.9064403535  W2        26825           0.0000000000
     76897     25633  TIP3      OH2            48.0372933595        4.8065977139       24.7003703535  W2        26826           0.0000000000
     76898     25633  TIP3      H1             48.2154233595        4.1599177139       25.3832303535  W2        26826           0.0000000000
     76899     25633  TIP3      H2             47.9839133595        5.6403677139       25.1674803535  W2        26826           0.0000000000
     76900     25634  TIP3      OH2            49.9156733595       19.7550077139       23.0960403535  W2        26827           0.0000000000
     76901     25634  TIP3      H1             50.7816933595       20.1217477139       22.9178603535  W2        26827           0.0000000000
     76902     25634  TIP3      H2             49.6689533595       19.3158077139       22.2821203535  W2        26827           0.0000000000
     76903     25635  TIP3      OH2            42.8694433595       19.4655977139       21.7236303535  W2        26830           0.0000000000
     76904     25635  TIP3      H1             42.6019033595       19.7518877139       22.5969403535  W2        26830           0.0000000000
     76905     25635  TIP3      H2             43.6407033595       18.9195177139       21.8758803535  W2        26830           0.0000000000
     76906     25636  TIP3      OH2           -42.8877066405       30.8117177139       27.9560503535  W2        26832           0.0000000000
     76907     25636  TIP3      H1            -42.7985966405       31.7555377139       27.8237603535  W2        26832           0.0000000000
     76908     25636  TIP3      H2            -43.5259466405       30.5363577139       27.2979903535  W2        26832           0.0000000000
     76909     25637  TIP3      OH2           -43.9545766405       30.0667877139       31.3748703535  W2        26833           0.0000000000
     76910     25637  TIP3      H1            -43.9928266405       29.4204177139       32.0798303535  W2        26833           0.0000000000
     76911     25637  TIP3      H2            -44.2769266405       29.6002277139       30.6037403535  W2        26833           0.0000000000
     76912     25638  TIP3      OH2           -51.5860766405       29.6809977139       32.9678603535  W2        26834           0.0000000000
     76913     25638  TIP3      H1            -51.5448666405       29.0553277139       33.6911003535  W2        26834           0.0000000000
     76914     25638  TIP3      H2            -50.8833066405       30.3048577139       33.1499003535  W2        26834           0.0000000000
     76915     25639  TIP3      OH2           -40.2485566405       33.0058277139       29.6763803535  W2        26835           0.0000000000
     76916     25639  TIP3      H1            -40.6892866405       32.2854277139       30.1269403535  W2        26835           0.0000000000
     76917     25639  TIP3      H2            -40.2615866405       33.7265477139       30.3061503535  W2        26835           0.0000000000
     76918     25640  TIP3      OH2           -50.6627666405       34.1308877139       31.5027703535  W2        26836           0.0000000000
     76919     25640  TIP3      H1            -51.0322466405       33.3289377139       31.1332003535  W2        26836           0.0000000000
     76920     25640  TIP3      H2            -49.7216566405       33.9623777139       31.5491103535  W2        26836           0.0000000000
     76921     25641  TIP3      OH2           -54.0527166405       27.7911477139       26.8956503535  W2        26837           0.0000000000
     76922     25641  TIP3      H1            -54.5003766405       28.6370177139       26.8773003535  W2        26837           0.0000000000
     76923     25641  TIP3      H2            -54.6135966405       27.2115677139       26.3801603535  W2        26837           0.0000000000
     76924     25642  TIP3      OH2           -53.3421066405       29.9531077139       29.0214503535  W2        26838           0.0000000000
     76925     25642  TIP3      H1            -53.1287566405       29.1832677139       29.5487503535  W2        26838           0.0000000000
     76926     25642  TIP3      H2            -52.6043466405       30.0427777139       28.4182103535  W2        26838           0.0000000000
     76927     25643  TIP3      OH2           -43.1370066405       38.1099977139       29.8884203535  W2        26839           0.0000000000
     76928     25643  TIP3      H1            -42.5173666405       37.4334677139       29.6153403535  W2        26839           0.0000000000
     76929     25643  TIP3      H2            -43.3452666405       37.8920777139       30.7969103535  W2        26839           0.0000000000
     76930     25644  TIP3      OH2           -45.5651366405       32.4989277139       31.7809703535  W2        26840           0.0000000000
     76931     25644  TIP3      H1            -45.2613466405       31.8130677139       31.1863803535  W2        26840           0.0000000000
     76932     25644  TIP3      H2            -44.8437366405       32.6177977139       32.3987703535  W2        26840           0.0000000000
     76933     25645  TIP3      OH2           -36.9021566405       24.1004577139       32.6415903535  W2        26841           0.0000000000
     76934     25645  TIP3      H1            -36.8529366405       24.7105777139       33.3775003535  W2        26841           0.0000000000
     76935     25645  TIP3      H2            -36.4766466405       24.5615477139       31.9187003535  W2        26841           0.0000000000
     76936     25646  TIP3      OH2           -42.4244366405       26.8931677139       32.1084503535  W2        26842           0.0000000000
     76937     25646  TIP3      H1            -42.2818466405       25.9468677139       32.1286103535  W2        26842           0.0000000000
     76938     25646  TIP3      H2            -42.5305366405       27.1001477139       31.1799403535  W2        26842           0.0000000000
     76939     25647  TIP3      OH2           -49.2696066405       24.9948077139       29.3809303535  W2        26843           0.0000000000
     76940     25647  TIP3      H1            -49.2264966405       25.8546577139       28.9625603535  W2        26843           0.0000000000
     76941     25647  TIP3      H2            -49.7271966405       24.4422777139       28.7472503535  W2        26843           0.0000000000
     76942     25648  TIP3      OH2           -41.5473366405       25.1253677139       27.7817603535  W2        26844           0.0000000000
     76943     25648  TIP3      H1            -40.9009066405       24.7966877139       28.4065203535  W2        26844           0.0000000000
     76944     25648  TIP3      H2            -41.0373966405       25.6432677139       27.1589003535  W2        26844           0.0000000000
     76945     25649  TIP3      OH2           -52.6494566405       27.3913877139       30.1430703535  W2        26845           0.0000000000
     76946     25649  TIP3      H1            -51.9957966405       26.8415577139       30.5750803535  W2        26845           0.0000000000
     76947     25649  TIP3      H2            -52.6255266405       27.1172877139       29.2262703535  W2        26845           0.0000000000
     76948     25650  TIP3      OH2           -47.4930066405       28.9415177139       29.3582203535  W2        26846           0.0000000000
     76949     25650  TIP3      H1            -46.8769066405       28.4150577139       29.8676203535  W2        26846           0.0000000000
     76950     25650  TIP3      H2            -48.0791266405       28.3013877139       28.9545803535  W2        26846           0.0000000000
     76951     25651  TIP3      OH2           -36.5106966405       25.5783777139       34.8775703535  W2        26847           0.0000000000
     76952     25651  TIP3      H1            -37.1992366405       26.2364477139       34.7822303535  W2        26847           0.0000000000
     76953     25651  TIP3      H2            -36.4952366405       25.3811677139       35.8141103535  W2        26847           0.0000000000
     76954     25652  TIP3      OH2           -50.4594166405       23.9126477139       33.4550103535  W2        26848           0.0000000000
     76955     25652  TIP3      H1            -50.6782466405       24.4427077139       32.6886103535  W2        26848           0.0000000000
     76956     25652  TIP3      H2            -51.1273266405       24.1391977139       34.1021503535  W2        26848           0.0000000000
     76957     25653  TIP3      OH2           -43.0904366405       33.4127577139       26.9989203535  W2        26849           0.0000000000
     76958     25653  TIP3      H1            -43.3859266405       33.0899877139       26.1476103535  W2        26849           0.0000000000
     76959     25653  TIP3      H2            -43.4146566405       34.3124277139       27.0401803535  W2        26849           0.0000000000
     76960     25654  TIP3      OH2           -47.8902766405       31.5882177139       33.7423803535  W2        26850           0.0000000000
     76961     25654  TIP3      H1            -48.6303666405       32.1863677139       33.8459003535  W2        26850           0.0000000000
     76962     25654  TIP3      H2            -47.1763266405       32.1421777139       33.4267403535  W2        26850           0.0000000000
     76963     25655  TIP3      OH2           -39.7834966405       24.4162977139       29.7623503535  W2        26851           0.0000000000
     76964     25655  TIP3      H1            -39.9986966405       23.6506377139       30.2949503535  W2        26851           0.0000000000
     76965     25655  TIP3      H2            -39.1277566405       24.8887577139       30.2752003535  W2        26851           0.0000000000
     76966     25656  TIP3      OH2           -50.8656866405       25.8048277139       31.4072303535  W2        26852           0.0000000000
     76967     25656  TIP3      H1            -50.2520566405       26.4375877139       31.7804703535  W2        26852           0.0000000000
     76968     25656  TIP3      H2            -50.3536166405       25.3323277139       30.7509203535  W2        26852           0.0000000000
     76969     25657  TIP3      OH2           -49.4828466405       33.5525177139       34.5295303535  W2        26853           0.0000000000
     76970     25657  TIP3      H1            -49.4880866405       34.4318677139       34.1514603535  W2        26853           0.0000000000
     76971     25657  TIP3      H2            -50.3364366405       33.4689277139       34.9545203535  W2        26853           0.0000000000
     76972     25658  TIP3      OH2           -53.3617566405       33.2233077139       25.3114603535  W2        26854           0.0000000000
     76973     25658  TIP3      H1            -53.6336666405       33.4524077139       24.4227503535  W2        26854           0.0000000000
     76974     25658  TIP3      H2            -53.3161866405       34.0611877139       25.7719903535  W2        26854           0.0000000000
     76975     25659  TIP3      OH2           -39.7367866405       34.8448977139       32.0243103535  W2        26855           0.0000000000
     76976     25659  TIP3      H1            -40.6784166405       34.9032877139       32.1860003535  W2        26855           0.0000000000
     76977     25659  TIP3      H2            -39.4601766405       35.7509477139       31.8872803535  W2        26855           0.0000000000
     76978     25660  TIP3      OH2           -39.4360866405       23.1314277139       33.4417003535  W2        26856           0.0000000000
     76979     25660  TIP3      H1            -40.1721666405       23.7421377139       33.4038303535  W2        26856           0.0000000000
     76980     25660  TIP3      H2            -38.7526866405       23.5463277139       32.9153403535  W2        26856           0.0000000000
     76981     25661  TIP3      OH2           -46.4329466405       21.2181577139       30.9075003535  W2        26857           0.0000000000
     76982     25661  TIP3      H1            -46.5505266405       20.2697577139       30.8533303535  W2        26857           0.0000000000
     76983     25661  TIP3      H2            -47.2879366405       21.5507677139       31.1806103535  W2        26857           0.0000000000
     76984     25662  TIP3      OH2           -41.4846666405       36.6262477139       28.6494703535  W2        26858           0.0000000000
     76985     25662  TIP3      H1            -41.0594366405       35.9190377139       28.1644303535  W2        26858           0.0000000000
     76986     25662  TIP3      H2            -41.1676666405       37.4275177139       28.2326903535  W2        26858           0.0000000000
     76987     25663  TIP3      OH2           -40.3250166405       34.5270977139       27.1581303535  W2        26859           0.0000000000
     76988     25663  TIP3      H1            -40.5825366405       33.8371077139       26.5467203535  W2        26859           0.0000000000
     76989     25663  TIP3      H2            -40.2539366405       34.0842177139       28.0037203535  W2        26859           0.0000000000
     76990     25664  TIP3      OH2           -44.1664566405       30.0557177139       25.4080803535  W2        26861           0.0000000000
     76991     25664  TIP3      H1            -44.8779066405       30.5906877139       25.0561303535  W2        26861           0.0000000000
     76992     25664  TIP3      H2            -43.4754966405       30.1109277139       24.7479703535  W2        26861           0.0000000000
     76993     25665  TIP3      OH2           -44.1125366405       28.5131477139       22.4465803535  W2        26862           0.0000000000
     76994     25665  TIP3      H1            -43.4115466405       28.5358377139       23.0979803535  W2        26862           0.0000000000
     76995     25665  TIP3      H2            -43.8102466405       27.8851177139       21.7905103535  W2        26862           0.0000000000
     76996     25666  TIP3      OH2           -36.7970666405       29.4335677139       33.7015203535  W2        26863           0.0000000000
     76997     25666  TIP3      H1            -37.4496566405       30.1281277139       33.7906103535  W2        26863           0.0000000000
     76998     25666  TIP3      H2            -36.3320366405       29.6436577139       32.8916803535  W2        26863           0.0000000000
     76999     25667  TIP3      OH2           -40.7606866405       30.2650477139       26.3596703535  W2        26864           0.0000000000
     77000     25667  TIP3      H1            -41.4925866405       30.4934177139       26.9327303535  W2        26864           0.0000000000
     77001     25667  TIP3      H2            -40.3134666405       29.5513177139       26.8144203535  W2        26864           0.0000000000
     77002     25668  TIP3      OH2           -40.8633366405       28.4393077139       35.4273703535  W2        26865           0.0000000000
     77003     25668  TIP3      H1            -40.7834266405       29.2027477139       35.9992203535  W2        26865           0.0000000000
     77004     25668  TIP3      H2            -41.4645666405       28.7185477139       34.7368803535  W2        26865           0.0000000000
     77005     25669  TIP3      OH2           -49.1153166405       30.8956677139       28.2421703535  W2        26866           0.0000000000
     77006     25669  TIP3      H1            -49.4457966405       30.5250077139       27.4238703535  W2        26866           0.0000000000
     77007     25669  TIP3      H2            -48.5269066405       30.2250677139       28.5890003535  W2        26866           0.0000000000
     77008     25670  TIP3      OH2           -47.7485666405       34.3237277139       30.9233903535  W2        26867           0.0000000000
     77009     25670  TIP3      H1            -47.8434366405       33.7450377139       30.1668503535  W2        26867           0.0000000000
     77010     25670  TIP3      H2            -47.0192066405       33.9522977139       31.4196703535  W2        26867           0.0000000000
     77011     25671  TIP3      OH2           -48.7487666405       29.6642277139       31.8756703535  W2        26868           0.0000000000
     77012     25671  TIP3      H1            -48.1835166405       29.7856477139       31.1127903535  W2        26868           0.0000000000
     77013     25671  TIP3      H2            -48.4298766405       30.3017277139       32.5145203535  W2        26868           0.0000000000
     77014     25672  TIP3      OH2           -42.4395466405       35.1674177139       32.6097203535  W2        26869           0.0000000000
     77015     25672  TIP3      H1            -42.6798866405       35.8297277139       33.2576403535  W2        26869           0.0000000000
     77016     25672  TIP3      H2            -42.6377266405       34.3329377139       33.0346803535  W2        26869           0.0000000000
     77017     25673  TIP3      OH2           -41.8897366405       29.4273377139       24.0447903535  W2        26871           0.0000000000
     77018     25673  TIP3      H1            -41.3101866405       29.5773677139       24.7916803535  W2        26871           0.0000000000
     77019     25673  TIP3      H2            -41.4757366405       29.8980777139       23.3214303535  W2        26871           0.0000000000
     77020     25674  TIP3      OH2           -44.1632466405       36.1641877139       27.4801003535  W2        26873           0.0000000000
     77021     25674  TIP3      H1            -43.6894866405       36.4598177139       28.2575203535  W2        26873           0.0000000000
     77022     25674  TIP3      H2            -44.7263166405       36.9023477139       27.2470603535  W2        26873           0.0000000000
     77023     25675  TIP3      OH2           -38.1908966405       21.1773777139       23.8577603535  W2        26875           0.0000000000
     77024     25675  TIP3      H1            -39.0908266405       21.3162777139       24.1528203535  W2        26875           0.0000000000
     77025     25675  TIP3      H2            -37.9390566405       22.0088377139       23.4559303535  W2        26875           0.0000000000
     77026     25676  TIP3      OH2           -50.1250466405       29.9650977139       25.8314503535  W2        26876           0.0000000000
     77027     25676  TIP3      H1            -50.4169166405       30.7332677139       25.3405803535  W2        26876           0.0000000000
     77028     25676  TIP3      H2            -50.7995266405       29.3057177139       25.6685903535  W2        26876           0.0000000000
     77029     25677  TIP3      OH2           -37.0017566405       35.5436177139       22.2341503535  W2        26877           0.0000000000
     77030     25677  TIP3      H1            -36.9284066405       36.4826377139       22.4046803535  W2        26877           0.0000000000
     77031     25677  TIP3      H2            -36.0962466405       35.2384777139       22.1778803535  W2        26877           0.0000000000
     77032     25678  TIP3      OH2           -54.0320366405       32.3280177139       34.6464303535  W2        26878           0.0000000000
     77033     25678  TIP3      H1            -54.5331966405       32.2999577139       33.8314003535  W2        26878           0.0000000000
     77034     25678  TIP3      H2            -54.0266666405       31.4223377139       34.9561603535  W2        26878           0.0000000000
     77035     25679  TIP3      OH2           -54.2817666405       35.1083977139       31.5304503535  W2        26879           0.0000000000
     77036     25679  TIP3      H1            -53.3357066405       34.9640977139       31.5114003535  W2        26879           0.0000000000
     77037     25679  TIP3      H2            -54.3941366405       35.8926777139       32.0675703535  W2        26879           0.0000000000
     77038     25680  TIP3      OH2           -44.6909366405       39.1206577139       25.8950203535  W2        26882           0.0000000000
     77039     25680  TIP3      H1            -44.7663366405       38.9993777139       24.9485403535  W2        26882           0.0000000000
     77040     25680  TIP3      H2            -44.6580666405       40.0699277139       26.0134803535  W2        26882           0.0000000000
     77041     25681  TIP3      OH2           -51.0375566405       37.9093577139       27.6759203535  W2        26883           0.0000000000
     77042     25681  TIP3      H1            -50.8855166405       37.5613977139       28.5545703535  W2        26883           0.0000000000
     77043     25681  TIP3      H2            -51.8885166405       37.5530877139       27.4206403535  W2        26883           0.0000000000
     77044     25682  TIP3      OH2           -41.5893366405       38.2746777139       22.8972603535  W2        26884           0.0000000000
     77045     25682  TIP3      H1            -41.2144966405       37.5302877139       22.4265203535  W2        26884           0.0000000000
     77046     25682  TIP3      H2            -41.5849666405       38.0047377139       23.8155903535  W2        26884           0.0000000000
     77047     25683  TIP3      OH2           -41.9205266405       38.2003877139       25.6464803535  W2        26885           0.0000000000
     77048     25683  TIP3      H1            -42.8555466405       38.3005777139       25.8251803535  W2        26885           0.0000000000
     77049     25683  TIP3      H2            -41.6403366405       37.4909877139       26.2248003535  W2        26885           0.0000000000
     77050     25684  TIP3      OH2           -49.1641866405       22.1216077139       31.6851303535  W2        26888           0.0000000000
     77051     25684  TIP3      H1            -50.0258166405       22.0344277139       31.2774203535  W2        26888           0.0000000000
     77052     25684  TIP3      H2            -49.1866166405       22.9776177139       32.1128903535  W2        26888           0.0000000000
     77053     25685  TIP3      OH2           -44.5014066405       21.8436477139       35.0598303535  W2        26889           0.0000000000
     77054     25685  TIP3      H1            -44.0810966405       21.4283577139       35.8128903535  W2        26889           0.0000000000
     77055     25685  TIP3      H2            -45.4344466405       21.6649777139       35.1770303535  W2        26889           0.0000000000
     77056     25686  TIP3      OH2           -40.4124266405       30.4601677139       21.6745803535  W2        26891           0.0000000000
     77057     25686  TIP3      H1            -40.3703466405       30.2375577139       20.7445803535  W2        26891           0.0000000000
     77058     25686  TIP3      H2            -39.5632166405       30.8588777139       21.8645703535  W2        26891           0.0000000000
     77059     25687  TIP3      OH2           -44.8396766405       24.3359877139       22.3449103535  W2        26892           0.0000000000
     77060     25687  TIP3      H1            -45.0931966405       24.3551477139       23.2677203535  W2        26892           0.0000000000
     77061     25687  TIP3      H2            -45.0964666405       23.4645277139       22.0435303535  W2        26892           0.0000000000
     77062     25688  TIP3      OH2           -49.0731766405       27.0870577139       32.7801503535  W2        26893           0.0000000000
     77063     25688  TIP3      H1            -49.7149666405       27.0467877139       33.4891603535  W2        26893           0.0000000000
     77064     25688  TIP3      H2            -49.0359766405       28.0135277139       32.5424503535  W2        26893           0.0000000000
     77065     25689  TIP3      OH2           -49.0762666405       27.3080677139       27.6921503535  W2        26894           0.0000000000
     77066     25689  TIP3      H1            -49.9689766405       26.9676777139       27.6335303535  W2        26894           0.0000000000
     77067     25689  TIP3      H2            -48.6256066405       26.9311577139       26.9364703535  W2        26894           0.0000000000
     77068     25690  TIP3      OH2           -43.5407166405       27.7240977139       26.5092303535  W2        26895           0.0000000000
     77069     25690  TIP3      H1            -43.9496866405       28.5389577139       26.2177103535  W2        26895           0.0000000000
     77070     25690  TIP3      H2            -42.8200966405       27.5841077139       25.8949403535  W2        26895           0.0000000000
     77071     25691  TIP3      OH2           -42.5359466405       27.1701377139       29.3232003535  W2        26897           0.0000000000
     77072     25691  TIP3      H1            -42.7314966405       27.7758177139       28.6082603535  W2        26897           0.0000000000
     77073     25691  TIP3      H2            -42.3546866405       26.3366577139       28.8888303535  W2        26897           0.0000000000
     77074     25692  TIP3      OH2           -51.3231266405       27.4074077139       34.6473503535  W2        26898           0.0000000000
     77075     25692  TIP3      H1            -51.3611866405       27.8075677139       35.5160603535  W2        26898           0.0000000000
     77076     25692  TIP3      H2            -51.8140166405       26.5906477139       34.7376403535  W2        26898           0.0000000000
     77077     25693  TIP3      OH2           -47.9573866405       24.7816377139       21.4459503535  W2        26899           0.0000000000
     77078     25693  TIP3      H1            -48.3883166405       24.3366477139       22.1756903535  W2        26899           0.0000000000
     77079     25693  TIP3      H2            -48.6755166405       25.1532677139       20.9337003535  W2        26899           0.0000000000
     77080     25694  TIP3      OH2           -54.7150466405       24.5235877139       28.4978203535  W2        26900           0.0000000000
     77081     25694  TIP3      H1            -54.0842766405       24.4947977139       29.2172103535  W2        26900           0.0000000000
     77082     25694  TIP3      H2            -54.2656166405       24.0984577139       27.7674103535  W2        26900           0.0000000000
     77083     25695  TIP3      OH2           -53.4408366405       25.2697877139       23.9218603535  W2        26901           0.0000000000
     77084     25695  TIP3      H1            -52.9666666405       25.8607777139       23.3369503535  W2        26901           0.0000000000
     77085     25695  TIP3      H2            -54.1581966405       25.8000777139       24.2688703535  W2        26901           0.0000000000
     77086     25696  TIP3      OH2           -43.2720266405       28.8082677139       33.9944403535  W2        26902           0.0000000000
     77087     25696  TIP3      H1            -42.9485466405       28.1772377139       33.3514903535  W2        26902           0.0000000000
     77088     25696  TIP3      H2            -43.7120966405       28.2734877139       34.6551803535  W2        26902           0.0000000000
     77089     25697  TIP3      OH2           -46.4947366405       24.7358177139       28.7785603535  W2        26903           0.0000000000
     77090     25697  TIP3      H1            -47.4056266405       24.7924977139       29.0671603535  W2        26903           0.0000000000
     77091     25697  TIP3      H2            -45.9894466405       24.6753677139       29.5892803535  W2        26903           0.0000000000
     77092     25698  TIP3      OH2           -51.6663966405       26.3644477139       27.6053203535  W2        26904           0.0000000000
     77093     25698  TIP3      H1            -52.5555966405       26.4639977139       27.2652803535  W2        26904           0.0000000000
     77094     25698  TIP3      H2            -51.3699066405       25.5227477139       27.2591103535  W2        26904           0.0000000000
     77095     25699  TIP3      OH2           -48.0132166405       26.3647077139       25.2617803535  W2        26905           0.0000000000
     77096     25699  TIP3      H1            -47.0816666405       26.4937077139       25.4400903535  W2        26905           0.0000000000
     77097     25699  TIP3      H2            -48.2281866405       27.0341377139       24.6122503535  W2        26905           0.0000000000
     77098     25700  TIP3      OH2           -42.0895466405       23.9704477139       32.0427403535  W2        26906           0.0000000000
     77099     25700  TIP3      H1            -42.7663866405       24.1017577139       32.7067103535  W2        26906           0.0000000000
     77100     25700  TIP3      H2            -42.5750566405       23.8153977139       31.2325103535  W2        26906           0.0000000000
     77101     25701  TIP3      OH2           -49.3391966405       27.5589277139       22.8283903535  W2        26907           0.0000000000
     77102     25701  TIP3      H1            -49.8816866405       27.1793077139       22.1371503535  W2        26907           0.0000000000
     77103     25701  TIP3      H2            -48.5057066405       27.7533977139       22.3998003535  W2        26907           0.0000000000
     77104     25702  TIP3      OH2           -45.1747666405       27.5231177139       30.6655203535  W2        26910           0.0000000000
     77105     25702  TIP3      H1            -44.6104266405       26.9767777139       30.1184803535  W2        26910           0.0000000000
     77106     25702  TIP3      H2            -45.3224266405       27.0013077139       31.4542803535  W2        26910           0.0000000000
     77107     25703  TIP3      OH2           -50.1727966405       23.6597277139       27.0840003535  W2        26911           0.0000000000
     77108     25703  TIP3      H1            -50.4898466405       22.7572577139       27.0485403535  W2        26911           0.0000000000
     77109     25703  TIP3      H2            -49.3913866405       23.6614677139       26.5311603535  W2        26911           0.0000000000
     77110     25704  TIP3      OH2           -46.5481766405       25.9117277139       33.0795603535  W2        26912           0.0000000000
     77111     25704  TIP3      H1            -47.3836466405       26.3656777139       33.1898003535  W2        26912           0.0000000000
     77112     25704  TIP3      H2            -46.0241166405       26.1875777139       33.8315503535  W2        26912           0.0000000000
     77113     25705  TIP3      OH2           -46.0039166405       32.1244977139       24.7642003535  W2        26913           0.0000000000
     77114     25705  TIP3      H1            -46.7488166405       31.6170277139       24.4419903535  W2        26913           0.0000000000
     77115     25705  TIP3      H2            -46.1381966405       32.1732977139       25.7106803535  W2        26913           0.0000000000
     77116     25706  TIP3      OH2           -38.8540266405       31.2573177139       33.5509603535  W2        26914           0.0000000000
     77117     25706  TIP3      H1            -38.2121466405       31.7139477139       33.0071803535  W2        26914           0.0000000000
     77118     25706  TIP3      H2            -39.6843366405       31.3705577139       33.0883703535  W2        26914           0.0000000000
     77119     25707  TIP3      OH2           -42.1062366405       24.9384877139       22.9634603535  W2        26915           0.0000000000
     77120     25707  TIP3      H1            -43.0448166405       25.0500477139       22.8123403535  W2        26915           0.0000000000
     77121     25707  TIP3      H2            -41.8090266405       25.7951777139       23.2700303535  W2        26915           0.0000000000
     77122     25708  TIP3      OH2           -41.3878866405       26.8057577139       24.6242003535  W2        26917           0.0000000000
     77123     25708  TIP3      H1            -40.4959866405       26.6682577139       24.9433203535  W2        26917           0.0000000000
     77124     25708  TIP3      H2            -41.3315266405       27.5963677139       24.0875503535  W2        26917           0.0000000000
     77125     25709  TIP3      OH2           -50.8790866405       31.4194977139       30.5339903535  W2        26918           0.0000000000
     77126     25709  TIP3      H1            -50.1343666405       31.4170677139       29.9326403535  W2        26918           0.0000000000
     77127     25709  TIP3      H2            -50.8014266405       30.5958777139       31.0155003535  W2        26918           0.0000000000
     77128     25710  TIP3      OH2           -43.8785066405       33.5829277139       23.7896603535  W2        26919           0.0000000000
     77129     25710  TIP3      H1            -44.1736666405       34.4097177139       24.1711403535  W2        26919           0.0000000000
     77130     25710  TIP3      H2            -44.5815066405       32.9636177139       23.9858003535  W2        26919           0.0000000000
     77131     25711  TIP3      OH2           -36.5030166405       27.0151677139       24.3188703535  W2        26923           0.0000000000
     77132     25711  TIP3      H1            -37.0573866405       26.6189677139       23.6466203535  W2        26923           0.0000000000
     77133     25711  TIP3      H2            -36.4026566405       27.9256877139       24.0412003535  W2        26923           0.0000000000
     77134     25712  TIP3      OH2           -38.2078466405       35.8012077139       24.7840803535  W2        26925           0.0000000000
     77135     25712  TIP3      H1            -38.5807366405       34.9755877139       25.0931403535  W2        26925           0.0000000000
     77136     25712  TIP3      H2            -37.9304966405       35.6181477139       23.8864203535  W2        26925           0.0000000000
     77137     25713  TIP3      OH2           -41.0474566405       30.6091577139       31.8052703535  W2        26926           0.0000000000
     77138     25713  TIP3      H1            -41.9757666405       30.3773477139       31.7782003535  W2        26926           0.0000000000
     77139     25713  TIP3      H2            -40.5963466405       29.8321377139       31.4751503535  W2        26926           0.0000000000
     77140     25714  TIP3      OH2           -48.5041466405       34.9373177139       27.9381403535  W2        26927           0.0000000000
     77141     25714  TIP3      H1            -47.9769266405       35.7107577139       27.7380203535  W2        26927           0.0000000000
     77142     25714  TIP3      H2            -49.3842966405       35.1622377139       27.6365403535  W2        26927           0.0000000000
     77143     25715  TIP3      OH2           -52.7493766405       29.7997277139       22.5253803535  W2        26928           0.0000000000
     77144     25715  TIP3      H1            -52.1333866405       30.4264477139       22.9048603535  W2        26928           0.0000000000
     77145     25715  TIP3      H2            -53.6111166405       30.1157077139       22.7970303535  W2        26928           0.0000000000
     77146     25716  TIP3      OH2           -47.0769166405       32.6003077139       27.5145703535  W2        26929           0.0000000000
     77147     25716  TIP3      H1            -47.3179166405       33.5257477139       27.5561003535  W2        26929           0.0000000000
     77148     25716  TIP3      H2            -47.8175566405       32.1414377139       27.9109603535  W2        26929           0.0000000000
     77149     25717  TIP3      OH2           -46.5622566405       36.7496677139       33.8296803535  W2        26930           0.0000000000
     77150     25717  TIP3      H1            -46.1997866405       37.6042277139       33.5961203535  W2        26930           0.0000000000
     77151     25717  TIP3      H2            -46.0307366405       36.4578277139       34.5703103535  W2        26930           0.0000000000
     77152     25718  TIP3      OH2           -48.3938366405       37.6220677139       27.0597903535  W2        26931           0.0000000000
     77153     25718  TIP3      H1            -49.3437866405       37.7278077139       27.1111203535  W2        26931           0.0000000000
     77154     25718  TIP3      H2            -48.0420266405       38.4428077139       27.4045403535  W2        26931           0.0000000000
     77155     25719  TIP3      OH2           -43.0181766405       32.8487377139       33.5302403535  W2        26932           0.0000000000
     77156     25719  TIP3      H1            -43.4440466405       32.6209077139       34.3566403535  W2        26932           0.0000000000
     77157     25719  TIP3      H2            -42.4375966405       32.1099177139       33.3477703535  W2        26932           0.0000000000
     77158     25720  TIP3      OH2           -40.8152866405       33.7777877139       22.6041403535  W2        26933           0.0000000000
     77159     25720  TIP3      H1            -40.4619766405       33.3977677139       23.4084903535  W2        26933           0.0000000000
     77160     25720  TIP3      H2            -41.7639366405       33.6842677139       22.6910703535  W2        26933           0.0000000000
     77161     25721  TIP3      OH2           -36.3118466405       38.2570377139       22.8051603535  W2        26935           0.0000000000
     77162     25721  TIP3      H1            -35.5680566405       38.8430877139       22.6653203535  W2        26935           0.0000000000
     77163     25721  TIP3      H2            -37.0060366405       38.8256177139       23.1384003535  W2        26935           0.0000000000
     77164     25722  TIP3      OH2           -52.2371666405       24.6334577139       35.4069803535  W2        26936           0.0000000000
     77165     25722  TIP3      H1            -53.1299366405       24.9719977139       35.3393803535  W2        26936           0.0000000000
     77166     25722  TIP3      H2            -52.3358866405       23.7780677139       35.8250603535  W2        26936           0.0000000000
     77167     25723  TIP3      OH2           -39.9493566405       32.4499877139       24.8309303535  W2        26937           0.0000000000
     77168     25723  TIP3      H1            -40.2265966405       31.7219177139       25.3870403535  W2        26937           0.0000000000
     77169     25723  TIP3      H2            -39.0220566405       32.5691877139       25.0361903535  W2        26937           0.0000000000
     77170     25724  TIP3      OH2           -52.5859666405       36.4378977139       33.8419203535  W2        26938           0.0000000000
     77171     25724  TIP3      H1            -52.3689366405       35.5061377139       33.8108903535  W2        26938           0.0000000000
     77172     25724  TIP3      H2            -52.3396166405       36.7123977139       34.7252003535  W2        26938           0.0000000000
     77173     25725  TIP3      OH2           -46.7245066405       34.8893977139       21.0511403535  W2        26939           0.0000000000
     77174     25725  TIP3      H1            -46.4855266405       34.1412077139       20.5040303535  W2        26939           0.0000000000
     77175     25725  TIP3      H2            -46.9933766405       34.5015677139       21.8839203535  W2        26939           0.0000000000
     77176     25726  TIP3      OH2           -47.7874466405       34.4597777139       23.5074003535  W2        26940           0.0000000000
     77177     25726  TIP3      H1            -47.6406466405       33.9397577139       24.2974903535  W2        26940           0.0000000000
     77178     25726  TIP3      H2            -47.7902766405       35.3665377139       23.8139903535  W2        26940           0.0000000000
     77179     25727  TIP3      OH2           -51.3343366405       31.7121077139       24.0179403535  W2        26941           0.0000000000
     77180     25727  TIP3      H1            -52.0204066405       32.0643577139       24.5849103535  W2        26941           0.0000000000
     77181     25727  TIP3      H2            -50.8115466405       32.4750677139       23.7713703535  W2        26941           0.0000000000
     77182     25728  TIP3      OH2           -43.5028266405       24.3744877139       34.2968403535  W2        26942           0.0000000000
     77183     25728  TIP3      H1            -42.8040366405       24.4483577139       34.9468103535  W2        26942           0.0000000000
     77184     25728  TIP3      H2            -43.8836866405       23.5099877139       34.4511303535  W2        26942           0.0000000000
     77185     25729  TIP3      OH2           -42.7183366405       24.0266577139       25.3940703535  W2        26943           0.0000000000
     77186     25729  TIP3      H1            -42.4985066405       24.4981977139       24.5906103535  W2        26943           0.0000000000
     77187     25729  TIP3      H2            -42.1599366405       24.4209177139       26.0641303535  W2        26943           0.0000000000
     77188     25730  TIP3      OH2           -45.0497266405       36.1571377139       24.2568203535  W2        26944           0.0000000000
     77189     25730  TIP3      H1            -45.8661166405       36.6541077139       24.3092503535  W2        26944           0.0000000000
     77190     25730  TIP3      H2            -44.5200966405       36.6324877139       23.6167003535  W2        26944           0.0000000000
     77191     25731  TIP3      OH2           -45.5183466405       25.7545377139       26.2289103535  W2        26945           0.0000000000
     77192     25731  TIP3      H1            -44.7060866405       26.2588577139       26.2750803535  W2        26945           0.0000000000
     77193     25731  TIP3      H2            -45.7630466405       25.6095077139       27.1428703535  W2        26945           0.0000000000
     77194     25732  TIP3      OH2           -44.9827066405       26.7408077139       35.4135703535  W2        26946           0.0000000000
     77195     25732  TIP3      H1            -44.8636766405       27.3143477139       36.1706103535  W2        26946           0.0000000000
     77196     25732  TIP3      H2            -44.3272466405       26.0527477139       35.5283503535  W2        26946           0.0000000000
     77197     25733  TIP3      OH2           -44.6346766405       22.8358377139       27.1670203535  W2        26947           0.0000000000
     77198     25733  TIP3      H1            -44.9813266405       23.4528977139       27.8114503535  W2        26947           0.0000000000
     77199     25733  TIP3      H2            -43.9759866405       23.3364077139       26.6855703535  W2        26947           0.0000000000
     77200     25734  TIP3      OH2           -47.7114166405       37.2008577139       24.2385103535  W2        26948           0.0000000000
     77201     25734  TIP3      H1            -47.5505466405       38.0006077139       23.7377703535  W2        26948           0.0000000000
     77202     25734  TIP3      H2            -47.9086366405       37.5074577139       25.1235703535  W2        26948           0.0000000000
     77203     25735  TIP3      OH2           -48.9769766405       23.8987777139       23.8542703535  W2        26949           0.0000000000
     77204     25735  TIP3      H1            -49.0604966405       24.7870877139       24.2009103535  W2        26949           0.0000000000
     77205     25735  TIP3      H2            -48.0869466405       23.6334477139       24.0859503535  W2        26949           0.0000000000
     77206     25736  TIP3      OH2           -40.1760266405       28.3979377139       30.3442703535  W2        26951           0.0000000000
     77207     25736  TIP3      H1            -40.9735866405       27.9829577139       30.0157703535  W2        26951           0.0000000000
     77208     25736  TIP3      H2            -39.7309166405       27.7073077139       30.8353203535  W2        26951           0.0000000000
     77209     25737  TIP3      OH2           -50.7184466405       34.3259977139       22.9147203535  W2        26952           0.0000000000
     77210     25737  TIP3      H1            -50.1262966405       35.0254777139       23.1909603535  W2        26952           0.0000000000
     77211     25737  TIP3      H2            -50.2591466405       33.8929477139       22.1951803535  W2        26952           0.0000000000
     77212     25738  TIP3      OH2           -52.4025266405       26.9902977139       22.0306603535  W2        26953           0.0000000000
     77213     25738  TIP3      H1            -52.4472666405       27.9296077139       22.2093603535  W2        26953           0.0000000000
     77214     25738  TIP3      H2            -53.2902066405       26.7547877139       21.7608703535  W2        26953           0.0000000000
     77215     25739  TIP3      OH2           -39.0895666405       37.6541877139       31.9666203535  W2        26954           0.0000000000
     77216     25739  TIP3      H1            -39.2451366405       38.3326277139       31.3095503535  W2        26954           0.0000000000
     77217     25739  TIP3      H2            -38.1569266405       37.7261177139       32.1696803535  W2        26954           0.0000000000
     77218     25740  TIP3      OH2           -51.5943266405       21.7719577139       30.7037603535  W2        26955           0.0000000000
     77219     25740  TIP3      H1            -51.8233466405       21.8312077139       29.7762603535  W2        26955           0.0000000000
     77220     25740  TIP3      H2            -52.0369866405       20.9805077139       31.0101703535  W2        26955           0.0000000000
     77221     25741  TIP3      OH2           -52.6639966405       35.7126677139       26.8643403535  W2        26956           0.0000000000
     77222     25741  TIP3      H1            -53.4961366405       36.1849377139       26.8914803535  W2        26956           0.0000000000
     77223     25741  TIP3      H2            -52.1181666405       36.2224277139       26.2656503535  W2        26956           0.0000000000
     77224     25742  TIP3      OH2           -44.6863266405       36.7525377139       21.1897403535  W2        26959           0.0000000000
     77225     25742  TIP3      H1            -45.3302266405       36.1213977139       21.5111103535  W2        26959           0.0000000000
     77226     25742  TIP3      H2            -43.9244966405       36.2213377139       20.9580903535  W2        26959           0.0000000000
     77227     25743  TIP3      OH2           -40.0820366405       36.5695277139       21.4235403535  W2        26961           0.0000000000
     77228     25743  TIP3      H1            -39.7989966405       35.7750477139       21.8762303535  W2        26961           0.0000000000
     77229     25743  TIP3      H2            -39.3422466405       36.8026277139       20.8626503535  W2        26961           0.0000000000
     77230     25744  TIP3      OH2           -49.1273066405       32.4790177139       21.2810303535  W2        26963           0.0000000000
     77231     25744  TIP3      H1            -49.0628966405       31.6849777139       21.8116703535  W2        26963           0.0000000000
     77232     25744  TIP3      H2            -48.4743866405       32.3602977139       20.5912303535  W2        26963           0.0000000000
     77233     25745  TIP3      OH2           -43.7749666405       33.5261877139       21.0168303535  W2        26965           0.0000000000
     77234     25745  TIP3      H1            -44.0435566405       33.7063977139       21.9177203535  W2        26965           0.0000000000
     77235     25745  TIP3      H2            -43.9814066405       32.6008077139       20.8854103535  W2        26965           0.0000000000
     77236     25746  TIP3      OH2           -47.9779266405       30.4516377139       23.5868303535  W2        26968           0.0000000000
     77237     25746  TIP3      H1            -48.4377266405       29.9674677139       24.2726803535  W2        26968           0.0000000000
     77238     25746  TIP3      H2            -47.7230566405       29.7831777139       22.9508803535  W2        26968           0.0000000000
     77239     25747  TIP3      OH2           -46.9068866405       28.6948177139       21.8491503535  W2        26970           0.0000000000
     77240     25747  TIP3      H1            -47.0873866405       28.5399377139       20.9219803535  W2        26970           0.0000000000
     77241     25747  TIP3      H2            -45.9568366405       28.8026877139       21.8939403535  W2        26970           0.0000000000
     77242     25748  TIP3      OH2           -37.5170566405       31.0492377139       21.2949603535  W2        26972           0.0000000000
     77243     25748  TIP3      H1            -37.7905766405       30.6247877139       20.4817903535  W2        26972           0.0000000000
     77244     25748  TIP3      H2            -37.4776466405       31.9806877139       21.0780003535  W2        26972           0.0000000000
     77245     25749  TIP3      OH2           -47.9370566405       24.0690077139       34.5178403535  W2        26974           0.0000000000
     77246     25749  TIP3      H1            -47.4013066405       24.5206777139       33.8657703535  W2        26974           0.0000000000
     77247     25749  TIP3      H2            -48.7890966405       23.9609877139       34.0952503535  W2        26974           0.0000000000
     77248     25750  TIP3      OH2           -46.3552166405       29.5086277139       34.7573603535  W2        26975           0.0000000000
     77249     25750  TIP3      H1            -45.6047366405       29.3523777139       34.1841403535  W2        26975           0.0000000000
     77250     25750  TIP3      H2            -46.6943866405       30.3602877139       34.4819103535  W2        26975           0.0000000000
     77251     25751  TIP3      OH2           -47.1315066405       21.5255777139       34.9492003535  W2        26979           0.0000000000
     77252     25751  TIP3      H1            -47.2295466405       22.4718977139       34.8438203535  W2        26979           0.0000000000
     77253     25751  TIP3      H2            -47.8738866405       21.1529577139       34.4735503535  W2        26979           0.0000000000
     77254     25752  TIP3      OH2           -47.0097166405       39.3851877139       22.8505103535  W2        26986           0.0000000000
     77255     25752  TIP3      H1            -46.0766466405       39.5430577139       22.9943503535  W2        26986           0.0000000000
     77256     25752  TIP3      H2            -47.2738366405       40.0604877139       22.2256603535  W2        26986           0.0000000000
     77257     25753  TIP3      OH2           -53.4412266405       34.0215677139       22.3333203535  W2        26987           0.0000000000
     77258     25753  TIP3      H1            -52.5273066405       34.1004577139       22.6067103535  W2        26987           0.0000000000
     77259     25753  TIP3      H2            -53.4339166405       33.3345277139       21.6668803535  W2        26987           0.0000000000
     77260     25754  TIP3      OH2           -54.7921666405       39.4144177139       27.4107103535  W2        26988           0.0000000000
     77261     25754  TIP3      H1            -55.4394566405       38.9525877139       26.8778303535  W2        26988           0.0000000000
     77262     25754  TIP3      H2            -54.4377066405       38.7427477139       27.9933303535  W2        26988           0.0000000000
     77263     25755  TIP3      OH2           -53.9222466405       37.4951177139       29.2153303535  W2        26989           0.0000000000
     77264     25755  TIP3      H1            -54.2565666405       36.6148477139       29.3873503535  W2        26989           0.0000000000
     77265     25755  TIP3      H2            -53.7000066405       37.8406177139       30.0798903535  W2        26989           0.0000000000
     77266     25756  TIP3      OH2           -36.3737666405       38.3047577139       32.1958103535  W2        26990           0.0000000000
     77267     25756  TIP3      H1            -36.3950966405       38.4895977139       33.1347503535  W2        26990           0.0000000000
     77268     25756  TIP3      H2            -35.6831466405       38.8731577139       31.8549503535  W2        26990           0.0000000000
     77269     25757  TIP3      OH2           -36.8104766405       37.8718677139       35.1177203535  W2        26991           0.0000000000
     77270     25757  TIP3      H1            -37.2976066405       37.1362777139       34.7464603535  W2        26991           0.0000000000
     77271     25757  TIP3      H2            -36.2612066405       37.4782577139       35.7956603535  W2        26991           0.0000000000
     77272     25758  TIP3      OH2           -37.0587766405       31.9180477139       25.2700003535  W2        26993           0.0000000000
     77273     25758  TIP3      H1            -36.2086366405       32.3391377139       25.3971603535  W2        26993           0.0000000000
     77274     25758  TIP3      H2            -37.0532666405       31.1780577139       25.8771403535  W2        26993           0.0000000000
     77275     25759  TIP3      OH2           -36.6642166405       29.9717877139       27.0935703535  W2        26994           0.0000000000
     77276     25759  TIP3      H1            -37.3907566405       29.4920477139       27.4913303535  W2        26994           0.0000000000
     77277     25759  TIP3      H2            -36.0828866405       30.1772577139       27.8257303535  W2        26994           0.0000000000
     77278     25760  TIP3      OH2           -36.9050966405       32.7565377139       32.0413303535  W2        26995           0.0000000000
     77279     25760  TIP3      H1            -36.0716766405       32.3785377139       31.7606903535  W2        26995           0.0000000000
     77280     25760  TIP3      H2            -36.7930666405       33.6996577139       31.9222403535  W2        26995           0.0000000000
     77281     25761  TIP3      OH2           -38.4188666405       35.6342877139       34.3481703535  W2        26996           0.0000000000
     77282     25761  TIP3      H1            -39.0663366405       35.9594377139       34.9736903535  W2        26996           0.0000000000
     77283     25761  TIP3      H2            -38.9364666405       35.1940577139       33.6740003535  W2        26996           0.0000000000
     77284     25762  TIP3      OH2           -36.3959066405       29.8726377139       23.4847003535  W2        26997           0.0000000000
     77285     25762  TIP3      H1            -36.9177966405       30.2290477139       22.7657903535  W2        26997           0.0000000000
     77286     25762  TIP3      H2            -36.4289866405       30.5474177139       24.1627903535  W2        26997           0.0000000000
     77287     25763  TIP3      OH2           -38.0470066405       27.1121977139       22.0354103535  W2        26998           0.0000000000
     77288     25763  TIP3      H1            -37.9505666405       27.7788977139       21.3553803535  W2        26998           0.0000000000
     77289     25763  TIP3      H2            -38.1870466405       26.2968277139       21.5539603535  W2        26998           0.0000000000
     77290     25764  TIP3      OH2           -38.8775366405       28.4924377139       27.6564403535  W2        26999           0.0000000000
     77291     25764  TIP3      H1            -39.0276566405       27.5472977139       27.6362203535  W2        26999           0.0000000000
     77292     25764  TIP3      H2            -39.2310866405       28.7735777139       28.5003503535  W2        26999           0.0000000000
     77293     25765  TIP3      OH2           -53.8422966405       30.5706577139       31.6668203535  W2        27000           0.0000000000
     77294     25765  TIP3      H1            -53.6580066405       30.4888277139       30.7311103535  W2        27000           0.0000000000
     77295     25765  TIP3      H2            -52.9930066405       30.4463577139       32.0904603535  W2        27000           0.0000000000
     77296     25766  TIP3      OH2           -38.7996266405       24.5201777139       21.1529603535  W2        27003           0.0000000000
     77297     25766  TIP3      H1            -38.1890466405       24.1488577139       21.7897803535  W2        27003           0.0000000000
     77298     25766  TIP3      H2            -39.6364766405       24.0988677139       21.3489603535  W2        27003           0.0000000000
     77299     25767  TIP3      OH2           -39.1670566405       26.0750177139       26.1189503535  W2        27004           0.0000000000
     77300     25767  TIP3      H1            -38.8873466405       25.1680577139       26.2431203535  W2        27004           0.0000000000
     77301     25767  TIP3      H2            -38.4078866405       26.5091677139       25.7298703535  W2        27004           0.0000000000
     77302     25768  TIP3      OH2           -38.5552266405       26.6567577139       31.5548403535  W2        27005           0.0000000000
     77303     25768  TIP3      H1            -37.6224266405       26.8687477139       31.5204403535  W2        27005           0.0000000000
     77304     25768  TIP3      H2            -38.7904766405       26.7579677139       32.4771403535  W2        27005           0.0000000000
     77305     25769  TIP3      OH2           -38.5260366405       27.3932877139       34.3307803535  W2        27006           0.0000000000
     77306     25769  TIP3      H1            -39.3689066405       27.6613277139       34.6967603535  W2        27006           0.0000000000
     77307     25769  TIP3      H2            -38.0836066405       28.2154777139       34.1198903535  W2        27006           0.0000000000
     77308     25770  TIP3      OH2           -38.5535766405       23.3379477139       26.1671503535  W2        27009           0.0000000000
     77309     25770  TIP3      H1            -38.3710766405       22.8890977139       26.9926503535  W2        27009           0.0000000000
     77310     25770  TIP3      H2            -39.1532866405       22.7533877139       25.7036103535  W2        27009           0.0000000000
     77311     25771  TIP3      OH2           -53.0235666405       24.1533177139       30.6989903535  W2        27010           0.0000000000
     77312     25771  TIP3      H1            -52.5784066405       23.3615677139       31.0009603535  W2        27010           0.0000000000
     77313     25771  TIP3      H2            -52.5572666405       24.8698377139       31.1295503535  W2        27010           0.0000000000
     77314     25772  TIP3      OH2           -54.7195366405       27.1526177139       31.7680103535  W2        27011           0.0000000000
     77315     25772  TIP3      H1            -54.2275566405       26.9316677139       30.9772103535  W2        27011           0.0000000000
     77316     25772  TIP3      H2            -54.3574466405       27.9929577139       32.0489603535  W2        27011           0.0000000000
     77317     25773  TIP3      OH2           -36.6869566405       23.4057577139       22.6951803535  W2        27013           0.0000000000
     77318     25773  TIP3      H1            -36.2746966405       22.6843277139       22.2199803535  W2        27013           0.0000000000
     77319     25773  TIP3      H2            -36.0053066405       24.0752177139       22.7536103535  W2        27013           0.0000000000
     77320     25774  TIP3      OH2           -54.4058866405       23.4105277139       25.8222503535  W2        27014           0.0000000000
     77321     25774  TIP3      H1            -55.3310466405       23.6191877139       25.6928003535  W2        27014           0.0000000000
     77322     25774  TIP3      H2            -53.9518966405       23.8946077139       25.1324803535  W2        27014           0.0000000000
     77323     25775  TIP3      OH2           -39.6351666405       38.3946977139       27.7679903535  W2        27015           0.0000000000
     77324     25775  TIP3      H1            -38.9828766405       38.0469077139       27.1599003535  W2        27015           0.0000000000
     77325     25775  TIP3      H2            -39.1247866405       38.8830177139       28.4139603535  W2        27015           0.0000000000
     77326     25776  TIP3      OH2           -54.4423466405       22.1484277139       34.1665003535  W2        27016           0.0000000000
     77327     25776  TIP3      H1            -55.1072966405       21.9024577139       34.8095903535  W2        27016           0.0000000000
     77328     25776  TIP3      H2            -54.8852166405       22.7704677139       33.5893003535  W2        27016           0.0000000000
     77329     25777  TIP3      OH2           -49.2961266405       36.2979577139       34.5694803535  W2        27018           0.0000000000
     77330     25777  TIP3      H1            -49.7210166405       37.1078077139       34.2869403535  W2        27018           0.0000000000
     77331     25777  TIP3      H2            -48.3918466405       36.3833677139       34.2674603535  W2        27018           0.0000000000
     77332     25778  TIP3      OH2           -51.8944566405       39.5543477139       34.6170103535  W2        27022           0.0000000000
     77333     25778  TIP3      H1            -52.6148166405       39.9944477139       34.1657803535  W2        27022           0.0000000000
     77334     25778  TIP3      H2            -52.2600566405       39.3038177139       35.4654103535  W2        27022           0.0000000000
     77335     25779  TIP3      OH2           -49.4271966405       39.1547377139       33.6467303535  W2        27023           0.0000000000
     77336     25779  TIP3      H1            -50.2919766405       39.2265877139       34.0507403535  W2        27023           0.0000000000
     77337     25779  TIP3      H2            -49.4822966405       39.7014677139       32.8629803535  W2        27023           0.0000000000
     77338     25780  TIP3      OH2           -44.7166366405       39.0426277139       32.8223303535  W2        27024           0.0000000000
     77339     25780  TIP3      H1            -45.1732366405       39.5715977139       32.1681703535  W2        27024           0.0000000000
     77340     25780  TIP3      H2            -44.5538366405       39.6457677139       33.5475603535  W2        27024           0.0000000000
     77341     25781  TIP3      OH2           -42.3890066405       37.9205877139       33.7673603535  W2        27025           0.0000000000
     77342     25781  TIP3      H1            -43.2936366405       38.0856077139       33.5015703535  W2        27025           0.0000000000
     77343     25781  TIP3      H2            -41.9601466405       38.7738077139       33.7017003535  W2        27025           0.0000000000
     77344     25782  TIP3      OH2           -39.7848166405       39.4904977139       34.0621403535  W2        27026           0.0000000000
     77345     25782  TIP3      H1            -39.9666166405       40.4063877139       33.8516303535  W2        27026           0.0000000000
     77346     25782  TIP3      H2            -39.6080366405       39.0802077139       33.2156003535  W2        27026           0.0000000000
     77347     25783  TIP3      OH2           -52.4796466405       38.1775977139       31.5271903535  W2        27027           0.0000000000
     77348     25783  TIP3      H1            -52.4980466405       37.7521077139       32.3844203535  W2        27027           0.0000000000
     77349     25783  TIP3      H2            -51.6748566405       37.8590977139       31.1184103535  W2        27027           0.0000000000
     77350     25784  TIP3      OH2           -50.3383366405       36.8874677139       30.1821803535  W2        27028           0.0000000000
     77351     25784  TIP3      H1            -50.5572666405       35.9712077139       30.3517803535  W2        27028           0.0000000000
     77352     25784  TIP3      H2            -49.5141166405       37.0275077139       30.6483203535  W2        27028           0.0000000000
     77353     25785  TIP3      OH2           -47.8010866405       37.3573977139       31.0309803535  W2        27029           0.0000000000
     77354     25785  TIP3      H1            -47.5885166405       36.4692977139       30.7440703535  W2        27029           0.0000000000
     77355     25785  TIP3      H2            -47.7365766405       37.3231677139       31.9853803535  W2        27029           0.0000000000
     77356     25786  TIP3      OH2           -44.2927166405       23.0214577139       30.1753103535  W2        27030           0.0000000000
     77357     25786  TIP3      H1            -44.9670366405       22.3920177139       30.4308903535  W2        27030           0.0000000000
     77358     25786  TIP3      H2            -43.7287966405       22.5373477139       29.5721003535  W2        27030           0.0000000000
     77359     25787  TIP3      OH2           -39.1499966405       21.1288577139       30.2880203535  W2        27031           0.0000000000
     77360     25787  TIP3      H1            -38.5462366405       21.6763977139       29.7861203535  W2        27031           0.0000000000
     77361     25787  TIP3      H2            -40.0197966405       21.4478977139       30.0474303535  W2        27031           0.0000000000
     77362     25788  TIP3      OH2           -37.4229566405       22.2677277139       28.6211103535  W2        27032           0.0000000000
     77363     25788  TIP3      H1            -36.8112066405       21.7532977139       28.0944703535  W2        27032           0.0000000000
     77364     25788  TIP3      H2            -37.0406166405       23.1449377139       28.6445503535  W2        27032           0.0000000000
     77365     25789  TIP3      OH2           -51.9659666405       21.6554877139       27.9973003535  W2        27033           0.0000000000
     77366     25789  TIP3      H1            -52.7429866405       21.4209777139       27.4898903535  W2        27033           0.0000000000
     77367     25789  TIP3      H2            -51.4356066405       20.8586977139       28.0061003535  W2        27033           0.0000000000
     77368     25790  TIP3      OH2           -53.1296266405       21.4532977139       23.8009103535  W2        27034           0.0000000000
     77369     25790  TIP3      H1            -52.6905566405       22.0643477139       23.2092603535  W2        27034           0.0000000000
     77370     25790  TIP3      H2            -53.7633866405       21.9917077139       24.2749103535  W2        27034           0.0000000000
     77371     25791  TIP3      OH2           -47.3867066405       21.5821977139       27.8106103535  W2        27035           0.0000000000
     77372     25791  TIP3      H1            -46.5123666405       21.9706277139       27.7810403535  W2        27035           0.0000000000
     77373     25791  TIP3      H2            -47.5226266405       21.3669777139       28.7333303535  W2        27035           0.0000000000
     77374     25792  TIP3      OH2           -41.8298666405       21.6121777139       29.4597803535  W2        27036           0.0000000000
     77375     25792  TIP3      H1            -41.7537066405       21.7073377139       28.5103803535  W2        27036           0.0000000000
     77376     25792  TIP3      H2            -42.1049466405       20.7044677139       29.5886903535  W2        27036           0.0000000000
     77377     25793  TIP3      OH2           -40.4766066405       21.6379577139       25.1522803535  W2        27037           0.0000000000
     77378     25793  TIP3      H1            -41.1794966405       22.2528777139       24.9424203535  W2        27037           0.0000000000
     77379     25793  TIP3      H2            -40.9214666405       20.8006277139       25.2833703535  W2        27037           0.0000000000
     77380     25794  TIP3      OH2           -53.2286766405       37.4015177139       24.6984203535  W2        27038           0.0000000000
     77381     25794  TIP3      H1            -53.9136866405       37.3634077139       24.0309303535  W2        27038           0.0000000000
     77382     25794  TIP3      H2            -53.2249566405       38.3142777139       24.9866303535  W2        27038           0.0000000000
     77383     25795  TIP3      OH2           -51.2687166405       23.3694477139       22.2433203535  W2        27039           0.0000000000
     77384     25795  TIP3      H1            -50.7773766405       22.7396877139       21.7158703535  W2        27039           0.0000000000
     77385     25795  TIP3      H2            -50.6450866405       23.6653877139       22.9064403535  W2        27039           0.0000000000
     77386     25796  TIP3      OH2           -46.2427066405       23.6625977139       24.7003703535  W2        27040           0.0000000000
     77387     25796  TIP3      H1            -46.0645766405       23.0159177139       25.3832303535  W2        27040           0.0000000000
     77388     25796  TIP3      H2            -46.2960866405       24.4963677139       25.1674803535  W2        27040           0.0000000000
     77389     25797  TIP3      OH2           -44.3643266405       38.6110077139       23.0960403535  W2        27041           0.0000000000
     77390     25797  TIP3      H1            -43.4983066405       38.9777477139       22.9178603535  W2        27041           0.0000000000
     77391     25797  TIP3      H2            -44.6110466405       38.1718077139       22.2821203535  W2        27041           0.0000000000
     77392     25798  TIP3      OH2           -37.6553666405       38.1740377139       25.7751503535  W2        27042           0.0000000000
     77393     25798  TIP3      H1            -37.8496566405       37.4262477139       25.2101103535  W2        27042           0.0000000000
     77394     25798  TIP3      H2            -37.6943566405       38.9320477139       25.1919403535  W2        27042           0.0000000000
     77395     25799  TIP3      OH2           -51.4105566405       38.3215977139       21.7236303535  W2        27045           0.0000000000
     77396     25799  TIP3      H1            -51.6780966405       38.6078877139       22.5969403535  W2        27045           0.0000000000
     77397     25799  TIP3      H2            -50.6392966405       37.7755177139       21.8758803535  W2        27045           0.0000000000
     77398     25800  TIP3      OH2           -24.0317066405       30.8117177139       27.9560503535  W2        27048           0.0000000000
     77399     25800  TIP3      H1            -23.9425966405       31.7555377139       27.8237603535  W2        27048           0.0000000000
     77400     25800  TIP3      H2            -24.6699466405       30.5363577139       27.2979903535  W2        27048           0.0000000000
     77401     25801  TIP3      OH2           -25.0985766405       30.0667877139       31.3748703535  W2        27049           0.0000000000
     77402     25801  TIP3      H1            -25.1368266405       29.4204177139       32.0798303535  W2        27049           0.0000000000
     77403     25801  TIP3      H2            -25.4209266405       29.6002277139       30.6037403535  W2        27049           0.0000000000
     77404     25802  TIP3      OH2           -32.7300766405       29.6809977139       32.9678603535  W2        27050           0.0000000000
     77405     25802  TIP3      H1            -32.6888666405       29.0553277139       33.6911003535  W2        27050           0.0000000000
     77406     25802  TIP3      H2            -32.0273066405       30.3048577139       33.1499003535  W2        27050           0.0000000000
     77407     25803  TIP3      OH2           -21.3925566405       33.0058277139       29.6763803535  W2        27051           0.0000000000
     77408     25803  TIP3      H1            -21.8332866405       32.2854277139       30.1269403535  W2        27051           0.0000000000
     77409     25803  TIP3      H2            -21.4055866405       33.7265477139       30.3061503535  W2        27051           0.0000000000
     77410     25804  TIP3      OH2           -31.8067666405       34.1308877139       31.5027703535  W2        27052           0.0000000000
     77411     25804  TIP3      H1            -32.1762466405       33.3289377139       31.1332003535  W2        27052           0.0000000000
     77412     25804  TIP3      H2            -30.8656566405       33.9623777139       31.5491103535  W2        27052           0.0000000000
     77413     25805  TIP3      OH2           -35.1967166405       27.7911477139       26.8956503535  W2        27053           0.0000000000
     77414     25805  TIP3      H1            -35.6443766405       28.6370177139       26.8773003535  W2        27053           0.0000000000
     77415     25805  TIP3      H2            -35.7575966405       27.2115677139       26.3801603535  W2        27053           0.0000000000
     77416     25806  TIP3      OH2           -34.4861066405       29.9531077139       29.0214503535  W2        27054           0.0000000000
     77417     25806  TIP3      H1            -34.2727566405       29.1832677139       29.5487503535  W2        27054           0.0000000000
     77418     25806  TIP3      H2            -33.7483466405       30.0427777139       28.4182103535  W2        27054           0.0000000000
     77419     25807  TIP3      OH2           -24.2810066405       38.1099977139       29.8884203535  W2        27055           0.0000000000
     77420     25807  TIP3      H1            -23.6613666405       37.4334677139       29.6153403535  W2        27055           0.0000000000
     77421     25807  TIP3      H2            -24.4892666405       37.8920777139       30.7969103535  W2        27055           0.0000000000
     77422     25808  TIP3      OH2           -26.7091366405       32.4989277139       31.7809703535  W2        27056           0.0000000000
     77423     25808  TIP3      H1            -26.4053466405       31.8130677139       31.1863803535  W2        27056           0.0000000000
     77424     25808  TIP3      H2            -25.9877366405       32.6177977139       32.3987703535  W2        27056           0.0000000000
     77425     25809  TIP3      OH2           -18.0461566405       24.1004577139       32.6415903535  W2        27057           0.0000000000
     77426     25809  TIP3      H1            -17.9969366405       24.7105777139       33.3775003535  W2        27057           0.0000000000
     77427     25809  TIP3      H2            -17.6206466405       24.5615477139       31.9187003535  W2        27057           0.0000000000
     77428     25810  TIP3      OH2           -23.5684366405       26.8931677139       32.1084503535  W2        27058           0.0000000000
     77429     25810  TIP3      H1            -23.4258466405       25.9468677139       32.1286103535  W2        27058           0.0000000000
     77430     25810  TIP3      H2            -23.6745366405       27.1001477139       31.1799403535  W2        27058           0.0000000000
     77431     25811  TIP3      OH2           -30.4136066405       24.9948077139       29.3809303535  W2        27059           0.0000000000
     77432     25811  TIP3      H1            -30.3704966405       25.8546577139       28.9625603535  W2        27059           0.0000000000
     77433     25811  TIP3      H2            -30.8711966405       24.4422777139       28.7472503535  W2        27059           0.0000000000
     77434     25812  TIP3      OH2           -22.6913366405       25.1253677139       27.7817603535  W2        27060           0.0000000000
     77435     25812  TIP3      H1            -22.0449066405       24.7966877139       28.4065203535  W2        27060           0.0000000000
     77436     25812  TIP3      H2            -22.1813966405       25.6432677139       27.1589003535  W2        27060           0.0000000000
     77437     25813  TIP3      OH2           -33.7934566405       27.3913877139       30.1430703535  W2        27061           0.0000000000
     77438     25813  TIP3      H1            -33.1397966405       26.8415577139       30.5750803535  W2        27061           0.0000000000
     77439     25813  TIP3      H2            -33.7695266405       27.1172877139       29.2262703535  W2        27061           0.0000000000
     77440     25814  TIP3      OH2           -28.6370066405       28.9415177139       29.3582203535  W2        27062           0.0000000000
     77441     25814  TIP3      H1            -28.0209066405       28.4150577139       29.8676203535  W2        27062           0.0000000000
     77442     25814  TIP3      H2            -29.2231266405       28.3013877139       28.9545803535  W2        27062           0.0000000000
     77443     25815  TIP3      OH2           -17.6546966405       25.5783777139       34.8775703535  W2        27063           0.0000000000
     77444     25815  TIP3      H1            -18.3432366405       26.2364477139       34.7822303535  W2        27063           0.0000000000
     77445     25815  TIP3      H2            -17.6392366405       25.3811677139       35.8141103535  W2        27063           0.0000000000
     77446     25816  TIP3      OH2           -31.6034166405       23.9126477139       33.4550103535  W2        27064           0.0000000000
     77447     25816  TIP3      H1            -31.8222466405       24.4427077139       32.6886103535  W2        27064           0.0000000000
     77448     25816  TIP3      H2            -32.2713266405       24.1391977139       34.1021503535  W2        27064           0.0000000000
     77449     25817  TIP3      OH2           -24.2344366405       33.4127577139       26.9989203535  W2        27065           0.0000000000
     77450     25817  TIP3      H1            -24.5299266405       33.0899877139       26.1476103535  W2        27065           0.0000000000
     77451     25817  TIP3      H2            -24.5586566405       34.3124277139       27.0401803535  W2        27065           0.0000000000
     77452     25818  TIP3      OH2           -29.0342766405       31.5882177139       33.7423803535  W2        27066           0.0000000000
     77453     25818  TIP3      H1            -29.7743666405       32.1863677139       33.8459003535  W2        27066           0.0000000000
     77454     25818  TIP3      H2            -28.3203266405       32.1421777139       33.4267403535  W2        27066           0.0000000000
     77455     25819  TIP3      OH2           -20.9274966405       24.4162977139       29.7623503535  W2        27067           0.0000000000
     77456     25819  TIP3      H1            -21.1426966405       23.6506377139       30.2949503535  W2        27067           0.0000000000
     77457     25819  TIP3      H2            -20.2717566405       24.8887577139       30.2752003535  W2        27067           0.0000000000
     77458     25820  TIP3      OH2           -32.0096866405       25.8048277139       31.4072303535  W2        27068           0.0000000000
     77459     25820  TIP3      H1            -31.3960566405       26.4375877139       31.7804703535  W2        27068           0.0000000000
     77460     25820  TIP3      H2            -31.4976166405       25.3323277139       30.7509203535  W2        27068           0.0000000000
     77461     25821  TIP3      OH2           -30.6268466405       33.5525177139       34.5295303535  W2        27069           0.0000000000
     77462     25821  TIP3      H1            -30.6320866405       34.4318677139       34.1514603535  W2        27069           0.0000000000
     77463     25821  TIP3      H2            -31.4804366405       33.4689277139       34.9545203535  W2        27069           0.0000000000
     77464     25822  TIP3      OH2           -34.5057566405       33.2233077139       25.3114603535  W2        27070           0.0000000000
     77465     25822  TIP3      H1            -34.7776666405       33.4524077139       24.4227503535  W2        27070           0.0000000000
     77466     25822  TIP3      H2            -34.4601866405       34.0611877139       25.7719903535  W2        27070           0.0000000000
     77467     25823  TIP3      OH2           -20.8807866405       34.8448977139       32.0243103535  W2        27071           0.0000000000
     77468     25823  TIP3      H1            -21.8224166405       34.9032877139       32.1860003535  W2        27071           0.0000000000
     77469     25823  TIP3      H2            -20.6041766405       35.7509477139       31.8872803535  W2        27071           0.0000000000
     77470     25824  TIP3      OH2           -20.5800866405       23.1314277139       33.4417003535  W2        27072           0.0000000000
     77471     25824  TIP3      H1            -21.3161666405       23.7421377139       33.4038303535  W2        27072           0.0000000000
     77472     25824  TIP3      H2            -19.8966866405       23.5463277139       32.9153403535  W2        27072           0.0000000000
     77473     25825  TIP3      OH2           -27.5769466405       21.2181577139       30.9075003535  W2        27073           0.0000000000
     77474     25825  TIP3      H1            -27.6945266405       20.2697577139       30.8533303535  W2        27073           0.0000000000
     77475     25825  TIP3      H2            -28.4319366405       21.5507677139       31.1806103535  W2        27073           0.0000000000
     77476     25826  TIP3      OH2           -22.6286666405       36.6262477139       28.6494703535  W2        27074           0.0000000000
     77477     25826  TIP3      H1            -22.2034366405       35.9190377139       28.1644303535  W2        27074           0.0000000000
     77478     25826  TIP3      H2            -22.3116666405       37.4275177139       28.2326903535  W2        27074           0.0000000000
     77479     25827  TIP3      OH2           -21.4690166405       34.5270977139       27.1581303535  W2        27075           0.0000000000
     77480     25827  TIP3      H1            -21.7265366405       33.8371077139       26.5467203535  W2        27075           0.0000000000
     77481     25827  TIP3      H2            -21.3979366405       34.0842177139       28.0037203535  W2        27075           0.0000000000
     77482     25828  TIP3      OH2           -25.3104566405       30.0557177139       25.4080803535  W2        27077           0.0000000000
     77483     25828  TIP3      H1            -26.0219066405       30.5906877139       25.0561303535  W2        27077           0.0000000000
     77484     25828  TIP3      H2            -24.6194966405       30.1109277139       24.7479703535  W2        27077           0.0000000000
     77485     25829  TIP3      OH2           -25.2565366405       28.5131477139       22.4465803535  W2        27078           0.0000000000
     77486     25829  TIP3      H1            -24.5555466405       28.5358377139       23.0979803535  W2        27078           0.0000000000
     77487     25829  TIP3      H2            -24.9542466405       27.8851177139       21.7905103535  W2        27078           0.0000000000
     77488     25830  TIP3      OH2           -17.9410666405       29.4335677139       33.7015203535  W2        27079           0.0000000000
     77489     25830  TIP3      H1            -18.5936566405       30.1281277139       33.7906103535  W2        27079           0.0000000000
     77490     25830  TIP3      H2            -17.4760366405       29.6436577139       32.8916803535  W2        27079           0.0000000000
     77491     25831  TIP3      OH2           -21.9046866405       30.2650477139       26.3596703535  W2        27080           0.0000000000
     77492     25831  TIP3      H1            -22.6365866405       30.4934177139       26.9327303535  W2        27080           0.0000000000
     77493     25831  TIP3      H2            -21.4574666405       29.5513177139       26.8144203535  W2        27080           0.0000000000
     77494     25832  TIP3      OH2           -22.0073366405       28.4393077139       35.4273703535  W2        27081           0.0000000000
     77495     25832  TIP3      H1            -21.9274266405       29.2027477139       35.9992203535  W2        27081           0.0000000000
     77496     25832  TIP3      H2            -22.6085666405       28.7185477139       34.7368803535  W2        27081           0.0000000000
     77497     25833  TIP3      OH2           -30.2593166405       30.8956677139       28.2421703535  W2        27082           0.0000000000
     77498     25833  TIP3      H1            -30.5897966405       30.5250077139       27.4238703535  W2        27082           0.0000000000
     77499     25833  TIP3      H2            -29.6709066405       30.2250677139       28.5890003535  W2        27082           0.0000000000
     77500     25834  TIP3      OH2           -28.8925666405       34.3237277139       30.9233903535  W2        27083           0.0000000000
     77501     25834  TIP3      H1            -28.9874366405       33.7450377139       30.1668503535  W2        27083           0.0000000000
     77502     25834  TIP3      H2            -28.1632066405       33.9522977139       31.4196703535  W2        27083           0.0000000000
     77503     25835  TIP3      OH2           -29.8927666405       29.6642277139       31.8756703535  W2        27084           0.0000000000
     77504     25835  TIP3      H1            -29.3275166405       29.7856477139       31.1127903535  W2        27084           0.0000000000
     77505     25835  TIP3      H2            -29.5738766405       30.3017277139       32.5145203535  W2        27084           0.0000000000
     77506     25836  TIP3      OH2           -23.5835466405       35.1674177139       32.6097203535  W2        27085           0.0000000000
     77507     25836  TIP3      H1            -23.8238866405       35.8297277139       33.2576403535  W2        27085           0.0000000000
     77508     25836  TIP3      H2            -23.7817266405       34.3329377139       33.0346803535  W2        27085           0.0000000000
     77509     25837  TIP3      OH2           -23.0337366405       29.4273377139       24.0447903535  W2        27087           0.0000000000
     77510     25837  TIP3      H1            -22.4541866405       29.5773677139       24.7916803535  W2        27087           0.0000000000
     77511     25837  TIP3      H2            -22.6197366405       29.8980777139       23.3214303535  W2        27087           0.0000000000
     77512     25838  TIP3      OH2           -25.3072466405       36.1641877139       27.4801003535  W2        27089           0.0000000000
     77513     25838  TIP3      H1            -24.8334866405       36.4598177139       28.2575203535  W2        27089           0.0000000000
     77514     25838  TIP3      H2            -25.8703166405       36.9023477139       27.2470603535  W2        27089           0.0000000000
     77515     25839  TIP3      OH2           -19.3348966405       21.1773777139       23.8577603535  W2        27091           0.0000000000
     77516     25839  TIP3      H1            -20.2348266405       21.3162777139       24.1528203535  W2        27091           0.0000000000
     77517     25839  TIP3      H2            -19.0830566405       22.0088377139       23.4559303535  W2        27091           0.0000000000
     77518     25840  TIP3      OH2           -31.2690466405       29.9650977139       25.8314503535  W2        27092           0.0000000000
     77519     25840  TIP3      H1            -31.5609166405       30.7332677139       25.3405803535  W2        27092           0.0000000000
     77520     25840  TIP3      H2            -31.9435266405       29.3057177139       25.6685903535  W2        27092           0.0000000000
     77521     25841  TIP3      OH2           -18.1457566405       35.5436177139       22.2341503535  W2        27093           0.0000000000
     77522     25841  TIP3      H1            -18.0724066405       36.4826377139       22.4046803535  W2        27093           0.0000000000
     77523     25841  TIP3      H2            -17.2402466405       35.2384777139       22.1778803535  W2        27093           0.0000000000
     77524     25842  TIP3      OH2           -35.1760366405       32.3280177139       34.6464303535  W2        27094           0.0000000000
     77525     25842  TIP3      H1            -35.6771966405       32.2999577139       33.8314003535  W2        27094           0.0000000000
     77526     25842  TIP3      H2            -35.1706666405       31.4223377139       34.9561603535  W2        27094           0.0000000000
     77527     25843  TIP3      OH2           -35.4257666405       35.1083977139       31.5304503535  W2        27095           0.0000000000
     77528     25843  TIP3      H1            -34.4797066405       34.9640977139       31.5114003535  W2        27095           0.0000000000
     77529     25843  TIP3      H2            -35.5381366405       35.8926777139       32.0675703535  W2        27095           0.0000000000
     77530     25844  TIP3      OH2           -25.8349366405       39.1206577139       25.8950203535  W2        27098           0.0000000000
     77531     25844  TIP3      H1            -25.9103366405       38.9993777139       24.9485403535  W2        27098           0.0000000000
     77532     25844  TIP3      H2            -25.8020666405       40.0699277139       26.0134803535  W2        27098           0.0000000000
     77533     25845  TIP3      OH2           -32.1815566405       37.9093577139       27.6759203535  W2        27099           0.0000000000
     77534     25845  TIP3      H1            -32.0295166405       37.5613977139       28.5545703535  W2        27099           0.0000000000
     77535     25845  TIP3      H2            -33.0325166405       37.5530877139       27.4206403535  W2        27099           0.0000000000
     77536     25846  TIP3      OH2           -22.7333366405       38.2746777139       22.8972603535  W2        27100           0.0000000000
     77537     25846  TIP3      H1            -22.3584966405       37.5302877139       22.4265203535  W2        27100           0.0000000000
     77538     25846  TIP3      H2            -22.7289666405       38.0047377139       23.8155903535  W2        27100           0.0000000000
     77539     25847  TIP3      OH2           -23.0645266405       38.2003877139       25.6464803535  W2        27101           0.0000000000
     77540     25847  TIP3      H1            -23.9995466405       38.3005777139       25.8251803535  W2        27101           0.0000000000
     77541     25847  TIP3      H2            -22.7843366405       37.4909877139       26.2248003535  W2        27101           0.0000000000
     77542     25848  TIP3      OH2           -30.3081866405       22.1216077139       31.6851303535  W2        27104           0.0000000000
     77543     25848  TIP3      H1            -31.1698166405       22.0344277139       31.2774203535  W2        27104           0.0000000000
     77544     25848  TIP3      H2            -30.3306166405       22.9776177139       32.1128903535  W2        27104           0.0000000000
     77545     25849  TIP3      OH2           -25.6454066405       21.8436477139       35.0598303535  W2        27105           0.0000000000
     77546     25849  TIP3      H1            -25.2250966405       21.4283577139       35.8128903535  W2        27105           0.0000000000
     77547     25849  TIP3      H2            -26.5784466405       21.6649777139       35.1770303535  W2        27105           0.0000000000
     77548     25850  TIP3      OH2           -21.5564266405       30.4601677139       21.6745803535  W2        27107           0.0000000000
     77549     25850  TIP3      H1            -21.5143466405       30.2375577139       20.7445803535  W2        27107           0.0000000000
     77550     25850  TIP3      H2            -20.7072166405       30.8588777139       21.8645703535  W2        27107           0.0000000000
     77551     25851  TIP3      OH2           -25.9836766405       24.3359877139       22.3449103535  W2        27108           0.0000000000
     77552     25851  TIP3      H1            -26.2371966405       24.3551477139       23.2677203535  W2        27108           0.0000000000
     77553     25851  TIP3      H2            -26.2404666405       23.4645277139       22.0435303535  W2        27108           0.0000000000
     77554     25852  TIP3      OH2           -30.2171766405       27.0870577139       32.7801503535  W2        27109           0.0000000000
     77555     25852  TIP3      H1            -30.8589666405       27.0467877139       33.4891603535  W2        27109           0.0000000000
     77556     25852  TIP3      H2            -30.1799766405       28.0135277139       32.5424503535  W2        27109           0.0000000000
     77557     25853  TIP3      OH2           -30.2202666405       27.3080677139       27.6921503535  W2        27110           0.0000000000
     77558     25853  TIP3      H1            -31.1129766405       26.9676777139       27.6335303535  W2        27110           0.0000000000
     77559     25853  TIP3      H2            -29.7696066405       26.9311577139       26.9364703535  W2        27110           0.0000000000
     77560     25854  TIP3      OH2           -24.6847166405       27.7240977139       26.5092303535  W2        27111           0.0000000000
     77561     25854  TIP3      H1            -25.0936866405       28.5389577139       26.2177103535  W2        27111           0.0000000000
     77562     25854  TIP3      H2            -23.9640966405       27.5841077139       25.8949403535  W2        27111           0.0000000000
     77563     25855  TIP3      OH2           -23.6799466405       27.1701377139       29.3232003535  W2        27113           0.0000000000
     77564     25855  TIP3      H1            -23.8754966405       27.7758177139       28.6082603535  W2        27113           0.0000000000
     77565     25855  TIP3      H2            -23.4986866405       26.3366577139       28.8888303535  W2        27113           0.0000000000
     77566     25856  TIP3      OH2           -32.4671266405       27.4074077139       34.6473503535  W2        27114           0.0000000000
     77567     25856  TIP3      H1            -32.5051866405       27.8075677139       35.5160603535  W2        27114           0.0000000000
     77568     25856  TIP3      H2            -32.9580166405       26.5906477139       34.7376403535  W2        27114           0.0000000000
     77569     25857  TIP3      OH2           -29.1013866405       24.7816377139       21.4459503535  W2        27115           0.0000000000
     77570     25857  TIP3      H1            -29.5323166405       24.3366477139       22.1756903535  W2        27115           0.0000000000
     77571     25857  TIP3      H2            -29.8195166405       25.1532677139       20.9337003535  W2        27115           0.0000000000
     77572     25858  TIP3      OH2           -35.8590466405       24.5235877139       28.4978203535  W2        27116           0.0000000000
     77573     25858  TIP3      H1            -35.2282766405       24.4947977139       29.2172103535  W2        27116           0.0000000000
     77574     25858  TIP3      H2            -35.4096166405       24.0984577139       27.7674103535  W2        27116           0.0000000000
     77575     25859  TIP3      OH2           -34.5848366405       25.2697877139       23.9218603535  W2        27117           0.0000000000
     77576     25859  TIP3      H1            -34.1106666405       25.8607777139       23.3369503535  W2        27117           0.0000000000
     77577     25859  TIP3      H2            -35.3021966405       25.8000777139       24.2688703535  W2        27117           0.0000000000
     77578     25860  TIP3      OH2           -24.4160266405       28.8082677139       33.9944403535  W2        27118           0.0000000000
     77579     25860  TIP3      H1            -24.0925466405       28.1772377139       33.3514903535  W2        27118           0.0000000000
     77580     25860  TIP3      H2            -24.8560966405       28.2734877139       34.6551803535  W2        27118           0.0000000000
     77581     25861  TIP3      OH2           -27.6387366405       24.7358177139       28.7785603535  W2        27119           0.0000000000
     77582     25861  TIP3      H1            -28.5496266405       24.7924977139       29.0671603535  W2        27119           0.0000000000
     77583     25861  TIP3      H2            -27.1334466405       24.6753677139       29.5892803535  W2        27119           0.0000000000
     77584     25862  TIP3      OH2           -32.8103966405       26.3644477139       27.6053203535  W2        27120           0.0000000000
     77585     25862  TIP3      H1            -33.6995966405       26.4639977139       27.2652803535  W2        27120           0.0000000000
     77586     25862  TIP3      H2            -32.5139066405       25.5227477139       27.2591103535  W2        27120           0.0000000000
     77587     25863  TIP3      OH2           -29.1572166405       26.3647077139       25.2617803535  W2        27121           0.0000000000
     77588     25863  TIP3      H1            -28.2256666405       26.4937077139       25.4400903535  W2        27121           0.0000000000
     77589     25863  TIP3      H2            -29.3721866405       27.0341377139       24.6122503535  W2        27121           0.0000000000
     77590     25864  TIP3      OH2           -23.2335466405       23.9704477139       32.0427403535  W2        27122           0.0000000000
     77591     25864  TIP3      H1            -23.9103866405       24.1017577139       32.7067103535  W2        27122           0.0000000000
     77592     25864  TIP3      H2            -23.7190566405       23.8153977139       31.2325103535  W2        27122           0.0000000000
     77593     25865  TIP3      OH2           -30.4831966405       27.5589277139       22.8283903535  W2        27123           0.0000000000
     77594     25865  TIP3      H1            -31.0256866405       27.1793077139       22.1371503535  W2        27123           0.0000000000
     77595     25865  TIP3      H2            -29.6497066405       27.7533977139       22.3998003535  W2        27123           0.0000000000
     77596     25866  TIP3      OH2           -26.3187666405       27.5231177139       30.6655203535  W2        27126           0.0000000000
     77597     25866  TIP3      H1            -25.7544266405       26.9767777139       30.1184803535  W2        27126           0.0000000000
     77598     25866  TIP3      H2            -26.4664266405       27.0013077139       31.4542803535  W2        27126           0.0000000000
     77599     25867  TIP3      OH2           -31.3167966405       23.6597277139       27.0840003535  W2        27127           0.0000000000
     77600     25867  TIP3      H1            -31.6338466405       22.7572577139       27.0485403535  W2        27127           0.0000000000
     77601     25867  TIP3      H2            -30.5353866405       23.6614677139       26.5311603535  W2        27127           0.0000000000
     77602     25868  TIP3      OH2           -27.6921766405       25.9117277139       33.0795603535  W2        27128           0.0000000000
     77603     25868  TIP3      H1            -28.5276466405       26.3656777139       33.1898003535  W2        27128           0.0000000000
     77604     25868  TIP3      H2            -27.1681166405       26.1875777139       33.8315503535  W2        27128           0.0000000000
     77605     25869  TIP3      OH2           -27.1479166405       32.1244977139       24.7642003535  W2        27129           0.0000000000
     77606     25869  TIP3      H1            -27.8928166405       31.6170277139       24.4419903535  W2        27129           0.0000000000
     77607     25869  TIP3      H2            -27.2821966405       32.1732977139       25.7106803535  W2        27129           0.0000000000
     77608     25870  TIP3      OH2           -19.9980266405       31.2573177139       33.5509603535  W2        27130           0.0000000000
     77609     25870  TIP3      H1            -19.3561466405       31.7139477139       33.0071803535  W2        27130           0.0000000000
     77610     25870  TIP3      H2            -20.8283366405       31.3705577139       33.0883703535  W2        27130           0.0000000000
     77611     25871  TIP3      OH2           -23.2502366405       24.9384877139       22.9634603535  W2        27131           0.0000000000
     77612     25871  TIP3      H1            -24.1888166405       25.0500477139       22.8123403535  W2        27131           0.0000000000
     77613     25871  TIP3      H2            -22.9530266405       25.7951777139       23.2700303535  W2        27131           0.0000000000
     77614     25872  TIP3      OH2           -22.5318866405       26.8057577139       24.6242003535  W2        27133           0.0000000000
     77615     25872  TIP3      H1            -21.6399866405       26.6682577139       24.9433203535  W2        27133           0.0000000000
     77616     25872  TIP3      H2            -22.4755266405       27.5963677139       24.0875503535  W2        27133           0.0000000000
     77617     25873  TIP3      OH2           -32.0230866405       31.4194977139       30.5339903535  W2        27134           0.0000000000
     77618     25873  TIP3      H1            -31.2783666405       31.4170677139       29.9326403535  W2        27134           0.0000000000
     77619     25873  TIP3      H2            -31.9454266405       30.5958777139       31.0155003535  W2        27134           0.0000000000
     77620     25874  TIP3      OH2           -25.0225066405       33.5829277139       23.7896603535  W2        27135           0.0000000000
     77621     25874  TIP3      H1            -25.3176666405       34.4097177139       24.1711403535  W2        27135           0.0000000000
     77622     25874  TIP3      H2            -25.7255066405       32.9636177139       23.9858003535  W2        27135           0.0000000000
     77623     25875  TIP3      OH2           -17.6470166405       27.0151677139       24.3188703535  W2        27139           0.0000000000
     77624     25875  TIP3      H1            -18.2013866405       26.6189677139       23.6466203535  W2        27139           0.0000000000
     77625     25875  TIP3      H2            -17.5466566405       27.9256877139       24.0412003535  W2        27139           0.0000000000
     77626     25876  TIP3      OH2           -19.3518466405       35.8012077139       24.7840803535  W2        27141           0.0000000000
     77627     25876  TIP3      H1            -19.7247366405       34.9755877139       25.0931403535  W2        27141           0.0000000000
     77628     25876  TIP3      H2            -19.0744966405       35.6181477139       23.8864203535  W2        27141           0.0000000000
     77629     25877  TIP3      OH2           -22.1914566405       30.6091577139       31.8052703535  W2        27142           0.0000000000
     77630     25877  TIP3      H1            -23.1197666405       30.3773477139       31.7782003535  W2        27142           0.0000000000
     77631     25877  TIP3      H2            -21.7403466405       29.8321377139       31.4751503535  W2        27142           0.0000000000
     77632     25878  TIP3      OH2           -29.6481466405       34.9373177139       27.9381403535  W2        27143           0.0000000000
     77633     25878  TIP3      H1            -29.1209266405       35.7107577139       27.7380203535  W2        27143           0.0000000000
     77634     25878  TIP3      H2            -30.5282966405       35.1622377139       27.6365403535  W2        27143           0.0000000000
     77635     25879  TIP3      OH2           -33.8933766405       29.7997277139       22.5253803535  W2        27144           0.0000000000
     77636     25879  TIP3      H1            -33.2773866405       30.4264477139       22.9048603535  W2        27144           0.0000000000
     77637     25879  TIP3      H2            -34.7551166405       30.1157077139       22.7970303535  W2        27144           0.0000000000
     77638     25880  TIP3      OH2           -28.2209166405       32.6003077139       27.5145703535  W2        27145           0.0000000000
     77639     25880  TIP3      H1            -28.4619166405       33.5257477139       27.5561003535  W2        27145           0.0000000000
     77640     25880  TIP3      H2            -28.9615566405       32.1414377139       27.9109603535  W2        27145           0.0000000000
     77641     25881  TIP3      OH2           -27.7062566405       36.7496677139       33.8296803535  W2        27146           0.0000000000
     77642     25881  TIP3      H1            -27.3437866405       37.6042277139       33.5961203535  W2        27146           0.0000000000
     77643     25881  TIP3      H2            -27.1747366405       36.4578277139       34.5703103535  W2        27146           0.0000000000
     77644     25882  TIP3      OH2           -29.5378366405       37.6220677139       27.0597903535  W2        27147           0.0000000000
     77645     25882  TIP3      H1            -30.4877866405       37.7278077139       27.1111203535  W2        27147           0.0000000000
     77646     25882  TIP3      H2            -29.1860266405       38.4428077139       27.4045403535  W2        27147           0.0000000000
     77647     25883  TIP3      OH2           -24.1621766405       32.8487377139       33.5302403535  W2        27148           0.0000000000
     77648     25883  TIP3      H1            -24.5880466405       32.6209077139       34.3566403535  W2        27148           0.0000000000
     77649     25883  TIP3      H2            -23.5815966405       32.1099177139       33.3477703535  W2        27148           0.0000000000
     77650     25884  TIP3      OH2           -21.9592866405       33.7777877139       22.6041403535  W2        27149           0.0000000000
     77651     25884  TIP3      H1            -21.6059766405       33.3977677139       23.4084903535  W2        27149           0.0000000000
     77652     25884  TIP3      H2            -22.9079366405       33.6842677139       22.6910703535  W2        27149           0.0000000000
     77653     25885  TIP3      OH2           -17.4558466405       38.2570377139       22.8051603535  W2        27151           0.0000000000
     77654     25885  TIP3      H1            -16.7120566405       38.8430877139       22.6653203535  W2        27151           0.0000000000
     77655     25885  TIP3      H2            -18.1500366405       38.8256177139       23.1384003535  W2        27151           0.0000000000
     77656     25886  TIP3      OH2           -33.3811666405       24.6334577139       35.4069803535  W2        27152           0.0000000000
     77657     25886  TIP3      H1            -34.2739366405       24.9719977139       35.3393803535  W2        27152           0.0000000000
     77658     25886  TIP3      H2            -33.4798866405       23.7780677139       35.8250603535  W2        27152           0.0000000000
     77659     25887  TIP3      OH2           -21.0933566405       32.4499877139       24.8309303535  W2        27153           0.0000000000
     77660     25887  TIP3      H1            -21.3705966405       31.7219177139       25.3870403535  W2        27153           0.0000000000
     77661     25887  TIP3      H2            -20.1660566405       32.5691877139       25.0361903535  W2        27153           0.0000000000
     77662     25888  TIP3      OH2           -33.7299666405       36.4378977139       33.8419203535  W2        27154           0.0000000000
     77663     25888  TIP3      H1            -33.5129366405       35.5061377139       33.8108903535  W2        27154           0.0000000000
     77664     25888  TIP3      H2            -33.4836166405       36.7123977139       34.7252003535  W2        27154           0.0000000000
     77665     25889  TIP3      OH2           -27.8685066405       34.8893977139       21.0511403535  W2        27155           0.0000000000
     77666     25889  TIP3      H1            -27.6295266405       34.1412077139       20.5040303535  W2        27155           0.0000000000
     77667     25889  TIP3      H2            -28.1373766405       34.5015677139       21.8839203535  W2        27155           0.0000000000
     77668     25890  TIP3      OH2           -28.9314466405       34.4597777139       23.5074003535  W2        27156           0.0000000000
     77669     25890  TIP3      H1            -28.7846466405       33.9397577139       24.2974903535  W2        27156           0.0000000000
     77670     25890  TIP3      H2            -28.9342766405       35.3665377139       23.8139903535  W2        27156           0.0000000000
     77671     25891  TIP3      OH2           -32.4783366405       31.7121077139       24.0179403535  W2        27157           0.0000000000
     77672     25891  TIP3      H1            -33.1644066405       32.0643577139       24.5849103535  W2        27157           0.0000000000
     77673     25891  TIP3      H2            -31.9555466405       32.4750677139       23.7713703535  W2        27157           0.0000000000
     77674     25892  TIP3      OH2           -24.6468266405       24.3744877139       34.2968403535  W2        27158           0.0000000000
     77675     25892  TIP3      H1            -23.9480366405       24.4483577139       34.9468103535  W2        27158           0.0000000000
     77676     25892  TIP3      H2            -25.0276866405       23.5099877139       34.4511303535  W2        27158           0.0000000000
     77677     25893  TIP3      OH2           -23.8623366405       24.0266577139       25.3940703535  W2        27159           0.0000000000
     77678     25893  TIP3      H1            -23.6425066405       24.4981977139       24.5906103535  W2        27159           0.0000000000
     77679     25893  TIP3      H2            -23.3039366405       24.4209177139       26.0641303535  W2        27159           0.0000000000
     77680     25894  TIP3      OH2           -26.1937266405       36.1571377139       24.2568203535  W2        27160           0.0000000000
     77681     25894  TIP3      H1            -27.0101166405       36.6541077139       24.3092503535  W2        27160           0.0000000000
     77682     25894  TIP3      H2            -25.6640966405       36.6324877139       23.6167003535  W2        27160           0.0000000000
     77683     25895  TIP3      OH2           -26.6623466405       25.7545377139       26.2289103535  W2        27161           0.0000000000
     77684     25895  TIP3      H1            -25.8500866405       26.2588577139       26.2750803535  W2        27161           0.0000000000
     77685     25895  TIP3      H2            -26.9070466405       25.6095077139       27.1428703535  W2        27161           0.0000000000
     77686     25896  TIP3      OH2           -26.1267066405       26.7408077139       35.4135703535  W2        27162           0.0000000000
     77687     25896  TIP3      H1            -26.0076766405       27.3143477139       36.1706103535  W2        27162           0.0000000000
     77688     25896  TIP3      H2            -25.4712466405       26.0527477139       35.5283503535  W2        27162           0.0000000000
     77689     25897  TIP3      OH2           -25.7786766405       22.8358377139       27.1670203535  W2        27163           0.0000000000
     77690     25897  TIP3      H1            -26.1253266405       23.4528977139       27.8114503535  W2        27163           0.0000000000
     77691     25897  TIP3      H2            -25.1199866405       23.3364077139       26.6855703535  W2        27163           0.0000000000
     77692     25898  TIP3      OH2           -28.8554166405       37.2008577139       24.2385103535  W2        27164           0.0000000000
     77693     25898  TIP3      H1            -28.6945466405       38.0006077139       23.7377703535  W2        27164           0.0000000000
     77694     25898  TIP3      H2            -29.0526366405       37.5074577139       25.1235703535  W2        27164           0.0000000000
     77695     25899  TIP3      OH2           -30.1209766405       23.8987777139       23.8542703535  W2        27165           0.0000000000
     77696     25899  TIP3      H1            -30.2044966405       24.7870877139       24.2009103535  W2        27165           0.0000000000
     77697     25899  TIP3      H2            -29.2309466405       23.6334477139       24.0859503535  W2        27165           0.0000000000
     77698     25900  TIP3      OH2           -21.3200266405       28.3979377139       30.3442703535  W2        27167           0.0000000000
     77699     25900  TIP3      H1            -22.1175866405       27.9829577139       30.0157703535  W2        27167           0.0000000000
     77700     25900  TIP3      H2            -20.8749166405       27.7073077139       30.8353203535  W2        27167           0.0000000000
     77701     25901  TIP3      OH2           -31.8624466405       34.3259977139       22.9147203535  W2        27168           0.0000000000
     77702     25901  TIP3      H1            -31.2702966405       35.0254777139       23.1909603535  W2        27168           0.0000000000
     77703     25901  TIP3      H2            -31.4031466405       33.8929477139       22.1951803535  W2        27168           0.0000000000
     77704     25902  TIP3      OH2           -33.5465266405       26.9902977139       22.0306603535  W2        27169           0.0000000000
     77705     25902  TIP3      H1            -33.5912666405       27.9296077139       22.2093603535  W2        27169           0.0000000000
     77706     25902  TIP3      H2            -34.4342066405       26.7547877139       21.7608703535  W2        27169           0.0000000000
     77707     25903  TIP3      OH2           -20.2335666405       37.6541877139       31.9666203535  W2        27170           0.0000000000
     77708     25903  TIP3      H1            -20.3891366405       38.3326277139       31.3095503535  W2        27170           0.0000000000
     77709     25903  TIP3      H2            -19.3009266405       37.7261177139       32.1696803535  W2        27170           0.0000000000
     77710     25904  TIP3      OH2           -32.7383266405       21.7719577139       30.7037603535  W2        27171           0.0000000000
     77711     25904  TIP3      H1            -32.9673466405       21.8312077139       29.7762603535  W2        27171           0.0000000000
     77712     25904  TIP3      H2            -33.1809866405       20.9805077139       31.0101703535  W2        27171           0.0000000000
     77713     25905  TIP3      OH2           -33.8079966405       35.7126677139       26.8643403535  W2        27172           0.0000000000
     77714     25905  TIP3      H1            -34.6401366405       36.1849377139       26.8914803535  W2        27172           0.0000000000
     77715     25905  TIP3      H2            -33.2621666405       36.2224277139       26.2656503535  W2        27172           0.0000000000
     77716     25906  TIP3      OH2           -25.8303266405       36.7525377139       21.1897403535  W2        27175           0.0000000000
     77717     25906  TIP3      H1            -26.4742266405       36.1213977139       21.5111103535  W2        27175           0.0000000000
     77718     25906  TIP3      H2            -25.0684966405       36.2213377139       20.9580903535  W2        27175           0.0000000000
     77719     25907  TIP3      OH2           -21.2260366405       36.5695277139       21.4235403535  W2        27177           0.0000000000
     77720     25907  TIP3      H1            -20.9429966405       35.7750477139       21.8762303535  W2        27177           0.0000000000
     77721     25907  TIP3      H2            -20.4862466405       36.8026277139       20.8626503535  W2        27177           0.0000000000
     77722     25908  TIP3      OH2           -30.2713066405       32.4790177139       21.2810303535  W2        27179           0.0000000000
     77723     25908  TIP3      H1            -30.2068966405       31.6849777139       21.8116703535  W2        27179           0.0000000000
     77724     25908  TIP3      H2            -29.6183866405       32.3602977139       20.5912303535  W2        27179           0.0000000000
     77725     25909  TIP3      OH2           -24.9189666405       33.5261877139       21.0168303535  W2        27181           0.0000000000
     77726     25909  TIP3      H1            -25.1875566405       33.7063977139       21.9177203535  W2        27181           0.0000000000
     77727     25909  TIP3      H2            -25.1254066405       32.6008077139       20.8854103535  W2        27181           0.0000000000
     77728     25910  TIP3      OH2           -29.1219266405       30.4516377139       23.5868303535  W2        27184           0.0000000000
     77729     25910  TIP3      H1            -29.5817266405       29.9674677139       24.2726803535  W2        27184           0.0000000000
     77730     25910  TIP3      H2            -28.8670566405       29.7831777139       22.9508803535  W2        27184           0.0000000000
     77731     25911  TIP3      OH2           -28.0508866405       28.6948177139       21.8491503535  W2        27186           0.0000000000
     77732     25911  TIP3      H1            -28.2313866405       28.5399377139       20.9219803535  W2        27186           0.0000000000
     77733     25911  TIP3      H2            -27.1008366405       28.8026877139       21.8939403535  W2        27186           0.0000000000
     77734     25912  TIP3      OH2           -18.6610566405       31.0492377139       21.2949603535  W2        27188           0.0000000000
     77735     25912  TIP3      H1            -18.9345766405       30.6247877139       20.4817903535  W2        27188           0.0000000000
     77736     25912  TIP3      H2            -18.6216466405       31.9806877139       21.0780003535  W2        27188           0.0000000000
     77737     25913  TIP3      OH2           -29.0810566405       24.0690077139       34.5178403535  W2        27190           0.0000000000
     77738     25913  TIP3      H1            -28.5453066405       24.5206777139       33.8657703535  W2        27190           0.0000000000
     77739     25913  TIP3      H2            -29.9330966405       23.9609877139       34.0952503535  W2        27190           0.0000000000
     77740     25914  TIP3      OH2           -27.4992166405       29.5086277139       34.7573603535  W2        27191           0.0000000000
     77741     25914  TIP3      H1            -26.7487366405       29.3523777139       34.1841403535  W2        27191           0.0000000000
     77742     25914  TIP3      H2            -27.8383866405       30.3602877139       34.4819103535  W2        27191           0.0000000000
     77743     25915  TIP3      OH2           -28.2755066405       21.5255777139       34.9492003535  W2        27195           0.0000000000
     77744     25915  TIP3      H1            -28.3735466405       22.4718977139       34.8438203535  W2        27195           0.0000000000
     77745     25915  TIP3      H2            -29.0178866405       21.1529577139       34.4735503535  W2        27195           0.0000000000
     77746     25916  TIP3      OH2           -28.1537166405       39.3851877139       22.8505103535  W2        27202           0.0000000000
     77747     25916  TIP3      H1            -27.2206466405       39.5430577139       22.9943503535  W2        27202           0.0000000000
     77748     25916  TIP3      H2            -28.4178366405       40.0604877139       22.2256603535  W2        27202           0.0000000000
     77749     25917  TIP3      OH2           -34.5852266405       34.0215677139       22.3333203535  W2        27203           0.0000000000
     77750     25917  TIP3      H1            -33.6713066405       34.1004577139       22.6067103535  W2        27203           0.0000000000
     77751     25917  TIP3      H2            -34.5779166405       33.3345277139       21.6668803535  W2        27203           0.0000000000
     77752     25918  TIP3      OH2           -35.9361666405       39.4144177139       27.4107103535  W2        27204           0.0000000000
     77753     25918  TIP3      H1            -36.5834566405       38.9525877139       26.8778303535  W2        27204           0.0000000000
     77754     25918  TIP3      H2            -35.5817066405       38.7427477139       27.9933303535  W2        27204           0.0000000000
     77755     25919  TIP3      OH2           -35.0662466405       37.4951177139       29.2153303535  W2        27205           0.0000000000
     77756     25919  TIP3      H1            -35.4005666405       36.6148477139       29.3873503535  W2        27205           0.0000000000
     77757     25919  TIP3      H2            -34.8440066405       37.8406177139       30.0798903535  W2        27205           0.0000000000
     77758     25920  TIP3      OH2           -17.5177666405       38.3047577139       32.1958103535  W2        27206           0.0000000000
     77759     25920  TIP3      H1            -17.5390966405       38.4895977139       33.1347503535  W2        27206           0.0000000000
     77760     25920  TIP3      H2            -16.8271466405       38.8731577139       31.8549503535  W2        27206           0.0000000000
     77761     25921  TIP3      OH2           -17.9544766405       37.8718677139       35.1177203535  W2        27207           0.0000000000
     77762     25921  TIP3      H1            -18.4416066405       37.1362777139       34.7464603535  W2        27207           0.0000000000
     77763     25921  TIP3      H2            -17.4052066405       37.4782577139       35.7956603535  W2        27207           0.0000000000
     77764     25922  TIP3      OH2           -18.2027766405       31.9180477139       25.2700003535  W2        27209           0.0000000000
     77765     25922  TIP3      H1            -17.3526366405       32.3391377139       25.3971603535  W2        27209           0.0000000000
     77766     25922  TIP3      H2            -18.1972666405       31.1780577139       25.8771403535  W2        27209           0.0000000000
     77767     25923  TIP3      OH2           -17.8082166405       29.9717877139       27.0935703535  W2        27210           0.0000000000
     77768     25923  TIP3      H1            -18.5347566405       29.4920477139       27.4913303535  W2        27210           0.0000000000
     77769     25923  TIP3      H2            -17.2268866405       30.1772577139       27.8257303535  W2        27210           0.0000000000
     77770     25924  TIP3      OH2           -18.0490966405       32.7565377139       32.0413303535  W2        27211           0.0000000000
     77771     25924  TIP3      H1            -17.2156766405       32.3785377139       31.7606903535  W2        27211           0.0000000000
     77772     25924  TIP3      H2            -17.9370666405       33.6996577139       31.9222403535  W2        27211           0.0000000000
     77773     25925  TIP3      OH2           -19.5628666405       35.6342877139       34.3481703535  W2        27212           0.0000000000
     77774     25925  TIP3      H1            -20.2103366405       35.9594377139       34.9736903535  W2        27212           0.0000000000
     77775     25925  TIP3      H2            -20.0804666405       35.1940577139       33.6740003535  W2        27212           0.0000000000
     77776     25926  TIP3      OH2           -17.5399066405       29.8726377139       23.4847003535  W2        27213           0.0000000000
     77777     25926  TIP3      H1            -18.0617966405       30.2290477139       22.7657903535  W2        27213           0.0000000000
     77778     25926  TIP3      H2            -17.5729866405       30.5474177139       24.1627903535  W2        27213           0.0000000000
     77779     25927  TIP3      OH2           -19.1910066405       27.1121977139       22.0354103535  W2        27214           0.0000000000
     77780     25927  TIP3      H1            -19.0945666405       27.7788977139       21.3553803535  W2        27214           0.0000000000
     77781     25927  TIP3      H2            -19.3310466405       26.2968277139       21.5539603535  W2        27214           0.0000000000
     77782     25928  TIP3      OH2           -20.0215366405       28.4924377139       27.6564403535  W2        27215           0.0000000000
     77783     25928  TIP3      H1            -20.1716566405       27.5472977139       27.6362203535  W2        27215           0.0000000000
     77784     25928  TIP3      H2            -20.3750866405       28.7735777139       28.5003503535  W2        27215           0.0000000000
     77785     25929  TIP3      OH2           -34.9862966405       30.5706577139       31.6668203535  W2        27216           0.0000000000
     77786     25929  TIP3      H1            -34.8020066405       30.4888277139       30.7311103535  W2        27216           0.0000000000
     77787     25929  TIP3      H2            -34.1370066405       30.4463577139       32.0904603535  W2        27216           0.0000000000
     77788     25930  TIP3      OH2           -19.9436266405       24.5201777139       21.1529603535  W2        27219           0.0000000000
     77789     25930  TIP3      H1            -19.3330466405       24.1488577139       21.7897803535  W2        27219           0.0000000000
     77790     25930  TIP3      H2            -20.7804766405       24.0988677139       21.3489603535  W2        27219           0.0000000000
     77791     25931  TIP3      OH2           -20.3110566405       26.0750177139       26.1189503535  W2        27220           0.0000000000
     77792     25931  TIP3      H1            -20.0313466405       25.1680577139       26.2431203535  W2        27220           0.0000000000
     77793     25931  TIP3      H2            -19.5518866405       26.5091677139       25.7298703535  W2        27220           0.0000000000
     77794     25932  TIP3      OH2           -19.6992266405       26.6567577139       31.5548403535  W2        27221           0.0000000000
     77795     25932  TIP3      H1            -18.7664266405       26.8687477139       31.5204403535  W2        27221           0.0000000000
     77796     25932  TIP3      H2            -19.9344766405       26.7579677139       32.4771403535  W2        27221           0.0000000000
     77797     25933  TIP3      OH2           -19.6700366405       27.3932877139       34.3307803535  W2        27222           0.0000000000
     77798     25933  TIP3      H1            -20.5129066405       27.6613277139       34.6967603535  W2        27222           0.0000000000
     77799     25933  TIP3      H2            -19.2276066405       28.2154777139       34.1198903535  W2        27222           0.0000000000
     77800     25934  TIP3      OH2           -19.6975766405       23.3379477139       26.1671503535  W2        27225           0.0000000000
     77801     25934  TIP3      H1            -19.5150766405       22.8890977139       26.9926503535  W2        27225           0.0000000000
     77802     25934  TIP3      H2            -20.2972866405       22.7533877139       25.7036103535  W2        27225           0.0000000000
     77803     25935  TIP3      OH2           -34.1675666405       24.1533177139       30.6989903535  W2        27226           0.0000000000
     77804     25935  TIP3      H1            -33.7224066405       23.3615677139       31.0009603535  W2        27226           0.0000000000
     77805     25935  TIP3      H2            -33.7012666405       24.8698377139       31.1295503535  W2        27226           0.0000000000
     77806     25936  TIP3      OH2           -35.8635366405       27.1526177139       31.7680103535  W2        27227           0.0000000000
     77807     25936  TIP3      H1            -35.3715566405       26.9316677139       30.9772103535  W2        27227           0.0000000000
     77808     25936  TIP3      H2            -35.5014466405       27.9929577139       32.0489603535  W2        27227           0.0000000000
     77809     25937  TIP3      OH2           -17.8309566405       23.4057577139       22.6951803535  W2        27229           0.0000000000
     77810     25937  TIP3      H1            -17.4186966405       22.6843277139       22.2199803535  W2        27229           0.0000000000
     77811     25937  TIP3      H2            -17.1493066405       24.0752177139       22.7536103535  W2        27229           0.0000000000
     77812     25938  TIP3      OH2           -35.5498866405       23.4105277139       25.8222503535  W2        27230           0.0000000000
     77813     25938  TIP3      H1            -36.4750466405       23.6191877139       25.6928003535  W2        27230           0.0000000000
     77814     25938  TIP3      H2            -35.0958966405       23.8946077139       25.1324803535  W2        27230           0.0000000000
     77815     25939  TIP3      OH2           -20.7791666405       38.3946977139       27.7679903535  W2        27231           0.0000000000
     77816     25939  TIP3      H1            -20.1268766405       38.0469077139       27.1599003535  W2        27231           0.0000000000
     77817     25939  TIP3      H2            -20.2687866405       38.8830177139       28.4139603535  W2        27231           0.0000000000
     77818     25940  TIP3      OH2           -35.5863466405       22.1484277139       34.1665003535  W2        27232           0.0000000000
     77819     25940  TIP3      H1            -36.2512966405       21.9024577139       34.8095903535  W2        27232           0.0000000000
     77820     25940  TIP3      H2            -36.0292166405       22.7704677139       33.5893003535  W2        27232           0.0000000000
     77821     25941  TIP3      OH2           -30.4401266405       36.2979577139       34.5694803535  W2        27234           0.0000000000
     77822     25941  TIP3      H1            -30.8650166405       37.1078077139       34.2869403535  W2        27234           0.0000000000
     77823     25941  TIP3      H2            -29.5358466405       36.3833677139       34.2674603535  W2        27234           0.0000000000
     77824     25942  TIP3      OH2           -33.0384566405       39.5543477139       34.6170103535  W2        27238           0.0000000000
     77825     25942  TIP3      H1            -33.7588166405       39.9944477139       34.1657803535  W2        27238           0.0000000000
     77826     25942  TIP3      H2            -33.4040566405       39.3038177139       35.4654103535  W2        27238           0.0000000000
     77827     25943  TIP3      OH2           -30.5711966405       39.1547377139       33.6467303535  W2        27239           0.0000000000
     77828     25943  TIP3      H1            -31.4359766405       39.2265877139       34.0507403535  W2        27239           0.0000000000
     77829     25943  TIP3      H2            -30.6262966405       39.7014677139       32.8629803535  W2        27239           0.0000000000
     77830     25944  TIP3      OH2           -25.8606366405       39.0426277139       32.8223303535  W2        27240           0.0000000000
     77831     25944  TIP3      H1            -26.3172366405       39.5715977139       32.1681703535  W2        27240           0.0000000000
     77832     25944  TIP3      H2            -25.6978366405       39.6457677139       33.5475603535  W2        27240           0.0000000000
     77833     25945  TIP3      OH2           -23.5330066405       37.9205877139       33.7673603535  W2        27241           0.0000000000
     77834     25945  TIP3      H1            -24.4376366405       38.0856077139       33.5015703535  W2        27241           0.0000000000
     77835     25945  TIP3      H2            -23.1041466405       38.7738077139       33.7017003535  W2        27241           0.0000000000
     77836     25946  TIP3      OH2           -20.9288166405       39.4904977139       34.0621403535  W2        27242           0.0000000000
     77837     25946  TIP3      H1            -21.1106166405       40.4063877139       33.8516303535  W2        27242           0.0000000000
     77838     25946  TIP3      H2            -20.7520366405       39.0802077139       33.2156003535  W2        27242           0.0000000000
     77839     25947  TIP3      OH2           -33.6236466405       38.1775977139       31.5271903535  W2        27243           0.0000000000
     77840     25947  TIP3      H1            -33.6420466405       37.7521077139       32.3844203535  W2        27243           0.0000000000
     77841     25947  TIP3      H2            -32.8188566405       37.8590977139       31.1184103535  W2        27243           0.0000000000
     77842     25948  TIP3      OH2           -31.4823366405       36.8874677139       30.1821803535  W2        27244           0.0000000000
     77843     25948  TIP3      H1            -31.7012666405       35.9712077139       30.3517803535  W2        27244           0.0000000000
     77844     25948  TIP3      H2            -30.6581166405       37.0275077139       30.6483203535  W2        27244           0.0000000000
     77845     25949  TIP3      OH2           -28.9450866405       37.3573977139       31.0309803535  W2        27245           0.0000000000
     77846     25949  TIP3      H1            -28.7325166405       36.4692977139       30.7440703535  W2        27245           0.0000000000
     77847     25949  TIP3      H2            -28.8805766405       37.3231677139       31.9853803535  W2        27245           0.0000000000
     77848     25950  TIP3      OH2           -25.4367166405       23.0214577139       30.1753103535  W2        27246           0.0000000000
     77849     25950  TIP3      H1            -26.1110366405       22.3920177139       30.4308903535  W2        27246           0.0000000000
     77850     25950  TIP3      H2            -24.8727966405       22.5373477139       29.5721003535  W2        27246           0.0000000000
     77851     25951  TIP3      OH2           -20.2939966405       21.1288577139       30.2880203535  W2        27247           0.0000000000
     77852     25951  TIP3      H1            -19.6902366405       21.6763977139       29.7861203535  W2        27247           0.0000000000
     77853     25951  TIP3      H2            -21.1637966405       21.4478977139       30.0474303535  W2        27247           0.0000000000
     77854     25952  TIP3      OH2           -18.5669566405       22.2677277139       28.6211103535  W2        27248           0.0000000000
     77855     25952  TIP3      H1            -17.9552066405       21.7532977139       28.0944703535  W2        27248           0.0000000000
     77856     25952  TIP3      H2            -18.1846166405       23.1449377139       28.6445503535  W2        27248           0.0000000000
     77857     25953  TIP3      OH2           -33.1099666405       21.6554877139       27.9973003535  W2        27249           0.0000000000
     77858     25953  TIP3      H1            -33.8869866405       21.4209777139       27.4898903535  W2        27249           0.0000000000
     77859     25953  TIP3      H2            -32.5796066405       20.8586977139       28.0061003535  W2        27249           0.0000000000
     77860     25954  TIP3      OH2           -34.2736266405       21.4532977139       23.8009103535  W2        27250           0.0000000000
     77861     25954  TIP3      H1            -33.8345566405       22.0643477139       23.2092603535  W2        27250           0.0000000000
     77862     25954  TIP3      H2            -34.9073866405       21.9917077139       24.2749103535  W2        27250           0.0000000000
     77863     25955  TIP3      OH2           -28.5307066405       21.5821977139       27.8106103535  W2        27251           0.0000000000
     77864     25955  TIP3      H1            -27.6563666405       21.9706277139       27.7810403535  W2        27251           0.0000000000
     77865     25955  TIP3      H2            -28.6666266405       21.3669777139       28.7333303535  W2        27251           0.0000000000
     77866     25956  TIP3      OH2           -22.9738666405       21.6121777139       29.4597803535  W2        27252           0.0000000000
     77867     25956  TIP3      H1            -22.8977066405       21.7073377139       28.5103803535  W2        27252           0.0000000000
     77868     25956  TIP3      H2            -23.2489466405       20.7044677139       29.5886903535  W2        27252           0.0000000000
     77869     25957  TIP3      OH2           -21.6206066405       21.6379577139       25.1522803535  W2        27253           0.0000000000
     77870     25957  TIP3      H1            -22.3234966405       22.2528777139       24.9424203535  W2        27253           0.0000000000
     77871     25957  TIP3      H2            -22.0654666405       20.8006277139       25.2833703535  W2        27253           0.0000000000
     77872     25958  TIP3      OH2           -34.3726766405       37.4015177139       24.6984203535  W2        27254           0.0000000000
     77873     25958  TIP3      H1            -35.0576866405       37.3634077139       24.0309303535  W2        27254           0.0000000000
     77874     25958  TIP3      H2            -34.3689566405       38.3142777139       24.9866303535  W2        27254           0.0000000000
     77875     25959  TIP3      OH2           -32.4127166405       23.3694477139       22.2433203535  W2        27255           0.0000000000
     77876     25959  TIP3      H1            -31.9213766405       22.7396877139       21.7158703535  W2        27255           0.0000000000
     77877     25959  TIP3      H2            -31.7890866405       23.6653877139       22.9064403535  W2        27255           0.0000000000
     77878     25960  TIP3      OH2           -27.3867066405       23.6625977139       24.7003703535  W2        27256           0.0000000000
     77879     25960  TIP3      H1            -27.2085766405       23.0159177139       25.3832303535  W2        27256           0.0000000000
     77880     25960  TIP3      H2            -27.4400866405       24.4963677139       25.1674803535  W2        27256           0.0000000000
     77881     25961  TIP3      OH2           -25.5083266405       38.6110077139       23.0960403535  W2        27257           0.0000000000
     77882     25961  TIP3      H1            -24.6423066405       38.9777477139       22.9178603535  W2        27257           0.0000000000
     77883     25961  TIP3      H2            -25.7550466405       38.1718077139       22.2821203535  W2        27257           0.0000000000
     77884     25962  TIP3      OH2           -18.7993666405       38.1740377139       25.7751503535  W2        27258           0.0000000000
     77885     25962  TIP3      H1            -18.9936566405       37.4262477139       25.2101103535  W2        27258           0.0000000000
     77886     25962  TIP3      H2            -18.8383566405       38.9320477139       25.1919403535  W2        27258           0.0000000000
     77887     25963  TIP3      OH2           -32.5545566405       38.3215977139       21.7236303535  W2        27261           0.0000000000
     77888     25963  TIP3      H1            -32.8220966405       38.6078877139       22.5969403535  W2        27261           0.0000000000
     77889     25963  TIP3      H2            -31.7832966405       37.7755177139       21.8758803535  W2        27261           0.0000000000
     77890     25964  TIP3      OH2            -5.1757066405       30.8117177139       27.9560503535  W2        27264           0.0000000000
     77891     25964  TIP3      H1             -5.0865966405       31.7555377139       27.8237603535  W2        27264           0.0000000000
     77892     25964  TIP3      H2             -5.8139466405       30.5363577139       27.2979903535  W2        27264           0.0000000000
     77893     25965  TIP3      OH2            -6.2425766405       30.0667877139       31.3748703535  W2        27265           0.0000000000
     77894     25965  TIP3      H1             -6.2808266405       29.4204177139       32.0798303535  W2        27265           0.0000000000
     77895     25965  TIP3      H2             -6.5649266405       29.6002277139       30.6037403535  W2        27265           0.0000000000
     77896     25966  TIP3      OH2           -13.8740766405       29.6809977139       32.9678603535  W2        27266           0.0000000000
     77897     25966  TIP3      H1            -13.8328666405       29.0553277139       33.6911003535  W2        27266           0.0000000000
     77898     25966  TIP3      H2            -13.1713066405       30.3048577139       33.1499003535  W2        27266           0.0000000000
     77899     25967  TIP3      OH2            -2.5365566405       33.0058277139       29.6763803535  W2        27267           0.0000000000
     77900     25967  TIP3      H1             -2.9772866405       32.2854277139       30.1269403535  W2        27267           0.0000000000
     77901     25967  TIP3      H2             -2.5495866405       33.7265477139       30.3061503535  W2        27267           0.0000000000
     77902     25968  TIP3      OH2           -12.9507666405       34.1308877139       31.5027703535  W2        27268           0.0000000000
     77903     25968  TIP3      H1            -13.3202466405       33.3289377139       31.1332003535  W2        27268           0.0000000000
     77904     25968  TIP3      H2            -12.0096566405       33.9623777139       31.5491103535  W2        27268           0.0000000000
     77905     25969  TIP3      OH2           -16.3407166405       27.7911477139       26.8956503535  W2        27269           0.0000000000
     77906     25969  TIP3      H1            -16.7883766405       28.6370177139       26.8773003535  W2        27269           0.0000000000
     77907     25969  TIP3      H2            -16.9015966405       27.2115677139       26.3801603535  W2        27269           0.0000000000
     77908     25970  TIP3      OH2           -15.6301066405       29.9531077139       29.0214503535  W2        27270           0.0000000000
     77909     25970  TIP3      H1            -15.4167566405       29.1832677139       29.5487503535  W2        27270           0.0000000000
     77910     25970  TIP3      H2            -14.8923466405       30.0427777139       28.4182103535  W2        27270           0.0000000000
     77911     25971  TIP3      OH2            -5.4250066405       38.1099977139       29.8884203535  W2        27271           0.0000000000
     77912     25971  TIP3      H1             -4.8053666405       37.4334677139       29.6153403535  W2        27271           0.0000000000
     77913     25971  TIP3      H2             -5.6332666405       37.8920777139       30.7969103535  W2        27271           0.0000000000
     77914     25972  TIP3      OH2            -7.8531366405       32.4989277139       31.7809703535  W2        27272           0.0000000000
     77915     25972  TIP3      H1             -7.5493466405       31.8130677139       31.1863803535  W2        27272           0.0000000000
     77916     25972  TIP3      H2             -7.1317366405       32.6177977139       32.3987703535  W2        27272           0.0000000000
     77917     25973  TIP3      OH2             0.8098433595       24.1004577139       32.6415903535  W2        27273           0.0000000000
     77918     25973  TIP3      H1              0.8590633595       24.7105777139       33.3775003535  W2        27273           0.0000000000
     77919     25973  TIP3      H2              1.2353533595       24.5615477139       31.9187003535  W2        27273           0.0000000000
     77920     25974  TIP3      OH2            -4.7124366405       26.8931677139       32.1084503535  W2        27274           0.0000000000
     77921     25974  TIP3      H1             -4.5698466405       25.9468677139       32.1286103535  W2        27274           0.0000000000
     77922     25974  TIP3      H2             -4.8185366405       27.1001477139       31.1799403535  W2        27274           0.0000000000
     77923     25975  TIP3      OH2           -11.5576066405       24.9948077139       29.3809303535  W2        27275           0.0000000000
     77924     25975  TIP3      H1            -11.5144966405       25.8546577139       28.9625603535  W2        27275           0.0000000000
     77925     25975  TIP3      H2            -12.0151966405       24.4422777139       28.7472503535  W2        27275           0.0000000000
     77926     25976  TIP3      OH2            -3.8353366405       25.1253677139       27.7817603535  W2        27276           0.0000000000
     77927     25976  TIP3      H1             -3.1889066405       24.7966877139       28.4065203535  W2        27276           0.0000000000
     77928     25976  TIP3      H2             -3.3253966405       25.6432677139       27.1589003535  W2        27276           0.0000000000
     77929     25977  TIP3      OH2           -14.9374566405       27.3913877139       30.1430703535  W2        27277           0.0000000000
     77930     25977  TIP3      H1            -14.2837966405       26.8415577139       30.5750803535  W2        27277           0.0000000000
     77931     25977  TIP3      H2            -14.9135266405       27.1172877139       29.2262703535  W2        27277           0.0000000000
     77932     25978  TIP3      OH2            -9.7810066405       28.9415177139       29.3582203535  W2        27278           0.0000000000
     77933     25978  TIP3      H1             -9.1649066405       28.4150577139       29.8676203535  W2        27278           0.0000000000
     77934     25978  TIP3      H2            -10.3671266405       28.3013877139       28.9545803535  W2        27278           0.0000000000
     77935     25979  TIP3      OH2             1.2013033595       25.5783777139       34.8775703535  W2        27279           0.0000000000
     77936     25979  TIP3      H1              0.5127633595       26.2364477139       34.7822303535  W2        27279           0.0000000000
     77937     25979  TIP3      H2              1.2167633595       25.3811677139       35.8141103535  W2        27279           0.0000000000
     77938     25980  TIP3      OH2           -12.7474166405       23.9126477139       33.4550103535  W2        27280           0.0000000000
     77939     25980  TIP3      H1            -12.9662466405       24.4427077139       32.6886103535  W2        27280           0.0000000000
     77940     25980  TIP3      H2            -13.4153266405       24.1391977139       34.1021503535  W2        27280           0.0000000000
     77941     25981  TIP3      OH2            -5.3784366405       33.4127577139       26.9989203535  W2        27281           0.0000000000
     77942     25981  TIP3      H1             -5.6739266405       33.0899877139       26.1476103535  W2        27281           0.0000000000
     77943     25981  TIP3      H2             -5.7026566405       34.3124277139       27.0401803535  W2        27281           0.0000000000
     77944     25982  TIP3      OH2           -10.1782766405       31.5882177139       33.7423803535  W2        27282           0.0000000000
     77945     25982  TIP3      H1            -10.9183666405       32.1863677139       33.8459003535  W2        27282           0.0000000000
     77946     25982  TIP3      H2             -9.4643266405       32.1421777139       33.4267403535  W2        27282           0.0000000000
     77947     25983  TIP3      OH2            -2.0714966405       24.4162977139       29.7623503535  W2        27283           0.0000000000
     77948     25983  TIP3      H1             -2.2866966405       23.6506377139       30.2949503535  W2        27283           0.0000000000
     77949     25983  TIP3      H2             -1.4157566405       24.8887577139       30.2752003535  W2        27283           0.0000000000
     77950     25984  TIP3      OH2           -13.1536866405       25.8048277139       31.4072303535  W2        27284           0.0000000000
     77951     25984  TIP3      H1            -12.5400566405       26.4375877139       31.7804703535  W2        27284           0.0000000000
     77952     25984  TIP3      H2            -12.6416166405       25.3323277139       30.7509203535  W2        27284           0.0000000000
     77953     25985  TIP3      OH2           -11.7708466405       33.5525177139       34.5295303535  W2        27285           0.0000000000
     77954     25985  TIP3      H1            -11.7760866405       34.4318677139       34.1514603535  W2        27285           0.0000000000
     77955     25985  TIP3      H2            -12.6244366405       33.4689277139       34.9545203535  W2        27285           0.0000000000
     77956     25986  TIP3      OH2           -15.6497566405       33.2233077139       25.3114603535  W2        27286           0.0000000000
     77957     25986  TIP3      H1            -15.9216666405       33.4524077139       24.4227503535  W2        27286           0.0000000000
     77958     25986  TIP3      H2            -15.6041866405       34.0611877139       25.7719903535  W2        27286           0.0000000000
     77959     25987  TIP3      OH2            -2.0247866405       34.8448977139       32.0243103535  W2        27287           0.0000000000
     77960     25987  TIP3      H1             -2.9664166405       34.9032877139       32.1860003535  W2        27287           0.0000000000
     77961     25987  TIP3      H2             -1.7481766405       35.7509477139       31.8872803535  W2        27287           0.0000000000
     77962     25988  TIP3      OH2            -1.7240866405       23.1314277139       33.4417003535  W2        27288           0.0000000000
     77963     25988  TIP3      H1             -2.4601666405       23.7421377139       33.4038303535  W2        27288           0.0000000000
     77964     25988  TIP3      H2             -1.0406866405       23.5463277139       32.9153403535  W2        27288           0.0000000000
     77965     25989  TIP3      OH2            -8.7209466405       21.2181577139       30.9075003535  W2        27289           0.0000000000
     77966     25989  TIP3      H1             -8.8385266405       20.2697577139       30.8533303535  W2        27289           0.0000000000
     77967     25989  TIP3      H2             -9.5759366405       21.5507677139       31.1806103535  W2        27289           0.0000000000
     77968     25990  TIP3      OH2            -3.7726666405       36.6262477139       28.6494703535  W2        27290           0.0000000000
     77969     25990  TIP3      H1             -3.3474366405       35.9190377139       28.1644303535  W2        27290           0.0000000000
     77970     25990  TIP3      H2             -3.4556666405       37.4275177139       28.2326903535  W2        27290           0.0000000000
     77971     25991  TIP3      OH2            -2.6130166405       34.5270977139       27.1581303535  W2        27291           0.0000000000
     77972     25991  TIP3      H1             -2.8705366405       33.8371077139       26.5467203535  W2        27291           0.0000000000
     77973     25991  TIP3      H2             -2.5419366405       34.0842177139       28.0037203535  W2        27291           0.0000000000
     77974     25992  TIP3      OH2            -6.4544566405       30.0557177139       25.4080803535  W2        27293           0.0000000000
     77975     25992  TIP3      H1             -7.1659066405       30.5906877139       25.0561303535  W2        27293           0.0000000000
     77976     25992  TIP3      H2             -5.7634966405       30.1109277139       24.7479703535  W2        27293           0.0000000000
     77977     25993  TIP3      OH2            -6.4005366405       28.5131477139       22.4465803535  W2        27294           0.0000000000
     77978     25993  TIP3      H1             -5.6995466405       28.5358377139       23.0979803535  W2        27294           0.0000000000
     77979     25993  TIP3      H2             -6.0982466405       27.8851177139       21.7905103535  W2        27294           0.0000000000
     77980     25994  TIP3      OH2             0.9149333595       29.4335677139       33.7015203535  W2        27295           0.0000000000
     77981     25994  TIP3      H1              0.2623433595       30.1281277139       33.7906103535  W2        27295           0.0000000000
     77982     25994  TIP3      H2              1.3799633595       29.6436577139       32.8916803535  W2        27295           0.0000000000
     77983     25995  TIP3      OH2            -3.0486866405       30.2650477139       26.3596703535  W2        27296           0.0000000000
     77984     25995  TIP3      H1             -3.7805866405       30.4934177139       26.9327303535  W2        27296           0.0000000000
     77985     25995  TIP3      H2             -2.6014666405       29.5513177139       26.8144203535  W2        27296           0.0000000000
     77986     25996  TIP3      OH2            -3.1513366405       28.4393077139       35.4273703535  W2        27297           0.0000000000
     77987     25996  TIP3      H1             -3.0714266405       29.2027477139       35.9992203535  W2        27297           0.0000000000
     77988     25996  TIP3      H2             -3.7525666405       28.7185477139       34.7368803535  W2        27297           0.0000000000
     77989     25997  TIP3      OH2           -11.4033166405       30.8956677139       28.2421703535  W2        27298           0.0000000000
     77990     25997  TIP3      H1            -11.7337966405       30.5250077139       27.4238703535  W2        27298           0.0000000000
     77991     25997  TIP3      H2            -10.8149066405       30.2250677139       28.5890003535  W2        27298           0.0000000000
     77992     25998  TIP3      OH2           -10.0365666405       34.3237277139       30.9233903535  W2        27299           0.0000000000
     77993     25998  TIP3      H1            -10.1314366405       33.7450377139       30.1668503535  W2        27299           0.0000000000
     77994     25998  TIP3      H2             -9.3072066405       33.9522977139       31.4196703535  W2        27299           0.0000000000
     77995     25999  TIP3      OH2           -11.0367666405       29.6642277139       31.8756703535  W2        27300           0.0000000000
     77996     25999  TIP3      H1            -10.4715166405       29.7856477139       31.1127903535  W2        27300           0.0000000000
     77997     25999  TIP3      H2            -10.7178766405       30.3017277139       32.5145203535  W2        27300           0.0000000000
     77998     26000  TIP3      OH2            -4.7275466405       35.1674177139       32.6097203535  W2        27301           0.0000000000
     77999     26000  TIP3      H1             -4.9678866405       35.8297277139       33.2576403535  W2        27301           0.0000000000
     78000     26000  TIP3      H2             -4.9257266405       34.3329377139       33.0346803535  W2        27301           0.0000000000
     78001     26001  TIP3      OH2            -4.1777366405       29.4273377139       24.0447903535  W2        27303           0.0000000000
     78002     26001  TIP3      H1             -3.5981866405       29.5773677139       24.7916803535  W2        27303           0.0000000000
     78003     26001  TIP3      H2             -3.7637366405       29.8980777139       23.3214303535  W2        27303           0.0000000000
     78004     26002  TIP3      OH2            -6.4512466405       36.1641877139       27.4801003535  W2        27305           0.0000000000
     78005     26002  TIP3      H1             -5.9774866405       36.4598177139       28.2575203535  W2        27305           0.0000000000
     78006     26002  TIP3      H2             -7.0143166405       36.9023477139       27.2470603535  W2        27305           0.0000000000
     78007     26003  TIP3      OH2            -0.4788966405       21.1773777139       23.8577603535  W2        27307           0.0000000000
     78008     26003  TIP3      H1             -1.3788266405       21.3162777139       24.1528203535  W2        27307           0.0000000000
     78009     26003  TIP3      H2             -0.2270566405       22.0088377139       23.4559303535  W2        27307           0.0000000000
     78010     26004  TIP3      OH2           -12.4130466405       29.9650977139       25.8314503535  W2        27308           0.0000000000
     78011     26004  TIP3      H1            -12.7049166405       30.7332677139       25.3405803535  W2        27308           0.0000000000
     78012     26004  TIP3      H2            -13.0875266405       29.3057177139       25.6685903535  W2        27308           0.0000000000
     78013     26005  TIP3      OH2             0.7102433595       35.5436177139       22.2341503535  W2        27309           0.0000000000
     78014     26005  TIP3      H1              0.7835933595       36.4826377139       22.4046803535  W2        27309           0.0000000000
     78015     26005  TIP3      H2              1.6157533595       35.2384777139       22.1778803535  W2        27309           0.0000000000
     78016     26006  TIP3      OH2           -16.3200366405       32.3280177139       34.6464303535  W2        27310           0.0000000000
     78017     26006  TIP3      H1            -16.8211966405       32.2999577139       33.8314003535  W2        27310           0.0000000000
     78018     26006  TIP3      H2            -16.3146666405       31.4223377139       34.9561603535  W2        27310           0.0000000000
     78019     26007  TIP3      OH2           -16.5697666405       35.1083977139       31.5304503535  W2        27311           0.0000000000
     78020     26007  TIP3      H1            -15.6237066405       34.9640977139       31.5114003535  W2        27311           0.0000000000
     78021     26007  TIP3      H2            -16.6821366405       35.8926777139       32.0675703535  W2        27311           0.0000000000
     78022     26008  TIP3      OH2            -6.9789366405       39.1206577139       25.8950203535  W2        27314           0.0000000000
     78023     26008  TIP3      H1             -7.0543366405       38.9993777139       24.9485403535  W2        27314           0.0000000000
     78024     26008  TIP3      H2             -6.9460666405       40.0699277139       26.0134803535  W2        27314           0.0000000000
     78025     26009  TIP3      OH2           -13.3255566405       37.9093577139       27.6759203535  W2        27315           0.0000000000
     78026     26009  TIP3      H1            -13.1735166405       37.5613977139       28.5545703535  W2        27315           0.0000000000
     78027     26009  TIP3      H2            -14.1765166405       37.5530877139       27.4206403535  W2        27315           0.0000000000
     78028     26010  TIP3      OH2            -3.8773366405       38.2746777139       22.8972603535  W2        27316           0.0000000000
     78029     26010  TIP3      H1             -3.5024966405       37.5302877139       22.4265203535  W2        27316           0.0000000000
     78030     26010  TIP3      H2             -3.8729666405       38.0047377139       23.8155903535  W2        27316           0.0000000000
     78031     26011  TIP3      OH2            -4.2085266405       38.2003877139       25.6464803535  W2        27317           0.0000000000
     78032     26011  TIP3      H1             -5.1435466405       38.3005777139       25.8251803535  W2        27317           0.0000000000
     78033     26011  TIP3      H2             -3.9283366405       37.4909877139       26.2248003535  W2        27317           0.0000000000
     78034     26012  TIP3      OH2           -11.4521866405       22.1216077139       31.6851303535  W2        27320           0.0000000000
     78035     26012  TIP3      H1            -12.3138166405       22.0344277139       31.2774203535  W2        27320           0.0000000000
     78036     26012  TIP3      H2            -11.4746166405       22.9776177139       32.1128903535  W2        27320           0.0000000000
     78037     26013  TIP3      OH2            -6.7894066405       21.8436477139       35.0598303535  W2        27321           0.0000000000
     78038     26013  TIP3      H1             -6.3690966405       21.4283577139       35.8128903535  W2        27321           0.0000000000
     78039     26013  TIP3      H2             -7.7224466405       21.6649777139       35.1770303535  W2        27321           0.0000000000
     78040     26014  TIP3      OH2            -2.7004266405       30.4601677139       21.6745803535  W2        27323           0.0000000000
     78041     26014  TIP3      H1             -2.6583466405       30.2375577139       20.7445803535  W2        27323           0.0000000000
     78042     26014  TIP3      H2             -1.8512166405       30.8588777139       21.8645703535  W2        27323           0.0000000000
     78043     26015  TIP3      OH2            -7.1276766405       24.3359877139       22.3449103535  W2        27324           0.0000000000
     78044     26015  TIP3      H1             -7.3811966405       24.3551477139       23.2677203535  W2        27324           0.0000000000
     78045     26015  TIP3      H2             -7.3844666405       23.4645277139       22.0435303535  W2        27324           0.0000000000
     78046     26016  TIP3      OH2           -11.3611766405       27.0870577139       32.7801503535  W2        27325           0.0000000000
     78047     26016  TIP3      H1            -12.0029666405       27.0467877139       33.4891603535  W2        27325           0.0000000000
     78048     26016  TIP3      H2            -11.3239766405       28.0135277139       32.5424503535  W2        27325           0.0000000000
     78049     26017  TIP3      OH2           -11.3642666405       27.3080677139       27.6921503535  W2        27326           0.0000000000
     78050     26017  TIP3      H1            -12.2569766405       26.9676777139       27.6335303535  W2        27326           0.0000000000
     78051     26017  TIP3      H2            -10.9136066405       26.9311577139       26.9364703535  W2        27326           0.0000000000
     78052     26018  TIP3      OH2            -5.8287166405       27.7240977139       26.5092303535  W2        27327           0.0000000000
     78053     26018  TIP3      H1             -6.2376866405       28.5389577139       26.2177103535  W2        27327           0.0000000000
     78054     26018  TIP3      H2             -5.1080966405       27.5841077139       25.8949403535  W2        27327           0.0000000000
     78055     26019  TIP3      OH2            -4.8239466405       27.1701377139       29.3232003535  W2        27329           0.0000000000
     78056     26019  TIP3      H1             -5.0194966405       27.7758177139       28.6082603535  W2        27329           0.0000000000
     78057     26019  TIP3      H2             -4.6426866405       26.3366577139       28.8888303535  W2        27329           0.0000000000
     78058     26020  TIP3      OH2           -13.6111266405       27.4074077139       34.6473503535  W2        27330           0.0000000000
     78059     26020  TIP3      H1            -13.6491866405       27.8075677139       35.5160603535  W2        27330           0.0000000000
     78060     26020  TIP3      H2            -14.1020166405       26.5906477139       34.7376403535  W2        27330           0.0000000000
     78061     26021  TIP3      OH2           -10.2453866405       24.7816377139       21.4459503535  W2        27331           0.0000000000
     78062     26021  TIP3      H1            -10.6763166405       24.3366477139       22.1756903535  W2        27331           0.0000000000
     78063     26021  TIP3      H2            -10.9635166405       25.1532677139       20.9337003535  W2        27331           0.0000000000
     78064     26022  TIP3      OH2           -17.0030466405       24.5235877139       28.4978203535  W2        27332           0.0000000000
     78065     26022  TIP3      H1            -16.3722766405       24.4947977139       29.2172103535  W2        27332           0.0000000000
     78066     26022  TIP3      H2            -16.5536166405       24.0984577139       27.7674103535  W2        27332           0.0000000000
     78067     26023  TIP3      OH2           -15.7288366405       25.2697877139       23.9218603535  W2        27333           0.0000000000
     78068     26023  TIP3      H1            -15.2546666405       25.8607777139       23.3369503535  W2        27333           0.0000000000
     78069     26023  TIP3      H2            -16.4461966405       25.8000777139       24.2688703535  W2        27333           0.0000000000
     78070     26024  TIP3      OH2            -5.5600266405       28.8082677139       33.9944403535  W2        27334           0.0000000000
     78071     26024  TIP3      H1             -5.2365466405       28.1772377139       33.3514903535  W2        27334           0.0000000000
     78072     26024  TIP3      H2             -6.0000966405       28.2734877139       34.6551803535  W2        27334           0.0000000000
     78073     26025  TIP3      OH2            -8.7827366405       24.7358177139       28.7785603535  W2        27335           0.0000000000
     78074     26025  TIP3      H1             -9.6936266405       24.7924977139       29.0671603535  W2        27335           0.0000000000
     78075     26025  TIP3      H2             -8.2774466405       24.6753677139       29.5892803535  W2        27335           0.0000000000
     78076     26026  TIP3      OH2           -13.9543966405       26.3644477139       27.6053203535  W2        27336           0.0000000000
     78077     26026  TIP3      H1            -14.8435966405       26.4639977139       27.2652803535  W2        27336           0.0000000000
     78078     26026  TIP3      H2            -13.6579066405       25.5227477139       27.2591103535  W2        27336           0.0000000000
     78079     26027  TIP3      OH2           -10.3012166405       26.3647077139       25.2617803535  W2        27337           0.0000000000
     78080     26027  TIP3      H1             -9.3696666405       26.4937077139       25.4400903535  W2        27337           0.0000000000
     78081     26027  TIP3      H2            -10.5161866405       27.0341377139       24.6122503535  W2        27337           0.0000000000
     78082     26028  TIP3      OH2            -4.3775466405       23.9704477139       32.0427403535  W2        27338           0.0000000000
     78083     26028  TIP3      H1             -5.0543866405       24.1017577139       32.7067103535  W2        27338           0.0000000000
     78084     26028  TIP3      H2             -4.8630566405       23.8153977139       31.2325103535  W2        27338           0.0000000000
     78085     26029  TIP3      OH2           -11.6271966405       27.5589277139       22.8283903535  W2        27339           0.0000000000
     78086     26029  TIP3      H1            -12.1696866405       27.1793077139       22.1371503535  W2        27339           0.0000000000
     78087     26029  TIP3      H2            -10.7937066405       27.7533977139       22.3998003535  W2        27339           0.0000000000
     78088     26030  TIP3      OH2            -7.4627666405       27.5231177139       30.6655203535  W2        27342           0.0000000000
     78089     26030  TIP3      H1             -6.8984266405       26.9767777139       30.1184803535  W2        27342           0.0000000000
     78090     26030  TIP3      H2             -7.6104266405       27.0013077139       31.4542803535  W2        27342           0.0000000000
     78091     26031  TIP3      OH2           -12.4607966405       23.6597277139       27.0840003535  W2        27343           0.0000000000
     78092     26031  TIP3      H1            -12.7778466405       22.7572577139       27.0485403535  W2        27343           0.0000000000
     78093     26031  TIP3      H2            -11.6793866405       23.6614677139       26.5311603535  W2        27343           0.0000000000
     78094     26032  TIP3      OH2            -8.8361766405       25.9117277139       33.0795603535  W2        27344           0.0000000000
     78095     26032  TIP3      H1             -9.6716466405       26.3656777139       33.1898003535  W2        27344           0.0000000000
     78096     26032  TIP3      H2             -8.3121166405       26.1875777139       33.8315503535  W2        27344           0.0000000000
     78097     26033  TIP3      OH2            -8.2919166405       32.1244977139       24.7642003535  W2        27345           0.0000000000
     78098     26033  TIP3      H1             -9.0368166405       31.6170277139       24.4419903535  W2        27345           0.0000000000
     78099     26033  TIP3      H2             -8.4261966405       32.1732977139       25.7106803535  W2        27345           0.0000000000
     78100     26034  TIP3      OH2            -1.1420266405       31.2573177139       33.5509603535  W2        27346           0.0000000000
     78101     26034  TIP3      H1             -0.5001466405       31.7139477139       33.0071803535  W2        27346           0.0000000000
     78102     26034  TIP3      H2             -1.9723366405       31.3705577139       33.0883703535  W2        27346           0.0000000000
     78103     26035  TIP3      OH2            -4.3942366405       24.9384877139       22.9634603535  W2        27347           0.0000000000
     78104     26035  TIP3      H1             -5.3328166405       25.0500477139       22.8123403535  W2        27347           0.0000000000
     78105     26035  TIP3      H2             -4.0970266405       25.7951777139       23.2700303535  W2        27347           0.0000000000
     78106     26036  TIP3      OH2            -3.6758866405       26.8057577139       24.6242003535  W2        27349           0.0000000000
     78107     26036  TIP3      H1             -2.7839866405       26.6682577139       24.9433203535  W2        27349           0.0000000000
     78108     26036  TIP3      H2             -3.6195266405       27.5963677139       24.0875503535  W2        27349           0.0000000000
     78109     26037  TIP3      OH2           -13.1670866405       31.4194977139       30.5339903535  W2        27350           0.0000000000
     78110     26037  TIP3      H1            -12.4223666405       31.4170677139       29.9326403535  W2        27350           0.0000000000
     78111     26037  TIP3      H2            -13.0894266405       30.5958777139       31.0155003535  W2        27350           0.0000000000
     78112     26038  TIP3      OH2            -6.1665066405       33.5829277139       23.7896603535  W2        27351           0.0000000000
     78113     26038  TIP3      H1             -6.4616666405       34.4097177139       24.1711403535  W2        27351           0.0000000000
     78114     26038  TIP3      H2             -6.8695066405       32.9636177139       23.9858003535  W2        27351           0.0000000000
     78115     26039  TIP3      OH2             1.2089833595       27.0151677139       24.3188703535  W2        27355           0.0000000000
     78116     26039  TIP3      H1              0.6546133595       26.6189677139       23.6466203535  W2        27355           0.0000000000
     78117     26039  TIP3      H2              1.3093433595       27.9256877139       24.0412003535  W2        27355           0.0000000000
     78118     26040  TIP3      OH2            -0.4958466405       35.8012077139       24.7840803535  W2        27357           0.0000000000
     78119     26040  TIP3      H1             -0.8687366405       34.9755877139       25.0931403535  W2        27357           0.0000000000
     78120     26040  TIP3      H2             -0.2184966405       35.6181477139       23.8864203535  W2        27357           0.0000000000
     78121     26041  TIP3      OH2            -3.3354566405       30.6091577139       31.8052703535  W2        27358           0.0000000000
     78122     26041  TIP3      H1             -4.2637666405       30.3773477139       31.7782003535  W2        27358           0.0000000000
     78123     26041  TIP3      H2             -2.8843466405       29.8321377139       31.4751503535  W2        27358           0.0000000000
     78124     26042  TIP3      OH2           -10.7921466405       34.9373177139       27.9381403535  W2        27359           0.0000000000
     78125     26042  TIP3      H1            -10.2649266405       35.7107577139       27.7380203535  W2        27359           0.0000000000
     78126     26042  TIP3      H2            -11.6722966405       35.1622377139       27.6365403535  W2        27359           0.0000000000
     78127     26043  TIP3      OH2           -15.0373766405       29.7997277139       22.5253803535  W2        27360           0.0000000000
     78128     26043  TIP3      H1            -14.4213866405       30.4264477139       22.9048603535  W2        27360           0.0000000000
     78129     26043  TIP3      H2            -15.8991166405       30.1157077139       22.7970303535  W2        27360           0.0000000000
     78130     26044  TIP3      OH2            -9.3649166405       32.6003077139       27.5145703535  W2        27361           0.0000000000
     78131     26044  TIP3      H1             -9.6059166405       33.5257477139       27.5561003535  W2        27361           0.0000000000
     78132     26044  TIP3      H2            -10.1055566405       32.1414377139       27.9109603535  W2        27361           0.0000000000
     78133     26045  TIP3      OH2            -8.8502566405       36.7496677139       33.8296803535  W2        27362           0.0000000000
     78134     26045  TIP3      H1             -8.4877866405       37.6042277139       33.5961203535  W2        27362           0.0000000000
     78135     26045  TIP3      H2             -8.3187366405       36.4578277139       34.5703103535  W2        27362           0.0000000000
     78136     26046  TIP3      OH2           -10.6818366405       37.6220677139       27.0597903535  W2        27363           0.0000000000
     78137     26046  TIP3      H1            -11.6317866405       37.7278077139       27.1111203535  W2        27363           0.0000000000
     78138     26046  TIP3      H2            -10.3300266405       38.4428077139       27.4045403535  W2        27363           0.0000000000
     78139     26047  TIP3      OH2            -5.3061766405       32.8487377139       33.5302403535  W2        27364           0.0000000000
     78140     26047  TIP3      H1             -5.7320466405       32.6209077139       34.3566403535  W2        27364           0.0000000000
     78141     26047  TIP3      H2             -4.7255966405       32.1099177139       33.3477703535  W2        27364           0.0000000000
     78142     26048  TIP3      OH2            -3.1032866405       33.7777877139       22.6041403535  W2        27365           0.0000000000
     78143     26048  TIP3      H1             -2.7499766405       33.3977677139       23.4084903535  W2        27365           0.0000000000
     78144     26048  TIP3      H2             -4.0519366405       33.6842677139       22.6910703535  W2        27365           0.0000000000
     78145     26049  TIP3      OH2             1.4001533595       38.2570377139       22.8051603535  W2        27367           0.0000000000
     78146     26049  TIP3      H1              2.1439433595       38.8430877139       22.6653203535  W2        27367           0.0000000000
     78147     26049  TIP3      H2              0.7059633595       38.8256177139       23.1384003535  W2        27367           0.0000000000
     78148     26050  TIP3      OH2           -14.5251666405       24.6334577139       35.4069803535  W2        27368           0.0000000000
     78149     26050  TIP3      H1            -15.4179366405       24.9719977139       35.3393803535  W2        27368           0.0000000000
     78150     26050  TIP3      H2            -14.6238866405       23.7780677139       35.8250603535  W2        27368           0.0000000000
     78151     26051  TIP3      OH2            -2.2373566405       32.4499877139       24.8309303535  W2        27369           0.0000000000
     78152     26051  TIP3      H1             -2.5145966405       31.7219177139       25.3870403535  W2        27369           0.0000000000
     78153     26051  TIP3      H2             -1.3100566405       32.5691877139       25.0361903535  W2        27369           0.0000000000
     78154     26052  TIP3      OH2           -14.8739666405       36.4378977139       33.8419203535  W2        27370           0.0000000000
     78155     26052  TIP3      H1            -14.6569366405       35.5061377139       33.8108903535  W2        27370           0.0000000000
     78156     26052  TIP3      H2            -14.6276166405       36.7123977139       34.7252003535  W2        27370           0.0000000000
     78157     26053  TIP3      OH2            -9.0125066405       34.8893977139       21.0511403535  W2        27371           0.0000000000
     78158     26053  TIP3      H1             -8.7735266405       34.1412077139       20.5040303535  W2        27371           0.0000000000
     78159     26053  TIP3      H2             -9.2813766405       34.5015677139       21.8839203535  W2        27371           0.0000000000
     78160     26054  TIP3      OH2           -10.0754466405       34.4597777139       23.5074003535  W2        27372           0.0000000000
     78161     26054  TIP3      H1             -9.9286466405       33.9397577139       24.2974903535  W2        27372           0.0000000000
     78162     26054  TIP3      H2            -10.0782766405       35.3665377139       23.8139903535  W2        27372           0.0000000000
     78163     26055  TIP3      OH2           -13.6223366405       31.7121077139       24.0179403535  W2        27373           0.0000000000
     78164     26055  TIP3      H1            -14.3084066405       32.0643577139       24.5849103535  W2        27373           0.0000000000
     78165     26055  TIP3      H2            -13.0995466405       32.4750677139       23.7713703535  W2        27373           0.0000000000
     78166     26056  TIP3      OH2            -5.7908266405       24.3744877139       34.2968403535  W2        27374           0.0000000000
     78167     26056  TIP3      H1             -5.0920366405       24.4483577139       34.9468103535  W2        27374           0.0000000000
     78168     26056  TIP3      H2             -6.1716866405       23.5099877139       34.4511303535  W2        27374           0.0000000000
     78169     26057  TIP3      OH2            -5.0063366405       24.0266577139       25.3940703535  W2        27375           0.0000000000
     78170     26057  TIP3      H1             -4.7865066405       24.4981977139       24.5906103535  W2        27375           0.0000000000
     78171     26057  TIP3      H2             -4.4479366405       24.4209177139       26.0641303535  W2        27375           0.0000000000
     78172     26058  TIP3      OH2            -7.3377266405       36.1571377139       24.2568203535  W2        27376           0.0000000000
     78173     26058  TIP3      H1             -8.1541166405       36.6541077139       24.3092503535  W2        27376           0.0000000000
     78174     26058  TIP3      H2             -6.8080966405       36.6324877139       23.6167003535  W2        27376           0.0000000000
     78175     26059  TIP3      OH2            -7.8063466405       25.7545377139       26.2289103535  W2        27377           0.0000000000
     78176     26059  TIP3      H1             -6.9940866405       26.2588577139       26.2750803535  W2        27377           0.0000000000
     78177     26059  TIP3      H2             -8.0510466405       25.6095077139       27.1428703535  W2        27377           0.0000000000
     78178     26060  TIP3      OH2            -7.2707066405       26.7408077139       35.4135703535  W2        27378           0.0000000000
     78179     26060  TIP3      H1             -7.1516766405       27.3143477139       36.1706103535  W2        27378           0.0000000000
     78180     26060  TIP3      H2             -6.6152466405       26.0527477139       35.5283503535  W2        27378           0.0000000000
     78181     26061  TIP3      OH2            -6.9226766405       22.8358377139       27.1670203535  W2        27379           0.0000000000
     78182     26061  TIP3      H1             -7.2693266405       23.4528977139       27.8114503535  W2        27379           0.0000000000
     78183     26061  TIP3      H2             -6.2639866405       23.3364077139       26.6855703535  W2        27379           0.0000000000
     78184     26062  TIP3      OH2            -9.9994166405       37.2008577139       24.2385103535  W2        27380           0.0000000000
     78185     26062  TIP3      H1             -9.8385466405       38.0006077139       23.7377703535  W2        27380           0.0000000000
     78186     26062  TIP3      H2            -10.1966366405       37.5074577139       25.1235703535  W2        27380           0.0000000000
     78187     26063  TIP3      OH2           -11.2649766405       23.8987777139       23.8542703535  W2        27381           0.0000000000
     78188     26063  TIP3      H1            -11.3484966405       24.7870877139       24.2009103535  W2        27381           0.0000000000
     78189     26063  TIP3      H2            -10.3749466405       23.6334477139       24.0859503535  W2        27381           0.0000000000
     78190     26064  TIP3      OH2            -2.4640266405       28.3979377139       30.3442703535  W2        27383           0.0000000000
     78191     26064  TIP3      H1             -3.2615866405       27.9829577139       30.0157703535  W2        27383           0.0000000000
     78192     26064  TIP3      H2             -2.0189166405       27.7073077139       30.8353203535  W2        27383           0.0000000000
     78193     26065  TIP3      OH2           -13.0064466405       34.3259977139       22.9147203535  W2        27384           0.0000000000
     78194     26065  TIP3      H1            -12.4142966405       35.0254777139       23.1909603535  W2        27384           0.0000000000
     78195     26065  TIP3      H2            -12.5471466405       33.8929477139       22.1951803535  W2        27384           0.0000000000
     78196     26066  TIP3      OH2           -14.6905266405       26.9902977139       22.0306603535  W2        27385           0.0000000000
     78197     26066  TIP3      H1            -14.7352666405       27.9296077139       22.2093603535  W2        27385           0.0000000000
     78198     26066  TIP3      H2            -15.5782066405       26.7547877139       21.7608703535  W2        27385           0.0000000000
     78199     26067  TIP3      OH2            -1.3775666405       37.6541877139       31.9666203535  W2        27386           0.0000000000
     78200     26067  TIP3      H1             -1.5331366405       38.3326277139       31.3095503535  W2        27386           0.0000000000
     78201     26067  TIP3      H2             -0.4449266405       37.7261177139       32.1696803535  W2        27386           0.0000000000
     78202     26068  TIP3      OH2           -13.8823266405       21.7719577139       30.7037603535  W2        27387           0.0000000000
     78203     26068  TIP3      H1            -14.1113466405       21.8312077139       29.7762603535  W2        27387           0.0000000000
     78204     26068  TIP3      H2            -14.3249866405       20.9805077139       31.0101703535  W2        27387           0.0000000000
     78205     26069  TIP3      OH2           -14.9519966405       35.7126677139       26.8643403535  W2        27388           0.0000000000
     78206     26069  TIP3      H1            -15.7841366405       36.1849377139       26.8914803535  W2        27388           0.0000000000
     78207     26069  TIP3      H2            -14.4061666405       36.2224277139       26.2656503535  W2        27388           0.0000000000
     78208     26070  TIP3      OH2            -6.9743266405       36.7525377139       21.1897403535  W2        27391           0.0000000000
     78209     26070  TIP3      H1             -7.6182266405       36.1213977139       21.5111103535  W2        27391           0.0000000000
     78210     26070  TIP3      H2             -6.2124966405       36.2213377139       20.9580903535  W2        27391           0.0000000000
     78211     26071  TIP3      OH2            -2.3700366405       36.5695277139       21.4235403535  W2        27393           0.0000000000
     78212     26071  TIP3      H1             -2.0869966405       35.7750477139       21.8762303535  W2        27393           0.0000000000
     78213     26071  TIP3      H2             -1.6302466405       36.8026277139       20.8626503535  W2        27393           0.0000000000
     78214     26072  TIP3      OH2           -11.4153066405       32.4790177139       21.2810303535  W2        27395           0.0000000000
     78215     26072  TIP3      H1            -11.3508966405       31.6849777139       21.8116703535  W2        27395           0.0000000000
     78216     26072  TIP3      H2            -10.7623866405       32.3602977139       20.5912303535  W2        27395           0.0000000000
     78217     26073  TIP3      OH2            -6.0629666405       33.5261877139       21.0168303535  W2        27397           0.0000000000
     78218     26073  TIP3      H1             -6.3315566405       33.7063977139       21.9177203535  W2        27397           0.0000000000
     78219     26073  TIP3      H2             -6.2694066405       32.6008077139       20.8854103535  W2        27397           0.0000000000
     78220     26074  TIP3      OH2           -10.2659266405       30.4516377139       23.5868303535  W2        27400           0.0000000000
     78221     26074  TIP3      H1            -10.7257266405       29.9674677139       24.2726803535  W2        27400           0.0000000000
     78222     26074  TIP3      H2            -10.0110566405       29.7831777139       22.9508803535  W2        27400           0.0000000000
     78223     26075  TIP3      OH2            -9.1948866405       28.6948177139       21.8491503535  W2        27402           0.0000000000
     78224     26075  TIP3      H1             -9.3753866405       28.5399377139       20.9219803535  W2        27402           0.0000000000
     78225     26075  TIP3      H2             -8.2448366405       28.8026877139       21.8939403535  W2        27402           0.0000000000
     78226     26076  TIP3      OH2             0.1949433595       31.0492377139       21.2949603535  W2        27404           0.0000000000
     78227     26076  TIP3      H1             -0.0785766405       30.6247877139       20.4817903535  W2        27404           0.0000000000
     78228     26076  TIP3      H2              0.2343533595       31.9806877139       21.0780003535  W2        27404           0.0000000000
     78229     26077  TIP3      OH2           -10.2250566405       24.0690077139       34.5178403535  W2        27406           0.0000000000
     78230     26077  TIP3      H1             -9.6893066405       24.5206777139       33.8657703535  W2        27406           0.0000000000
     78231     26077  TIP3      H2            -11.0770966405       23.9609877139       34.0952503535  W2        27406           0.0000000000
     78232     26078  TIP3      OH2            -8.6432166405       29.5086277139       34.7573603535  W2        27407           0.0000000000
     78233     26078  TIP3      H1             -7.8927366405       29.3523777139       34.1841403535  W2        27407           0.0000000000
     78234     26078  TIP3      H2             -8.9823866405       30.3602877139       34.4819103535  W2        27407           0.0000000000
     78235     26079  TIP3      OH2            -9.4195066405       21.5255777139       34.9492003535  W2        27411           0.0000000000
     78236     26079  TIP3      H1             -9.5175466405       22.4718977139       34.8438203535  W2        27411           0.0000000000
     78237     26079  TIP3      H2            -10.1618866405       21.1529577139       34.4735503535  W2        27411           0.0000000000
     78238     26080  TIP3      OH2            -9.2977166405       39.3851877139       22.8505103535  W2        27418           0.0000000000
     78239     26080  TIP3      H1             -8.3646466405       39.5430577139       22.9943503535  W2        27418           0.0000000000
     78240     26080  TIP3      H2             -9.5618366405       40.0604877139       22.2256603535  W2        27418           0.0000000000
     78241     26081  TIP3      OH2           -15.7292266405       34.0215677139       22.3333203535  W2        27419           0.0000000000
     78242     26081  TIP3      H1            -14.8153066405       34.1004577139       22.6067103535  W2        27419           0.0000000000
     78243     26081  TIP3      H2            -15.7219166405       33.3345277139       21.6668803535  W2        27419           0.0000000000
     78244     26082  TIP3      OH2           -17.0801666405       39.4144177139       27.4107103535  W2        27420           0.0000000000
     78245     26082  TIP3      H1            -17.7274566405       38.9525877139       26.8778303535  W2        27420           0.0000000000
     78246     26082  TIP3      H2            -16.7257066405       38.7427477139       27.9933303535  W2        27420           0.0000000000
     78247     26083  TIP3      OH2           -16.2102466405       37.4951177139       29.2153303535  W2        27421           0.0000000000
     78248     26083  TIP3      H1            -16.5445666405       36.6148477139       29.3873503535  W2        27421           0.0000000000
     78249     26083  TIP3      H2            -15.9880066405       37.8406177139       30.0798903535  W2        27421           0.0000000000
     78250     26084  TIP3      OH2             1.3382333595       38.3047577139       32.1958103535  W2        27422           0.0000000000
     78251     26084  TIP3      H1              1.3169033595       38.4895977139       33.1347503535  W2        27422           0.0000000000
     78252     26084  TIP3      H2              2.0288533595       38.8731577139       31.8549503535  W2        27422           0.0000000000
     78253     26085  TIP3      OH2             0.9015233595       37.8718677139       35.1177203535  W2        27423           0.0000000000
     78254     26085  TIP3      H1              0.4143933595       37.1362777139       34.7464603535  W2        27423           0.0000000000
     78255     26085  TIP3      H2              1.4507933595       37.4782577139       35.7956603535  W2        27423           0.0000000000
     78256     26086  TIP3      OH2             0.6532233595       31.9180477139       25.2700003535  W2        27425           0.0000000000
     78257     26086  TIP3      H1              1.5033633595       32.3391377139       25.3971603535  W2        27425           0.0000000000
     78258     26086  TIP3      H2              0.6587333595       31.1780577139       25.8771403535  W2        27425           0.0000000000
     78259     26087  TIP3      OH2             1.0477833595       29.9717877139       27.0935703535  W2        27426           0.0000000000
     78260     26087  TIP3      H1              0.3212433595       29.4920477139       27.4913303535  W2        27426           0.0000000000
     78261     26087  TIP3      H2              1.6291133595       30.1772577139       27.8257303535  W2        27426           0.0000000000
     78262     26088  TIP3      OH2             0.8069033595       32.7565377139       32.0413303535  W2        27427           0.0000000000
     78263     26088  TIP3      H1              1.6403233595       32.3785377139       31.7606903535  W2        27427           0.0000000000
     78264     26088  TIP3      H2              0.9189333595       33.6996577139       31.9222403535  W2        27427           0.0000000000
     78265     26089  TIP3      OH2            -0.7068666405       35.6342877139       34.3481703535  W2        27428           0.0000000000
     78266     26089  TIP3      H1             -1.3543366405       35.9594377139       34.9736903535  W2        27428           0.0000000000
     78267     26089  TIP3      H2             -1.2244666405       35.1940577139       33.6740003535  W2        27428           0.0000000000
     78268     26090  TIP3      OH2             1.3160933595       29.8726377139       23.4847003535  W2        27429           0.0000000000
     78269     26090  TIP3      H1              0.7942033595       30.2290477139       22.7657903535  W2        27429           0.0000000000
     78270     26090  TIP3      H2              1.2830133595       30.5474177139       24.1627903535  W2        27429           0.0000000000
     78271     26091  TIP3      OH2            -0.3350066405       27.1121977139       22.0354103535  W2        27430           0.0000000000
     78272     26091  TIP3      H1             -0.2385666405       27.7788977139       21.3553803535  W2        27430           0.0000000000
     78273     26091  TIP3      H2             -0.4750466405       26.2968277139       21.5539603535  W2        27430           0.0000000000
     78274     26092  TIP3      OH2            -1.1655366405       28.4924377139       27.6564403535  W2        27431           0.0000000000
     78275     26092  TIP3      H1             -1.3156566405       27.5472977139       27.6362203535  W2        27431           0.0000000000
     78276     26092  TIP3      H2             -1.5190866405       28.7735777139       28.5003503535  W2        27431           0.0000000000
     78277     26093  TIP3      OH2           -16.1302966405       30.5706577139       31.6668203535  W2        27432           0.0000000000
     78278     26093  TIP3      H1            -15.9460066405       30.4888277139       30.7311103535  W2        27432           0.0000000000
     78279     26093  TIP3      H2            -15.2810066405       30.4463577139       32.0904603535  W2        27432           0.0000000000
     78280     26094  TIP3      OH2            -1.0876266405       24.5201777139       21.1529603535  W2        27435           0.0000000000
     78281     26094  TIP3      H1             -0.4770466405       24.1488577139       21.7897803535  W2        27435           0.0000000000
     78282     26094  TIP3      H2             -1.9244766405       24.0988677139       21.3489603535  W2        27435           0.0000000000
     78283     26095  TIP3      OH2            -1.4550566405       26.0750177139       26.1189503535  W2        27436           0.0000000000
     78284     26095  TIP3      H1             -1.1753466405       25.1680577139       26.2431203535  W2        27436           0.0000000000
     78285     26095  TIP3      H2             -0.6958866405       26.5091677139       25.7298703535  W2        27436           0.0000000000
     78286     26096  TIP3      OH2            -0.8432266405       26.6567577139       31.5548403535  W2        27437           0.0000000000
     78287     26096  TIP3      H1              0.0895733595       26.8687477139       31.5204403535  W2        27437           0.0000000000
     78288     26096  TIP3      H2             -1.0784766405       26.7579677139       32.4771403535  W2        27437           0.0000000000
     78289     26097  TIP3      OH2            -0.8140366405       27.3932877139       34.3307803535  W2        27438           0.0000000000
     78290     26097  TIP3      H1             -1.6569066405       27.6613277139       34.6967603535  W2        27438           0.0000000000
     78291     26097  TIP3      H2             -0.3716066405       28.2154777139       34.1198903535  W2        27438           0.0000000000
     78292     26098  TIP3      OH2            -0.8415766405       23.3379477139       26.1671503535  W2        27441           0.0000000000
     78293     26098  TIP3      H1             -0.6590766405       22.8890977139       26.9926503535  W2        27441           0.0000000000
     78294     26098  TIP3      H2             -1.4412866405       22.7533877139       25.7036103535  W2        27441           0.0000000000
     78295     26099  TIP3      OH2           -15.3115666405       24.1533177139       30.6989903535  W2        27442           0.0000000000
     78296     26099  TIP3      H1            -14.8664066405       23.3615677139       31.0009603535  W2        27442           0.0000000000
     78297     26099  TIP3      H2            -14.8452666405       24.8698377139       31.1295503535  W2        27442           0.0000000000
     78298     26100  TIP3      OH2           -17.0075366405       27.1526177139       31.7680103535  W2        27443           0.0000000000
     78299     26100  TIP3      H1            -16.5155566405       26.9316677139       30.9772103535  W2        27443           0.0000000000
     78300     26100  TIP3      H2            -16.6454466405       27.9929577139       32.0489603535  W2        27443           0.0000000000
     78301     26101  TIP3      OH2             1.0250433595       23.4057577139       22.6951803535  W2        27445           0.0000000000
     78302     26101  TIP3      H1              1.4373033595       22.6843277139       22.2199803535  W2        27445           0.0000000000
     78303     26101  TIP3      H2              1.7066933595       24.0752177139       22.7536103535  W2        27445           0.0000000000
     78304     26102  TIP3      OH2           -16.6938866405       23.4105277139       25.8222503535  W2        27446           0.0000000000
     78305     26102  TIP3      H1            -17.6190466405       23.6191877139       25.6928003535  W2        27446           0.0000000000
     78306     26102  TIP3      H2            -16.2398966405       23.8946077139       25.1324803535  W2        27446           0.0000000000
     78307     26103  TIP3      OH2            -1.9231666405       38.3946977139       27.7679903535  W2        27447           0.0000000000
     78308     26103  TIP3      H1             -1.2708766405       38.0469077139       27.1599003535  W2        27447           0.0000000000
     78309     26103  TIP3      H2             -1.4127866405       38.8830177139       28.4139603535  W2        27447           0.0000000000
     78310     26104  TIP3      OH2           -16.7303466405       22.1484277139       34.1665003535  W2        27448           0.0000000000
     78311     26104  TIP3      H1            -17.3952966405       21.9024577139       34.8095903535  W2        27448           0.0000000000
     78312     26104  TIP3      H2            -17.1732166405       22.7704677139       33.5893003535  W2        27448           0.0000000000
     78313     26105  TIP3      OH2           -11.5841266405       36.2979577139       34.5694803535  W2        27450           0.0000000000
     78314     26105  TIP3      H1            -12.0090166405       37.1078077139       34.2869403535  W2        27450           0.0000000000
     78315     26105  TIP3      H2            -10.6798466405       36.3833677139       34.2674603535  W2        27450           0.0000000000
     78316     26106  TIP3      OH2           -14.1824566405       39.5543477139       34.6170103535  W2        27454           0.0000000000
     78317     26106  TIP3      H1            -14.9028166405       39.9944477139       34.1657803535  W2        27454           0.0000000000
     78318     26106  TIP3      H2            -14.5480566405       39.3038177139       35.4654103535  W2        27454           0.0000000000
     78319     26107  TIP3      OH2           -11.7151966405       39.1547377139       33.6467303535  W2        27455           0.0000000000
     78320     26107  TIP3      H1            -12.5799766405       39.2265877139       34.0507403535  W2        27455           0.0000000000
     78321     26107  TIP3      H2            -11.7702966405       39.7014677139       32.8629803535  W2        27455           0.0000000000
     78322     26108  TIP3      OH2            -7.0046366405       39.0426277139       32.8223303535  W2        27456           0.0000000000
     78323     26108  TIP3      H1             -7.4612366405       39.5715977139       32.1681703535  W2        27456           0.0000000000
     78324     26108  TIP3      H2             -6.8418366405       39.6457677139       33.5475603535  W2        27456           0.0000000000
     78325     26109  TIP3      OH2            -4.6770066405       37.9205877139       33.7673603535  W2        27457           0.0000000000
     78326     26109  TIP3      H1             -5.5816366405       38.0856077139       33.5015703535  W2        27457           0.0000000000
     78327     26109  TIP3      H2             -4.2481466405       38.7738077139       33.7017003535  W2        27457           0.0000000000
     78328     26110  TIP3      OH2            -2.0728166405       39.4904977139       34.0621403535  W2        27458           0.0000000000
     78329     26110  TIP3      H1             -2.2546166405       40.4063877139       33.8516303535  W2        27458           0.0000000000
     78330     26110  TIP3      H2             -1.8960366405       39.0802077139       33.2156003535  W2        27458           0.0000000000
     78331     26111  TIP3      OH2           -14.7676466405       38.1775977139       31.5271903535  W2        27459           0.0000000000
     78332     26111  TIP3      H1            -14.7860466405       37.7521077139       32.3844203535  W2        27459           0.0000000000
     78333     26111  TIP3      H2            -13.9628566405       37.8590977139       31.1184103535  W2        27459           0.0000000000
     78334     26112  TIP3      OH2           -12.6263366405       36.8874677139       30.1821803535  W2        27460           0.0000000000
     78335     26112  TIP3      H1            -12.8452666405       35.9712077139       30.3517803535  W2        27460           0.0000000000
     78336     26112  TIP3      H2            -11.8021166405       37.0275077139       30.6483203535  W2        27460           0.0000000000
     78337     26113  TIP3      OH2           -10.0890866405       37.3573977139       31.0309803535  W2        27461           0.0000000000
     78338     26113  TIP3      H1             -9.8765166405       36.4692977139       30.7440703535  W2        27461           0.0000000000
     78339     26113  TIP3      H2            -10.0245766405       37.3231677139       31.9853803535  W2        27461           0.0000000000
     78340     26114  TIP3      OH2            -6.5807166405       23.0214577139       30.1753103535  W2        27462           0.0000000000
     78341     26114  TIP3      H1             -7.2550366405       22.3920177139       30.4308903535  W2        27462           0.0000000000
     78342     26114  TIP3      H2             -6.0167966405       22.5373477139       29.5721003535  W2        27462           0.0000000000
     78343     26115  TIP3      OH2            -1.4379966405       21.1288577139       30.2880203535  W2        27463           0.0000000000
     78344     26115  TIP3      H1             -0.8342366405       21.6763977139       29.7861203535  W2        27463           0.0000000000
     78345     26115  TIP3      H2             -2.3077966405       21.4478977139       30.0474303535  W2        27463           0.0000000000
     78346     26116  TIP3      OH2             0.2890433595       22.2677277139       28.6211103535  W2        27464           0.0000000000
     78347     26116  TIP3      H1              0.9007933595       21.7532977139       28.0944703535  W2        27464           0.0000000000
     78348     26116  TIP3      H2              0.6713833595       23.1449377139       28.6445503535  W2        27464           0.0000000000
     78349     26117  TIP3      OH2           -14.2539666405       21.6554877139       27.9973003535  W2        27465           0.0000000000
     78350     26117  TIP3      H1            -15.0309866405       21.4209777139       27.4898903535  W2        27465           0.0000000000
     78351     26117  TIP3      H2            -13.7236066405       20.8586977139       28.0061003535  W2        27465           0.0000000000
     78352     26118  TIP3      OH2           -15.4176266405       21.4532977139       23.8009103535  W2        27466           0.0000000000
     78353     26118  TIP3      H1            -14.9785566405       22.0643477139       23.2092603535  W2        27466           0.0000000000
     78354     26118  TIP3      H2            -16.0513866405       21.9917077139       24.2749103535  W2        27466           0.0000000000
     78355     26119  TIP3      OH2            -9.6747066405       21.5821977139       27.8106103535  W2        27467           0.0000000000
     78356     26119  TIP3      H1             -8.8003666405       21.9706277139       27.7810403535  W2        27467           0.0000000000
     78357     26119  TIP3      H2             -9.8106266405       21.3669777139       28.7333303535  W2        27467           0.0000000000
     78358     26120  TIP3      OH2            -4.1178666405       21.6121777139       29.4597803535  W2        27468           0.0000000000
     78359     26120  TIP3      H1             -4.0417066405       21.7073377139       28.5103803535  W2        27468           0.0000000000
     78360     26120  TIP3      H2             -4.3929466405       20.7044677139       29.5886903535  W2        27468           0.0000000000
     78361     26121  TIP3      OH2            -2.7646066405       21.6379577139       25.1522803535  W2        27469           0.0000000000
     78362     26121  TIP3      H1             -3.4674966405       22.2528777139       24.9424203535  W2        27469           0.0000000000
     78363     26121  TIP3      H2             -3.2094666405       20.8006277139       25.2833703535  W2        27469           0.0000000000
     78364     26122  TIP3      OH2           -15.5166766405       37.4015177139       24.6984203535  W2        27470           0.0000000000
     78365     26122  TIP3      H1            -16.2016866405       37.3634077139       24.0309303535  W2        27470           0.0000000000
     78366     26122  TIP3      H2            -15.5129566405       38.3142777139       24.9866303535  W2        27470           0.0000000000
     78367     26123  TIP3      OH2           -13.5567166405       23.3694477139       22.2433203535  W2        27471           0.0000000000
     78368     26123  TIP3      H1            -13.0653766405       22.7396877139       21.7158703535  W2        27471           0.0000000000
     78369     26123  TIP3      H2            -12.9330866405       23.6653877139       22.9064403535  W2        27471           0.0000000000
     78370     26124  TIP3      OH2            -8.5307066405       23.6625977139       24.7003703535  W2        27472           0.0000000000
     78371     26124  TIP3      H1             -8.3525766405       23.0159177139       25.3832303535  W2        27472           0.0000000000
     78372     26124  TIP3      H2             -8.5840866405       24.4963677139       25.1674803535  W2        27472           0.0000000000
     78373     26125  TIP3      OH2            -6.6523266405       38.6110077139       23.0960403535  W2        27473           0.0000000000
     78374     26125  TIP3      H1             -5.7863066405       38.9777477139       22.9178603535  W2        27473           0.0000000000
     78375     26125  TIP3      H2             -6.8990466405       38.1718077139       22.2821203535  W2        27473           0.0000000000
     78376     26126  TIP3      OH2             0.0566333595       38.1740377139       25.7751503535  W2        27474           0.0000000000
     78377     26126  TIP3      H1             -0.1376566405       37.4262477139       25.2101103535  W2        27474           0.0000000000
     78378     26126  TIP3      H2              0.0176433595       38.9320477139       25.1919403535  W2        27474           0.0000000000
     78379     26127  TIP3      OH2           -13.6985566405       38.3215977139       21.7236303535  W2        27477           0.0000000000
     78380     26127  TIP3      H1            -13.9660966405       38.6078877139       22.5969403535  W2        27477           0.0000000000
     78381     26127  TIP3      H2            -12.9272966405       37.7755177139       21.8758803535  W2        27477           0.0000000000
     78382     26128  TIP3      OH2            13.6802933595       30.8117177139       27.9560503535  W2        27480           0.0000000000
     78383     26128  TIP3      H1             13.7694033595       31.7555377139       27.8237603535  W2        27480           0.0000000000
     78384     26128  TIP3      H2             13.0420533595       30.5363577139       27.2979903535  W2        27480           0.0000000000
     78385     26129  TIP3      OH2            12.6134233595       30.0667877139       31.3748703535  W2        27481           0.0000000000
     78386     26129  TIP3      H1             12.5751733595       29.4204177139       32.0798303535  W2        27481           0.0000000000
     78387     26129  TIP3      H2             12.2910733595       29.6002277139       30.6037403535  W2        27481           0.0000000000
     78388     26130  TIP3      OH2             4.9819233595       29.6809977139       32.9678603535  W2        27482           0.0000000000
     78389     26130  TIP3      H1              5.0231333595       29.0553277139       33.6911003535  W2        27482           0.0000000000
     78390     26130  TIP3      H2              5.6846933595       30.3048577139       33.1499003535  W2        27482           0.0000000000
     78391     26131  TIP3      OH2            16.3194433595       33.0058277139       29.6763803535  W2        27483           0.0000000000
     78392     26131  TIP3      H1             15.8787133595       32.2854277139       30.1269403535  W2        27483           0.0000000000
     78393     26131  TIP3      H2             16.3064133595       33.7265477139       30.3061503535  W2        27483           0.0000000000
     78394     26132  TIP3      OH2             5.9052333595       34.1308877139       31.5027703535  W2        27484           0.0000000000
     78395     26132  TIP3      H1              5.5357533595       33.3289377139       31.1332003535  W2        27484           0.0000000000
     78396     26132  TIP3      H2              6.8463433595       33.9623777139       31.5491103535  W2        27484           0.0000000000
     78397     26133  TIP3      OH2             2.5152833595       27.7911477139       26.8956503535  W2        27485           0.0000000000
     78398     26133  TIP3      H1              2.0676233595       28.6370177139       26.8773003535  W2        27485           0.0000000000
     78399     26133  TIP3      H2              1.9544033595       27.2115677139       26.3801603535  W2        27485           0.0000000000
     78400     26134  TIP3      OH2             3.2258933595       29.9531077139       29.0214503535  W2        27486           0.0000000000
     78401     26134  TIP3      H1              3.4392433595       29.1832677139       29.5487503535  W2        27486           0.0000000000
     78402     26134  TIP3      H2              3.9636533595       30.0427777139       28.4182103535  W2        27486           0.0000000000
     78403     26135  TIP3      OH2            13.4309933595       38.1099977139       29.8884203535  W2        27487           0.0000000000
     78404     26135  TIP3      H1             14.0506333595       37.4334677139       29.6153403535  W2        27487           0.0000000000
     78405     26135  TIP3      H2             13.2227333595       37.8920777139       30.7969103535  W2        27487           0.0000000000
     78406     26136  TIP3      OH2            11.0028633595       32.4989277139       31.7809703535  W2        27488           0.0000000000
     78407     26136  TIP3      H1             11.3066533595       31.8130677139       31.1863803535  W2        27488           0.0000000000
     78408     26136  TIP3      H2             11.7242633595       32.6177977139       32.3987703535  W2        27488           0.0000000000
     78409     26137  TIP3      OH2            19.6658433595       24.1004577139       32.6415903535  W2        27489           0.0000000000
     78410     26137  TIP3      H1             19.7150633595       24.7105777139       33.3775003535  W2        27489           0.0000000000
     78411     26137  TIP3      H2             20.0913533595       24.5615477139       31.9187003535  W2        27489           0.0000000000
     78412     26138  TIP3      OH2            14.1435633595       26.8931677139       32.1084503535  W2        27490           0.0000000000
     78413     26138  TIP3      H1             14.2861533595       25.9468677139       32.1286103535  W2        27490           0.0000000000
     78414     26138  TIP3      H2             14.0374633595       27.1001477139       31.1799403535  W2        27490           0.0000000000
     78415     26139  TIP3      OH2             7.2983933595       24.9948077139       29.3809303535  W2        27491           0.0000000000
     78416     26139  TIP3      H1              7.3415033595       25.8546577139       28.9625603535  W2        27491           0.0000000000
     78417     26139  TIP3      H2              6.8408033595       24.4422777139       28.7472503535  W2        27491           0.0000000000
     78418     26140  TIP3      OH2            15.0206633595       25.1253677139       27.7817603535  W2        27492           0.0000000000
     78419     26140  TIP3      H1             15.6670933595       24.7966877139       28.4065203535  W2        27492           0.0000000000
     78420     26140  TIP3      H2             15.5306033595       25.6432677139       27.1589003535  W2        27492           0.0000000000
     78421     26141  TIP3      OH2             3.9185433595       27.3913877139       30.1430703535  W2        27493           0.0000000000
     78422     26141  TIP3      H1              4.5722033595       26.8415577139       30.5750803535  W2        27493           0.0000000000
     78423     26141  TIP3      H2              3.9424733595       27.1172877139       29.2262703535  W2        27493           0.0000000000
     78424     26142  TIP3      OH2             9.0749933595       28.9415177139       29.3582203535  W2        27494           0.0000000000
     78425     26142  TIP3      H1              9.6910933595       28.4150577139       29.8676203535  W2        27494           0.0000000000
     78426     26142  TIP3      H2              8.4888733595       28.3013877139       28.9545803535  W2        27494           0.0000000000
     78427     26143  TIP3      OH2            20.0573033595       25.5783777139       34.8775703535  W2        27495           0.0000000000
     78428     26143  TIP3      H1             19.3687633595       26.2364477139       34.7822303535  W2        27495           0.0000000000
     78429     26143  TIP3      H2             20.0727633595       25.3811677139       35.8141103535  W2        27495           0.0000000000
     78430     26144  TIP3      OH2             6.1085833595       23.9126477139       33.4550103535  W2        27496           0.0000000000
     78431     26144  TIP3      H1              5.8897533595       24.4427077139       32.6886103535  W2        27496           0.0000000000
     78432     26144  TIP3      H2              5.4406733595       24.1391977139       34.1021503535  W2        27496           0.0000000000
     78433     26145  TIP3      OH2            13.4775633595       33.4127577139       26.9989203535  W2        27497           0.0000000000
     78434     26145  TIP3      H1             13.1820733595       33.0899877139       26.1476103535  W2        27497           0.0000000000
     78435     26145  TIP3      H2             13.1533433595       34.3124277139       27.0401803535  W2        27497           0.0000000000
     78436     26146  TIP3      OH2             8.6777233595       31.5882177139       33.7423803535  W2        27498           0.0000000000
     78437     26146  TIP3      H1              7.9376333595       32.1863677139       33.8459003535  W2        27498           0.0000000000
     78438     26146  TIP3      H2              9.3916733595       32.1421777139       33.4267403535  W2        27498           0.0000000000
     78439     26147  TIP3      OH2            16.7845033595       24.4162977139       29.7623503535  W2        27499           0.0000000000
     78440     26147  TIP3      H1             16.5693033595       23.6506377139       30.2949503535  W2        27499           0.0000000000
     78441     26147  TIP3      H2             17.4402433595       24.8887577139       30.2752003535  W2        27499           0.0000000000
     78442     26148  TIP3      OH2             5.7023133595       25.8048277139       31.4072303535  W2        27500           0.0000000000
     78443     26148  TIP3      H1              6.3159433595       26.4375877139       31.7804703535  W2        27500           0.0000000000
     78444     26148  TIP3      H2              6.2143833595       25.3323277139       30.7509203535  W2        27500           0.0000000000
     78445     26149  TIP3      OH2             7.0851533595       33.5525177139       34.5295303535  W2        27501           0.0000000000
     78446     26149  TIP3      H1              7.0799133595       34.4318677139       34.1514603535  W2        27501           0.0000000000
     78447     26149  TIP3      H2              6.2315633595       33.4689277139       34.9545203535  W2        27501           0.0000000000
     78448     26150  TIP3      OH2             3.2062433595       33.2233077139       25.3114603535  W2        27502           0.0000000000
     78449     26150  TIP3      H1              2.9343333595       33.4524077139       24.4227503535  W2        27502           0.0000000000
     78450     26150  TIP3      H2              3.2518133595       34.0611877139       25.7719903535  W2        27502           0.0000000000
     78451     26151  TIP3      OH2            16.8312133595       34.8448977139       32.0243103535  W2        27503           0.0000000000
     78452     26151  TIP3      H1             15.8895833595       34.9032877139       32.1860003535  W2        27503           0.0000000000
     78453     26151  TIP3      H2             17.1078233595       35.7509477139       31.8872803535  W2        27503           0.0000000000
     78454     26152  TIP3      OH2            17.1319133595       23.1314277139       33.4417003535  W2        27504           0.0000000000
     78455     26152  TIP3      H1             16.3958333595       23.7421377139       33.4038303535  W2        27504           0.0000000000
     78456     26152  TIP3      H2             17.8153133595       23.5463277139       32.9153403535  W2        27504           0.0000000000
     78457     26153  TIP3      OH2            10.1350533595       21.2181577139       30.9075003535  W2        27505           0.0000000000
     78458     26153  TIP3      H1             10.0174733595       20.2697577139       30.8533303535  W2        27505           0.0000000000
     78459     26153  TIP3      H2              9.2800633595       21.5507677139       31.1806103535  W2        27505           0.0000000000
     78460     26154  TIP3      OH2            15.0833333595       36.6262477139       28.6494703535  W2        27506           0.0000000000
     78461     26154  TIP3      H1             15.5085633595       35.9190377139       28.1644303535  W2        27506           0.0000000000
     78462     26154  TIP3      H2             15.4003333595       37.4275177139       28.2326903535  W2        27506           0.0000000000
     78463     26155  TIP3      OH2            16.2429833595       34.5270977139       27.1581303535  W2        27507           0.0000000000
     78464     26155  TIP3      H1             15.9854633595       33.8371077139       26.5467203535  W2        27507           0.0000000000
     78465     26155  TIP3      H2             16.3140633595       34.0842177139       28.0037203535  W2        27507           0.0000000000
     78466     26156  TIP3      OH2            12.4015433595       30.0557177139       25.4080803535  W2        27509           0.0000000000
     78467     26156  TIP3      H1             11.6900933595       30.5906877139       25.0561303535  W2        27509           0.0000000000
     78468     26156  TIP3      H2             13.0925033595       30.1109277139       24.7479703535  W2        27509           0.0000000000
     78469     26157  TIP3      OH2            12.4554633595       28.5131477139       22.4465803535  W2        27510           0.0000000000
     78470     26157  TIP3      H1             13.1564533595       28.5358377139       23.0979803535  W2        27510           0.0000000000
     78471     26157  TIP3      H2             12.7577533595       27.8851177139       21.7905103535  W2        27510           0.0000000000
     78472     26158  TIP3      OH2            19.7709333595       29.4335677139       33.7015203535  W2        27511           0.0000000000
     78473     26158  TIP3      H1             19.1183433595       30.1281277139       33.7906103535  W2        27511           0.0000000000
     78474     26158  TIP3      H2             20.2359633595       29.6436577139       32.8916803535  W2        27511           0.0000000000
     78475     26159  TIP3      OH2            15.8073133595       30.2650477139       26.3596703535  W2        27512           0.0000000000
     78476     26159  TIP3      H1             15.0754133595       30.4934177139       26.9327303535  W2        27512           0.0000000000
     78477     26159  TIP3      H2             16.2545333595       29.5513177139       26.8144203535  W2        27512           0.0000000000
     78478     26160  TIP3      OH2            15.7046633595       28.4393077139       35.4273703535  W2        27513           0.0000000000
     78479     26160  TIP3      H1             15.7845733595       29.2027477139       35.9992203535  W2        27513           0.0000000000
     78480     26160  TIP3      H2             15.1034333595       28.7185477139       34.7368803535  W2        27513           0.0000000000
     78481     26161  TIP3      OH2             7.4526833595       30.8956677139       28.2421703535  W2        27514           0.0000000000
     78482     26161  TIP3      H1              7.1222033595       30.5250077139       27.4238703535  W2        27514           0.0000000000
     78483     26161  TIP3      H2              8.0410933595       30.2250677139       28.5890003535  W2        27514           0.0000000000
     78484     26162  TIP3      OH2             8.8194333595       34.3237277139       30.9233903535  W2        27515           0.0000000000
     78485     26162  TIP3      H1              8.7245633595       33.7450377139       30.1668503535  W2        27515           0.0000000000
     78486     26162  TIP3      H2              9.5487933595       33.9522977139       31.4196703535  W2        27515           0.0000000000
     78487     26163  TIP3      OH2             7.8192333595       29.6642277139       31.8756703535  W2        27516           0.0000000000
     78488     26163  TIP3      H1              8.3844833595       29.7856477139       31.1127903535  W2        27516           0.0000000000
     78489     26163  TIP3      H2              8.1381233595       30.3017277139       32.5145203535  W2        27516           0.0000000000
     78490     26164  TIP3      OH2            14.1284533595       35.1674177139       32.6097203535  W2        27517           0.0000000000
     78491     26164  TIP3      H1             13.8881133595       35.8297277139       33.2576403535  W2        27517           0.0000000000
     78492     26164  TIP3      H2             13.9302733595       34.3329377139       33.0346803535  W2        27517           0.0000000000
     78493     26165  TIP3      OH2            14.6782633595       29.4273377139       24.0447903535  W2        27519           0.0000000000
     78494     26165  TIP3      H1             15.2578133595       29.5773677139       24.7916803535  W2        27519           0.0000000000
     78495     26165  TIP3      H2             15.0922633595       29.8980777139       23.3214303535  W2        27519           0.0000000000
     78496     26166  TIP3      OH2            12.4047533595       36.1641877139       27.4801003535  W2        27521           0.0000000000
     78497     26166  TIP3      H1             12.8785133595       36.4598177139       28.2575203535  W2        27521           0.0000000000
     78498     26166  TIP3      H2             11.8416833595       36.9023477139       27.2470603535  W2        27521           0.0000000000
     78499     26167  TIP3      OH2            18.3771033595       21.1773777139       23.8577603535  W2        27523           0.0000000000
     78500     26167  TIP3      H1             17.4771733595       21.3162777139       24.1528203535  W2        27523           0.0000000000
     78501     26167  TIP3      H2             18.6289433595       22.0088377139       23.4559303535  W2        27523           0.0000000000
     78502     26168  TIP3      OH2             6.4429533595       29.9650977139       25.8314503535  W2        27524           0.0000000000
     78503     26168  TIP3      H1              6.1510833595       30.7332677139       25.3405803535  W2        27524           0.0000000000
     78504     26168  TIP3      H2              5.7684733595       29.3057177139       25.6685903535  W2        27524           0.0000000000
     78505     26169  TIP3      OH2            19.5662433595       35.5436177139       22.2341503535  W2        27525           0.0000000000
     78506     26169  TIP3      H1             19.6395933595       36.4826377139       22.4046803535  W2        27525           0.0000000000
     78507     26169  TIP3      H2             20.4717533595       35.2384777139       22.1778803535  W2        27525           0.0000000000
     78508     26170  TIP3      OH2             2.5359633595       32.3280177139       34.6464303535  W2        27526           0.0000000000
     78509     26170  TIP3      H1              2.0348033595       32.2999577139       33.8314003535  W2        27526           0.0000000000
     78510     26170  TIP3      H2              2.5413333595       31.4223377139       34.9561603535  W2        27526           0.0000000000
     78511     26171  TIP3      OH2             2.2862333595       35.1083977139       31.5304503535  W2        27527           0.0000000000
     78512     26171  TIP3      H1              3.2322933595       34.9640977139       31.5114003535  W2        27527           0.0000000000
     78513     26171  TIP3      H2              2.1738633595       35.8926777139       32.0675703535  W2        27527           0.0000000000
     78514     26172  TIP3      OH2            11.8770633595       39.1206577139       25.8950203535  W2        27530           0.0000000000
     78515     26172  TIP3      H1             11.8016633595       38.9993777139       24.9485403535  W2        27530           0.0000000000
     78516     26172  TIP3      H2             11.9099333595       40.0699277139       26.0134803535  W2        27530           0.0000000000
     78517     26173  TIP3      OH2             5.5304433595       37.9093577139       27.6759203535  W2        27531           0.0000000000
     78518     26173  TIP3      H1              5.6824833595       37.5613977139       28.5545703535  W2        27531           0.0000000000
     78519     26173  TIP3      H2              4.6794833595       37.5530877139       27.4206403535  W2        27531           0.0000000000
     78520     26174  TIP3      OH2            14.9786633595       38.2746777139       22.8972603535  W2        27532           0.0000000000
     78521     26174  TIP3      H1             15.3535033595       37.5302877139       22.4265203535  W2        27532           0.0000000000
     78522     26174  TIP3      H2             14.9830333595       38.0047377139       23.8155903535  W2        27532           0.0000000000
     78523     26175  TIP3      OH2            14.6474733595       38.2003877139       25.6464803535  W2        27533           0.0000000000
     78524     26175  TIP3      H1             13.7124533595       38.3005777139       25.8251803535  W2        27533           0.0000000000
     78525     26175  TIP3      H2             14.9276633595       37.4909877139       26.2248003535  W2        27533           0.0000000000
     78526     26176  TIP3      OH2             7.4038133595       22.1216077139       31.6851303535  W2        27536           0.0000000000
     78527     26176  TIP3      H1              6.5421833595       22.0344277139       31.2774203535  W2        27536           0.0000000000
     78528     26176  TIP3      H2              7.3813833595       22.9776177139       32.1128903535  W2        27536           0.0000000000
     78529     26177  TIP3      OH2            12.0665933595       21.8436477139       35.0598303535  W2        27537           0.0000000000
     78530     26177  TIP3      H1             12.4869033595       21.4283577139       35.8128903535  W2        27537           0.0000000000
     78531     26177  TIP3      H2             11.1335533595       21.6649777139       35.1770303535  W2        27537           0.0000000000
     78532     26178  TIP3      OH2            16.1555733595       30.4601677139       21.6745803535  W2        27539           0.0000000000
     78533     26178  TIP3      H1             16.1976533595       30.2375577139       20.7445803535  W2        27539           0.0000000000
     78534     26178  TIP3      H2             17.0047833595       30.8588777139       21.8645703535  W2        27539           0.0000000000
     78535     26179  TIP3      OH2            11.7283233595       24.3359877139       22.3449103535  W2        27540           0.0000000000
     78536     26179  TIP3      H1             11.4748033595       24.3551477139       23.2677203535  W2        27540           0.0000000000
     78537     26179  TIP3      H2             11.4715333595       23.4645277139       22.0435303535  W2        27540           0.0000000000
     78538     26180  TIP3      OH2             7.4948233595       27.0870577139       32.7801503535  W2        27541           0.0000000000
     78539     26180  TIP3      H1              6.8530333595       27.0467877139       33.4891603535  W2        27541           0.0000000000
     78540     26180  TIP3      H2              7.5320233595       28.0135277139       32.5424503535  W2        27541           0.0000000000
     78541     26181  TIP3      OH2             7.4917333595       27.3080677139       27.6921503535  W2        27542           0.0000000000
     78542     26181  TIP3      H1              6.5990233595       26.9676777139       27.6335303535  W2        27542           0.0000000000
     78543     26181  TIP3      H2              7.9423933595       26.9311577139       26.9364703535  W2        27542           0.0000000000
     78544     26182  TIP3      OH2            13.0272833595       27.7240977139       26.5092303535  W2        27543           0.0000000000
     78545     26182  TIP3      H1             12.6183133595       28.5389577139       26.2177103535  W2        27543           0.0000000000
     78546     26182  TIP3      H2             13.7479033595       27.5841077139       25.8949403535  W2        27543           0.0000000000
     78547     26183  TIP3      OH2            14.0320533595       27.1701377139       29.3232003535  W2        27545           0.0000000000
     78548     26183  TIP3      H1             13.8365033595       27.7758177139       28.6082603535  W2        27545           0.0000000000
     78549     26183  TIP3      H2             14.2133133595       26.3366577139       28.8888303535  W2        27545           0.0000000000
     78550     26184  TIP3      OH2             5.2448733595       27.4074077139       34.6473503535  W2        27546           0.0000000000
     78551     26184  TIP3      H1              5.2068133595       27.8075677139       35.5160603535  W2        27546           0.0000000000
     78552     26184  TIP3      H2              4.7539833595       26.5906477139       34.7376403535  W2        27546           0.0000000000
     78553     26185  TIP3      OH2             8.6106133595       24.7816377139       21.4459503535  W2        27547           0.0000000000
     78554     26185  TIP3      H1              8.1796833595       24.3366477139       22.1756903535  W2        27547           0.0000000000
     78555     26185  TIP3      H2              7.8924833595       25.1532677139       20.9337003535  W2        27547           0.0000000000
     78556     26186  TIP3      OH2             1.8529533595       24.5235877139       28.4978203535  W2        27548           0.0000000000
     78557     26186  TIP3      H1              2.4837233595       24.4947977139       29.2172103535  W2        27548           0.0000000000
     78558     26186  TIP3      H2              2.3023833595       24.0984577139       27.7674103535  W2        27548           0.0000000000
     78559     26187  TIP3      OH2             3.1271633595       25.2697877139       23.9218603535  W2        27549           0.0000000000
     78560     26187  TIP3      H1              3.6013333595       25.8607777139       23.3369503535  W2        27549           0.0000000000
     78561     26187  TIP3      H2              2.4098033595       25.8000777139       24.2688703535  W2        27549           0.0000000000
     78562     26188  TIP3      OH2            13.2959733595       28.8082677139       33.9944403535  W2        27550           0.0000000000
     78563     26188  TIP3      H1             13.6194533595       28.1772377139       33.3514903535  W2        27550           0.0000000000
     78564     26188  TIP3      H2             12.8559033595       28.2734877139       34.6551803535  W2        27550           0.0000000000
     78565     26189  TIP3      OH2            10.0732633595       24.7358177139       28.7785603535  W2        27551           0.0000000000
     78566     26189  TIP3      H1              9.1623733595       24.7924977139       29.0671603535  W2        27551           0.0000000000
     78567     26189  TIP3      H2             10.5785533595       24.6753677139       29.5892803535  W2        27551           0.0000000000
     78568     26190  TIP3      OH2             4.9016033595       26.3644477139       27.6053203535  W2        27552           0.0000000000
     78569     26190  TIP3      H1              4.0124033595       26.4639977139       27.2652803535  W2        27552           0.0000000000
     78570     26190  TIP3      H2              5.1980933595       25.5227477139       27.2591103535  W2        27552           0.0000000000
     78571     26191  TIP3      OH2             8.5547833595       26.3647077139       25.2617803535  W2        27553           0.0000000000
     78572     26191  TIP3      H1              9.4863333595       26.4937077139       25.4400903535  W2        27553           0.0000000000
     78573     26191  TIP3      H2              8.3398133595       27.0341377139       24.6122503535  W2        27553           0.0000000000
     78574     26192  TIP3      OH2            14.4784533595       23.9704477139       32.0427403535  W2        27554           0.0000000000
     78575     26192  TIP3      H1             13.8016133595       24.1017577139       32.7067103535  W2        27554           0.0000000000
     78576     26192  TIP3      H2             13.9929433595       23.8153977139       31.2325103535  W2        27554           0.0000000000
     78577     26193  TIP3      OH2             7.2288033595       27.5589277139       22.8283903535  W2        27555           0.0000000000
     78578     26193  TIP3      H1              6.6863133595       27.1793077139       22.1371503535  W2        27555           0.0000000000
     78579     26193  TIP3      H2              8.0622933595       27.7533977139       22.3998003535  W2        27555           0.0000000000
     78580     26194  TIP3      OH2            11.3932333595       27.5231177139       30.6655203535  W2        27558           0.0000000000
     78581     26194  TIP3      H1             11.9575733595       26.9767777139       30.1184803535  W2        27558           0.0000000000
     78582     26194  TIP3      H2             11.2455733595       27.0013077139       31.4542803535  W2        27558           0.0000000000
     78583     26195  TIP3      OH2             6.3952033595       23.6597277139       27.0840003535  W2        27559           0.0000000000
     78584     26195  TIP3      H1              6.0781533595       22.7572577139       27.0485403535  W2        27559           0.0000000000
     78585     26195  TIP3      H2              7.1766133595       23.6614677139       26.5311603535  W2        27559           0.0000000000
     78586     26196  TIP3      OH2            10.0198233595       25.9117277139       33.0795603535  W2        27560           0.0000000000
     78587     26196  TIP3      H1              9.1843533595       26.3656777139       33.1898003535  W2        27560           0.0000000000
     78588     26196  TIP3      H2             10.5438833595       26.1875777139       33.8315503535  W2        27560           0.0000000000
     78589     26197  TIP3      OH2            10.5640833595       32.1244977139       24.7642003535  W2        27561           0.0000000000
     78590     26197  TIP3      H1              9.8191833595       31.6170277139       24.4419903535  W2        27561           0.0000000000
     78591     26197  TIP3      H2             10.4298033595       32.1732977139       25.7106803535  W2        27561           0.0000000000
     78592     26198  TIP3      OH2            17.7139733595       31.2573177139       33.5509603535  W2        27562           0.0000000000
     78593     26198  TIP3      H1             18.3558533595       31.7139477139       33.0071803535  W2        27562           0.0000000000
     78594     26198  TIP3      H2             16.8836633595       31.3705577139       33.0883703535  W2        27562           0.0000000000
     78595     26199  TIP3      OH2            14.4617633595       24.9384877139       22.9634603535  W2        27563           0.0000000000
     78596     26199  TIP3      H1             13.5231833595       25.0500477139       22.8123403535  W2        27563           0.0000000000
     78597     26199  TIP3      H2             14.7589733595       25.7951777139       23.2700303535  W2        27563           0.0000000000
     78598     26200  TIP3      OH2            15.1801133595       26.8057577139       24.6242003535  W2        27565           0.0000000000
     78599     26200  TIP3      H1             16.0720133595       26.6682577139       24.9433203535  W2        27565           0.0000000000
     78600     26200  TIP3      H2             15.2364733595       27.5963677139       24.0875503535  W2        27565           0.0000000000
     78601     26201  TIP3      OH2             5.6889133595       31.4194977139       30.5339903535  W2        27566           0.0000000000
     78602     26201  TIP3      H1              6.4336333595       31.4170677139       29.9326403535  W2        27566           0.0000000000
     78603     26201  TIP3      H2              5.7665733595       30.5958777139       31.0155003535  W2        27566           0.0000000000
     78604     26202  TIP3      OH2            12.6894933595       33.5829277139       23.7896603535  W2        27567           0.0000000000
     78605     26202  TIP3      H1             12.3943333595       34.4097177139       24.1711403535  W2        27567           0.0000000000
     78606     26202  TIP3      H2             11.9864933595       32.9636177139       23.9858003535  W2        27567           0.0000000000
     78607     26203  TIP3      OH2            20.0649833595       27.0151677139       24.3188703535  W2        27571           0.0000000000
     78608     26203  TIP3      H1             19.5106133595       26.6189677139       23.6466203535  W2        27571           0.0000000000
     78609     26203  TIP3      H2             20.1653433595       27.9256877139       24.0412003535  W2        27571           0.0000000000
     78610     26204  TIP3      OH2            18.3601533595       35.8012077139       24.7840803535  W2        27573           0.0000000000
     78611     26204  TIP3      H1             17.9872633595       34.9755877139       25.0931403535  W2        27573           0.0000000000
     78612     26204  TIP3      H2             18.6375033595       35.6181477139       23.8864203535  W2        27573           0.0000000000
     78613     26205  TIP3      OH2            15.5205433595       30.6091577139       31.8052703535  W2        27574           0.0000000000
     78614     26205  TIP3      H1             14.5922333595       30.3773477139       31.7782003535  W2        27574           0.0000000000
     78615     26205  TIP3      H2             15.9716533595       29.8321377139       31.4751503535  W2        27574           0.0000000000
     78616     26206  TIP3      OH2             8.0638533595       34.9373177139       27.9381403535  W2        27575           0.0000000000
     78617     26206  TIP3      H1              8.5910733595       35.7107577139       27.7380203535  W2        27575           0.0000000000
     78618     26206  TIP3      H2              7.1837033595       35.1622377139       27.6365403535  W2        27575           0.0000000000
     78619     26207  TIP3      OH2             3.8186233595       29.7997277139       22.5253803535  W2        27576           0.0000000000
     78620     26207  TIP3      H1              4.4346133595       30.4264477139       22.9048603535  W2        27576           0.0000000000
     78621     26207  TIP3      H2              2.9568833595       30.1157077139       22.7970303535  W2        27576           0.0000000000
     78622     26208  TIP3      OH2             9.4910833595       32.6003077139       27.5145703535  W2        27577           0.0000000000
     78623     26208  TIP3      H1              9.2500833595       33.5257477139       27.5561003535  W2        27577           0.0000000000
     78624     26208  TIP3      H2              8.7504433595       32.1414377139       27.9109603535  W2        27577           0.0000000000
     78625     26209  TIP3      OH2            10.0057433595       36.7496677139       33.8296803535  W2        27578           0.0000000000
     78626     26209  TIP3      H1             10.3682133595       37.6042277139       33.5961203535  W2        27578           0.0000000000
     78627     26209  TIP3      H2             10.5372633595       36.4578277139       34.5703103535  W2        27578           0.0000000000
     78628     26210  TIP3      OH2             8.1741633595       37.6220677139       27.0597903535  W2        27579           0.0000000000
     78629     26210  TIP3      H1              7.2242133595       37.7278077139       27.1111203535  W2        27579           0.0000000000
     78630     26210  TIP3      H2              8.5259733595       38.4428077139       27.4045403535  W2        27579           0.0000000000
     78631     26211  TIP3      OH2            13.5498233595       32.8487377139       33.5302403535  W2        27580           0.0000000000
     78632     26211  TIP3      H1             13.1239533595       32.6209077139       34.3566403535  W2        27580           0.0000000000
     78633     26211  TIP3      H2             14.1304033595       32.1099177139       33.3477703535  W2        27580           0.0000000000
     78634     26212  TIP3      OH2            15.7527133595       33.7777877139       22.6041403535  W2        27581           0.0000000000
     78635     26212  TIP3      H1             16.1060233595       33.3977677139       23.4084903535  W2        27581           0.0000000000
     78636     26212  TIP3      H2             14.8040633595       33.6842677139       22.6910703535  W2        27581           0.0000000000
     78637     26213  TIP3      OH2            20.2561533595       38.2570377139       22.8051603535  W2        27583           0.0000000000
     78638     26213  TIP3      H1             20.9999433595       38.8430877139       22.6653203535  W2        27583           0.0000000000
     78639     26213  TIP3      H2             19.5619633595       38.8256177139       23.1384003535  W2        27583           0.0000000000
     78640     26214  TIP3      OH2             4.3308333595       24.6334577139       35.4069803535  W2        27584           0.0000000000
     78641     26214  TIP3      H1              3.4380633595       24.9719977139       35.3393803535  W2        27584           0.0000000000
     78642     26214  TIP3      H2              4.2321133595       23.7780677139       35.8250603535  W2        27584           0.0000000000
     78643     26215  TIP3      OH2            16.6186433595       32.4499877139       24.8309303535  W2        27585           0.0000000000
     78644     26215  TIP3      H1             16.3414033595       31.7219177139       25.3870403535  W2        27585           0.0000000000
     78645     26215  TIP3      H2             17.5459433595       32.5691877139       25.0361903535  W2        27585           0.0000000000
     78646     26216  TIP3      OH2             3.9820333595       36.4378977139       33.8419203535  W2        27586           0.0000000000
     78647     26216  TIP3      H1              4.1990633595       35.5061377139       33.8108903535  W2        27586           0.0000000000
     78648     26216  TIP3      H2              4.2283833595       36.7123977139       34.7252003535  W2        27586           0.0000000000
     78649     26217  TIP3      OH2             9.8434933595       34.8893977139       21.0511403535  W2        27587           0.0000000000
     78650     26217  TIP3      H1             10.0824733595       34.1412077139       20.5040303535  W2        27587           0.0000000000
     78651     26217  TIP3      H2              9.5746233595       34.5015677139       21.8839203535  W2        27587           0.0000000000
     78652     26218  TIP3      OH2             8.7805533595       34.4597777139       23.5074003535  W2        27588           0.0000000000
     78653     26218  TIP3      H1              8.9273533595       33.9397577139       24.2974903535  W2        27588           0.0000000000
     78654     26218  TIP3      H2              8.7777233595       35.3665377139       23.8139903535  W2        27588           0.0000000000
     78655     26219  TIP3      OH2             5.2336633595       31.7121077139       24.0179403535  W2        27589           0.0000000000
     78656     26219  TIP3      H1              4.5475933595       32.0643577139       24.5849103535  W2        27589           0.0000000000
     78657     26219  TIP3      H2              5.7564533595       32.4750677139       23.7713703535  W2        27589           0.0000000000
     78658     26220  TIP3      OH2            13.0651733595       24.3744877139       34.2968403535  W2        27590           0.0000000000
     78659     26220  TIP3      H1             13.7639633595       24.4483577139       34.9468103535  W2        27590           0.0000000000
     78660     26220  TIP3      H2             12.6843133595       23.5099877139       34.4511303535  W2        27590           0.0000000000
     78661     26221  TIP3      OH2            13.8496633595       24.0266577139       25.3940703535  W2        27591           0.0000000000
     78662     26221  TIP3      H1             14.0694933595       24.4981977139       24.5906103535  W2        27591           0.0000000000
     78663     26221  TIP3      H2             14.4080633595       24.4209177139       26.0641303535  W2        27591           0.0000000000
     78664     26222  TIP3      OH2            11.5182733595       36.1571377139       24.2568203535  W2        27592           0.0000000000
     78665     26222  TIP3      H1             10.7018833595       36.6541077139       24.3092503535  W2        27592           0.0000000000
     78666     26222  TIP3      H2             12.0479033595       36.6324877139       23.6167003535  W2        27592           0.0000000000
     78667     26223  TIP3      OH2            11.0496533595       25.7545377139       26.2289103535  W2        27593           0.0000000000
     78668     26223  TIP3      H1             11.8619133595       26.2588577139       26.2750803535  W2        27593           0.0000000000
     78669     26223  TIP3      H2             10.8049533595       25.6095077139       27.1428703535  W2        27593           0.0000000000
     78670     26224  TIP3      OH2            11.5852933595       26.7408077139       35.4135703535  W2        27594           0.0000000000
     78671     26224  TIP3      H1             11.7043233595       27.3143477139       36.1706103535  W2        27594           0.0000000000
     78672     26224  TIP3      H2             12.2407533595       26.0527477139       35.5283503535  W2        27594           0.0000000000
     78673     26225  TIP3      OH2            11.9333233595       22.8358377139       27.1670203535  W2        27595           0.0000000000
     78674     26225  TIP3      H1             11.5866733595       23.4528977139       27.8114503535  W2        27595           0.0000000000
     78675     26225  TIP3      H2             12.5920133595       23.3364077139       26.6855703535  W2        27595           0.0000000000
     78676     26226  TIP3      OH2             8.8565833595       37.2008577139       24.2385103535  W2        27596           0.0000000000
     78677     26226  TIP3      H1              9.0174533595       38.0006077139       23.7377703535  W2        27596           0.0000000000
     78678     26226  TIP3      H2              8.6593633595       37.5074577139       25.1235703535  W2        27596           0.0000000000
     78679     26227  TIP3      OH2             7.5910233595       23.8987777139       23.8542703535  W2        27597           0.0000000000
     78680     26227  TIP3      H1              7.5075033595       24.7870877139       24.2009103535  W2        27597           0.0000000000
     78681     26227  TIP3      H2              8.4810533595       23.6334477139       24.0859503535  W2        27597           0.0000000000
     78682     26228  TIP3      OH2            16.3919733595       28.3979377139       30.3442703535  W2        27599           0.0000000000
     78683     26228  TIP3      H1             15.5944133595       27.9829577139       30.0157703535  W2        27599           0.0000000000
     78684     26228  TIP3      H2             16.8370833595       27.7073077139       30.8353203535  W2        27599           0.0000000000
     78685     26229  TIP3      OH2             5.8495533595       34.3259977139       22.9147203535  W2        27600           0.0000000000
     78686     26229  TIP3      H1              6.4417033595       35.0254777139       23.1909603535  W2        27600           0.0000000000
     78687     26229  TIP3      H2              6.3088533595       33.8929477139       22.1951803535  W2        27600           0.0000000000
     78688     26230  TIP3      OH2             4.1654733595       26.9902977139       22.0306603535  W2        27601           0.0000000000
     78689     26230  TIP3      H1              4.1207333595       27.9296077139       22.2093603535  W2        27601           0.0000000000
     78690     26230  TIP3      H2              3.2777933595       26.7547877139       21.7608703535  W2        27601           0.0000000000
     78691     26231  TIP3      OH2            17.4784333595       37.6541877139       31.9666203535  W2        27602           0.0000000000
     78692     26231  TIP3      H1             17.3228633595       38.3326277139       31.3095503535  W2        27602           0.0000000000
     78693     26231  TIP3      H2             18.4110733595       37.7261177139       32.1696803535  W2        27602           0.0000000000
     78694     26232  TIP3      OH2             4.9736733595       21.7719577139       30.7037603535  W2        27603           0.0000000000
     78695     26232  TIP3      H1              4.7446533595       21.8312077139       29.7762603535  W2        27603           0.0000000000
     78696     26232  TIP3      H2              4.5310133595       20.9805077139       31.0101703535  W2        27603           0.0000000000
     78697     26233  TIP3      OH2             3.9040033595       35.7126677139       26.8643403535  W2        27604           0.0000000000
     78698     26233  TIP3      H1              3.0718633595       36.1849377139       26.8914803535  W2        27604           0.0000000000
     78699     26233  TIP3      H2              4.4498333595       36.2224277139       26.2656503535  W2        27604           0.0000000000
     78700     26234  TIP3      OH2            11.8816733595       36.7525377139       21.1897403535  W2        27607           0.0000000000
     78701     26234  TIP3      H1             11.2377733595       36.1213977139       21.5111103535  W2        27607           0.0000000000
     78702     26234  TIP3      H2             12.6435033595       36.2213377139       20.9580903535  W2        27607           0.0000000000
     78703     26235  TIP3      OH2            16.4859633595       36.5695277139       21.4235403535  W2        27609           0.0000000000
     78704     26235  TIP3      H1             16.7690033595       35.7750477139       21.8762303535  W2        27609           0.0000000000
     78705     26235  TIP3      H2             17.2257533595       36.8026277139       20.8626503535  W2        27609           0.0000000000
     78706     26236  TIP3      OH2             7.4406933595       32.4790177139       21.2810303535  W2        27611           0.0000000000
     78707     26236  TIP3      H1              7.5051033595       31.6849777139       21.8116703535  W2        27611           0.0000000000
     78708     26236  TIP3      H2              8.0936133595       32.3602977139       20.5912303535  W2        27611           0.0000000000
     78709     26237  TIP3      OH2            12.7930333595       33.5261877139       21.0168303535  W2        27613           0.0000000000
     78710     26237  TIP3      H1             12.5244433595       33.7063977139       21.9177203535  W2        27613           0.0000000000
     78711     26237  TIP3      H2             12.5865933595       32.6008077139       20.8854103535  W2        27613           0.0000000000
     78712     26238  TIP3      OH2             8.5900733595       30.4516377139       23.5868303535  W2        27616           0.0000000000
     78713     26238  TIP3      H1              8.1302733595       29.9674677139       24.2726803535  W2        27616           0.0000000000
     78714     26238  TIP3      H2              8.8449433595       29.7831777139       22.9508803535  W2        27616           0.0000000000
     78715     26239  TIP3      OH2             9.6611133595       28.6948177139       21.8491503535  W2        27618           0.0000000000
     78716     26239  TIP3      H1              9.4806133595       28.5399377139       20.9219803535  W2        27618           0.0000000000
     78717     26239  TIP3      H2             10.6111633595       28.8026877139       21.8939403535  W2        27618           0.0000000000
     78718     26240  TIP3      OH2            19.0509433595       31.0492377139       21.2949603535  W2        27620           0.0000000000
     78719     26240  TIP3      H1             18.7774233595       30.6247877139       20.4817903535  W2        27620           0.0000000000
     78720     26240  TIP3      H2             19.0903533595       31.9806877139       21.0780003535  W2        27620           0.0000000000
     78721     26241  TIP3      OH2             8.6309433595       24.0690077139       34.5178403535  W2        27622           0.0000000000
     78722     26241  TIP3      H1              9.1666933595       24.5206777139       33.8657703535  W2        27622           0.0000000000
     78723     26241  TIP3      H2              7.7789033595       23.9609877139       34.0952503535  W2        27622           0.0000000000
     78724     26242  TIP3      OH2            10.2127833595       29.5086277139       34.7573603535  W2        27623           0.0000000000
     78725     26242  TIP3      H1             10.9632633595       29.3523777139       34.1841403535  W2        27623           0.0000000000
     78726     26242  TIP3      H2              9.8736133595       30.3602877139       34.4819103535  W2        27623           0.0000000000
     78727     26243  TIP3      OH2             9.4364933595       21.5255777139       34.9492003535  W2        27627           0.0000000000
     78728     26243  TIP3      H1              9.3384533595       22.4718977139       34.8438203535  W2        27627           0.0000000000
     78729     26243  TIP3      H2              8.6941133595       21.1529577139       34.4735503535  W2        27627           0.0000000000
     78730     26244  TIP3      OH2             9.5582833595       39.3851877139       22.8505103535  W2        27634           0.0000000000
     78731     26244  TIP3      H1             10.4913533595       39.5430577139       22.9943503535  W2        27634           0.0000000000
     78732     26244  TIP3      H2              9.2941633595       40.0604877139       22.2256603535  W2        27634           0.0000000000
     78733     26245  TIP3      OH2             3.1267733595       34.0215677139       22.3333203535  W2        27635           0.0000000000
     78734     26245  TIP3      H1              4.0406933595       34.1004577139       22.6067103535  W2        27635           0.0000000000
     78735     26245  TIP3      H2              3.1340833595       33.3345277139       21.6668803535  W2        27635           0.0000000000
     78736     26246  TIP3      OH2             1.7758333595       39.4144177139       27.4107103535  W2        27636           0.0000000000
     78737     26246  TIP3      H1              1.1285433595       38.9525877139       26.8778303535  W2        27636           0.0000000000
     78738     26246  TIP3      H2              2.1302933595       38.7427477139       27.9933303535  W2        27636           0.0000000000
     78739     26247  TIP3      OH2             2.6457533595       37.4951177139       29.2153303535  W2        27637           0.0000000000
     78740     26247  TIP3      H1              2.3114333595       36.6148477139       29.3873503535  W2        27637           0.0000000000
     78741     26247  TIP3      H2              2.8679933595       37.8406177139       30.0798903535  W2        27637           0.0000000000
     78742     26248  TIP3      OH2            20.1942333595       38.3047577139       32.1958103535  W2        27638           0.0000000000
     78743     26248  TIP3      H1             20.1729033595       38.4895977139       33.1347503535  W2        27638           0.0000000000
     78744     26248  TIP3      H2             20.8848533595       38.8731577139       31.8549503535  W2        27638           0.0000000000
     78745     26249  TIP3      OH2            19.7575233595       37.8718677139       35.1177203535  W2        27639           0.0000000000
     78746     26249  TIP3      H1             19.2703933595       37.1362777139       34.7464603535  W2        27639           0.0000000000
     78747     26249  TIP3      H2             20.3067933595       37.4782577139       35.7956603535  W2        27639           0.0000000000
     78748     26250  TIP3      OH2            19.5092233595       31.9180477139       25.2700003535  W2        27641           0.0000000000
     78749     26250  TIP3      H1             20.3593633595       32.3391377139       25.3971603535  W2        27641           0.0000000000
     78750     26250  TIP3      H2             19.5147333595       31.1780577139       25.8771403535  W2        27641           0.0000000000
     78751     26251  TIP3      OH2            19.9037833595       29.9717877139       27.0935703535  W2        27642           0.0000000000
     78752     26251  TIP3      H1             19.1772433595       29.4920477139       27.4913303535  W2        27642           0.0000000000
     78753     26251  TIP3      H2             20.4851133595       30.1772577139       27.8257303535  W2        27642           0.0000000000
     78754     26252  TIP3      OH2            19.6629033595       32.7565377139       32.0413303535  W2        27643           0.0000000000
     78755     26252  TIP3      H1             20.4963233595       32.3785377139       31.7606903535  W2        27643           0.0000000000
     78756     26252  TIP3      H2             19.7749333595       33.6996577139       31.9222403535  W2        27643           0.0000000000
     78757     26253  TIP3      OH2            18.1491333595       35.6342877139       34.3481703535  W2        27644           0.0000000000
     78758     26253  TIP3      H1             17.5016633595       35.9594377139       34.9736903535  W2        27644           0.0000000000
     78759     26253  TIP3      H2             17.6315333595       35.1940577139       33.6740003535  W2        27644           0.0000000000
     78760     26254  TIP3      OH2            20.1720933595       29.8726377139       23.4847003535  W2        27645           0.0000000000
     78761     26254  TIP3      H1             19.6502033595       30.2290477139       22.7657903535  W2        27645           0.0000000000
     78762     26254  TIP3      H2             20.1390133595       30.5474177139       24.1627903535  W2        27645           0.0000000000
     78763     26255  TIP3      OH2            18.5209933595       27.1121977139       22.0354103535  W2        27646           0.0000000000
     78764     26255  TIP3      H1             18.6174333595       27.7788977139       21.3553803535  W2        27646           0.0000000000
     78765     26255  TIP3      H2             18.3809533595       26.2968277139       21.5539603535  W2        27646           0.0000000000
     78766     26256  TIP3      OH2            17.6904633595       28.4924377139       27.6564403535  W2        27647           0.0000000000
     78767     26256  TIP3      H1             17.5403433595       27.5472977139       27.6362203535  W2        27647           0.0000000000
     78768     26256  TIP3      H2             17.3369133595       28.7735777139       28.5003503535  W2        27647           0.0000000000
     78769     26257  TIP3      OH2             2.7257033595       30.5706577139       31.6668203535  W2        27648           0.0000000000
     78770     26257  TIP3      H1              2.9099933595       30.4888277139       30.7311103535  W2        27648           0.0000000000
     78771     26257  TIP3      H2              3.5749933595       30.4463577139       32.0904603535  W2        27648           0.0000000000
     78772     26258  TIP3      OH2            17.7683733595       24.5201777139       21.1529603535  W2        27651           0.0000000000
     78773     26258  TIP3      H1             18.3789533595       24.1488577139       21.7897803535  W2        27651           0.0000000000
     78774     26258  TIP3      H2             16.9315233595       24.0988677139       21.3489603535  W2        27651           0.0000000000
     78775     26259  TIP3      OH2            17.4009433595       26.0750177139       26.1189503535  W2        27652           0.0000000000
     78776     26259  TIP3      H1             17.6806533595       25.1680577139       26.2431203535  W2        27652           0.0000000000
     78777     26259  TIP3      H2             18.1601133595       26.5091677139       25.7298703535  W2        27652           0.0000000000
     78778     26260  TIP3      OH2            18.0127733595       26.6567577139       31.5548403535  W2        27653           0.0000000000
     78779     26260  TIP3      H1             18.9455733595       26.8687477139       31.5204403535  W2        27653           0.0000000000
     78780     26260  TIP3      H2             17.7775233595       26.7579677139       32.4771403535  W2        27653           0.0000000000
     78781     26261  TIP3      OH2            18.0419633595       27.3932877139       34.3307803535  W2        27654           0.0000000000
     78782     26261  TIP3      H1             17.1990933595       27.6613277139       34.6967603535  W2        27654           0.0000000000
     78783     26261  TIP3      H2             18.4843933595       28.2154777139       34.1198903535  W2        27654           0.0000000000
     78784     26262  TIP3      OH2            18.0144233595       23.3379477139       26.1671503535  W2        27657           0.0000000000
     78785     26262  TIP3      H1             18.1969233595       22.8890977139       26.9926503535  W2        27657           0.0000000000
     78786     26262  TIP3      H2             17.4147133595       22.7533877139       25.7036103535  W2        27657           0.0000000000
     78787     26263  TIP3      OH2             3.5444333595       24.1533177139       30.6989903535  W2        27658           0.0000000000
     78788     26263  TIP3      H1              3.9895933595       23.3615677139       31.0009603535  W2        27658           0.0000000000
     78789     26263  TIP3      H2              4.0107333595       24.8698377139       31.1295503535  W2        27658           0.0000000000
     78790     26264  TIP3      OH2             1.8484633595       27.1526177139       31.7680103535  W2        27659           0.0000000000
     78791     26264  TIP3      H1              2.3404433595       26.9316677139       30.9772103535  W2        27659           0.0000000000
     78792     26264  TIP3      H2              2.2105533595       27.9929577139       32.0489603535  W2        27659           0.0000000000
     78793     26265  TIP3      OH2            19.8810433595       23.4057577139       22.6951803535  W2        27661           0.0000000000
     78794     26265  TIP3      H1             20.2933033595       22.6843277139       22.2199803535  W2        27661           0.0000000000
     78795     26265  TIP3      H2             20.5626933595       24.0752177139       22.7536103535  W2        27661           0.0000000000
     78796     26266  TIP3      OH2             2.1621133595       23.4105277139       25.8222503535  W2        27662           0.0000000000
     78797     26266  TIP3      H1              1.2369533595       23.6191877139       25.6928003535  W2        27662           0.0000000000
     78798     26266  TIP3      H2              2.6161033595       23.8946077139       25.1324803535  W2        27662           0.0000000000
     78799     26267  TIP3      OH2            16.9328333595       38.3946977139       27.7679903535  W2        27663           0.0000000000
     78800     26267  TIP3      H1             17.5851233595       38.0469077139       27.1599003535  W2        27663           0.0000000000
     78801     26267  TIP3      H2             17.4432133595       38.8830177139       28.4139603535  W2        27663           0.0000000000
     78802     26268  TIP3      OH2             2.1256533595       22.1484277139       34.1665003535  W2        27664           0.0000000000
     78803     26268  TIP3      H1              1.4607033595       21.9024577139       34.8095903535  W2        27664           0.0000000000
     78804     26268  TIP3      H2              1.6827833595       22.7704677139       33.5893003535  W2        27664           0.0000000000
     78805     26269  TIP3      OH2             7.2718733595       36.2979577139       34.5694803535  W2        27666           0.0000000000
     78806     26269  TIP3      H1              6.8469833595       37.1078077139       34.2869403535  W2        27666           0.0000000000
     78807     26269  TIP3      H2              8.1761533595       36.3833677139       34.2674603535  W2        27666           0.0000000000
     78808     26270  TIP3      OH2             4.6735433595       39.5543477139       34.6170103535  W2        27670           0.0000000000
     78809     26270  TIP3      H1              3.9531833595       39.9944477139       34.1657803535  W2        27670           0.0000000000
     78810     26270  TIP3      H2              4.3079433595       39.3038177139       35.4654103535  W2        27670           0.0000000000
     78811     26271  TIP3      OH2             7.1408033595       39.1547377139       33.6467303535  W2        27671           0.0000000000
     78812     26271  TIP3      H1              6.2760233595       39.2265877139       34.0507403535  W2        27671           0.0000000000
     78813     26271  TIP3      H2              7.0857033595       39.7014677139       32.8629803535  W2        27671           0.0000000000
     78814     26272  TIP3      OH2            11.8513633595       39.0426277139       32.8223303535  W2        27672           0.0000000000
     78815     26272  TIP3      H1             11.3947633595       39.5715977139       32.1681703535  W2        27672           0.0000000000
     78816     26272  TIP3      H2             12.0141633595       39.6457677139       33.5475603535  W2        27672           0.0000000000
     78817     26273  TIP3      OH2            14.1789933595       37.9205877139       33.7673603535  W2        27673           0.0000000000
     78818     26273  TIP3      H1             13.2743633595       38.0856077139       33.5015703535  W2        27673           0.0000000000
     78819     26273  TIP3      H2             14.6078533595       38.7738077139       33.7017003535  W2        27673           0.0000000000
     78820     26274  TIP3      OH2            16.7831833595       39.4904977139       34.0621403535  W2        27674           0.0000000000
     78821     26274  TIP3      H1             16.6013833595       40.4063877139       33.8516303535  W2        27674           0.0000000000
     78822     26274  TIP3      H2             16.9599633595       39.0802077139       33.2156003535  W2        27674           0.0000000000
     78823     26275  TIP3      OH2             4.0883533595       38.1775977139       31.5271903535  W2        27675           0.0000000000
     78824     26275  TIP3      H1              4.0699533595       37.7521077139       32.3844203535  W2        27675           0.0000000000
     78825     26275  TIP3      H2              4.8931433595       37.8590977139       31.1184103535  W2        27675           0.0000000000
     78826     26276  TIP3      OH2             6.2296633595       36.8874677139       30.1821803535  W2        27676           0.0000000000
     78827     26276  TIP3      H1              6.0107333595       35.9712077139       30.3517803535  W2        27676           0.0000000000
     78828     26276  TIP3      H2              7.0538833595       37.0275077139       30.6483203535  W2        27676           0.0000000000
     78829     26277  TIP3      OH2             8.7669133595       37.3573977139       31.0309803535  W2        27677           0.0000000000
     78830     26277  TIP3      H1              8.9794833595       36.4692977139       30.7440703535  W2        27677           0.0000000000
     78831     26277  TIP3      H2              8.8314233595       37.3231677139       31.9853803535  W2        27677           0.0000000000
     78832     26278  TIP3      OH2            12.2752833595       23.0214577139       30.1753103535  W2        27678           0.0000000000
     78833     26278  TIP3      H1             11.6009633595       22.3920177139       30.4308903535  W2        27678           0.0000000000
     78834     26278  TIP3      H2             12.8392033595       22.5373477139       29.5721003535  W2        27678           0.0000000000
     78835     26279  TIP3      OH2            17.4180033595       21.1288577139       30.2880203535  W2        27679           0.0000000000
     78836     26279  TIP3      H1             18.0217633595       21.6763977139       29.7861203535  W2        27679           0.0000000000
     78837     26279  TIP3      H2             16.5482033595       21.4478977139       30.0474303535  W2        27679           0.0000000000
     78838     26280  TIP3      OH2            19.1450433595       22.2677277139       28.6211103535  W2        27680           0.0000000000
     78839     26280  TIP3      H1             19.7567933595       21.7532977139       28.0944703535  W2        27680           0.0000000000
     78840     26280  TIP3      H2             19.5273833595       23.1449377139       28.6445503535  W2        27680           0.0000000000
     78841     26281  TIP3      OH2             4.6020333595       21.6554877139       27.9973003535  W2        27681           0.0000000000
     78842     26281  TIP3      H1              3.8250133595       21.4209777139       27.4898903535  W2        27681           0.0000000000
     78843     26281  TIP3      H2              5.1323933595       20.8586977139       28.0061003535  W2        27681           0.0000000000
     78844     26282  TIP3      OH2             3.4383733595       21.4532977139       23.8009103535  W2        27682           0.0000000000
     78845     26282  TIP3      H1              3.8774433595       22.0643477139       23.2092603535  W2        27682           0.0000000000
     78846     26282  TIP3      H2              2.8046133595       21.9917077139       24.2749103535  W2        27682           0.0000000000
     78847     26283  TIP3      OH2             9.1812933595       21.5821977139       27.8106103535  W2        27683           0.0000000000
     78848     26283  TIP3      H1             10.0556333595       21.9706277139       27.7810403535  W2        27683           0.0000000000
     78849     26283  TIP3      H2              9.0453733595       21.3669777139       28.7333303535  W2        27683           0.0000000000
     78850     26284  TIP3      OH2            14.7381333595       21.6121777139       29.4597803535  W2        27684           0.0000000000
     78851     26284  TIP3      H1             14.8142933595       21.7073377139       28.5103803535  W2        27684           0.0000000000
     78852     26284  TIP3      H2             14.4630533595       20.7044677139       29.5886903535  W2        27684           0.0000000000
     78853     26285  TIP3      OH2            16.0913933595       21.6379577139       25.1522803535  W2        27685           0.0000000000
     78854     26285  TIP3      H1             15.3885033595       22.2528777139       24.9424203535  W2        27685           0.0000000000
     78855     26285  TIP3      H2             15.6465333595       20.8006277139       25.2833703535  W2        27685           0.0000000000
     78856     26286  TIP3      OH2             3.3393233595       37.4015177139       24.6984203535  W2        27686           0.0000000000
     78857     26286  TIP3      H1              2.6543133595       37.3634077139       24.0309303535  W2        27686           0.0000000000
     78858     26286  TIP3      H2              3.3430433595       38.3142777139       24.9866303535  W2        27686           0.0000000000
     78859     26287  TIP3      OH2             5.2992833595       23.3694477139       22.2433203535  W2        27687           0.0000000000
     78860     26287  TIP3      H1              5.7906233595       22.7396877139       21.7158703535  W2        27687           0.0000000000
     78861     26287  TIP3      H2              5.9229133595       23.6653877139       22.9064403535  W2        27687           0.0000000000
     78862     26288  TIP3      OH2            10.3252933595       23.6625977139       24.7003703535  W2        27688           0.0000000000
     78863     26288  TIP3      H1             10.5034233595       23.0159177139       25.3832303535  W2        27688           0.0000000000
     78864     26288  TIP3      H2             10.2719133595       24.4963677139       25.1674803535  W2        27688           0.0000000000
     78865     26289  TIP3      OH2            12.2036733595       38.6110077139       23.0960403535  W2        27689           0.0000000000
     78866     26289  TIP3      H1             13.0696933595       38.9777477139       22.9178603535  W2        27689           0.0000000000
     78867     26289  TIP3      H2             11.9569533595       38.1718077139       22.2821203535  W2        27689           0.0000000000
     78868     26290  TIP3      OH2            18.9126333595       38.1740377139       25.7751503535  W2        27690           0.0000000000
     78869     26290  TIP3      H1             18.7183433595       37.4262477139       25.2101103535  W2        27690           0.0000000000
     78870     26290  TIP3      H2             18.8736433595       38.9320477139       25.1919403535  W2        27690           0.0000000000
     78871     26291  TIP3      OH2             5.1574433595       38.3215977139       21.7236303535  W2        27693           0.0000000000
     78872     26291  TIP3      H1              4.8899033595       38.6078877139       22.5969403535  W2        27693           0.0000000000
     78873     26291  TIP3      H2              5.9287033595       37.7755177139       21.8758803535  W2        27693           0.0000000000
     78874     26292  TIP3      OH2            32.5362933595       30.8117177139       27.9560503535  W2        27696           0.0000000000
     78875     26292  TIP3      H1             32.6254033595       31.7555377139       27.8237603535  W2        27696           0.0000000000
     78876     26292  TIP3      H2             31.8980533595       30.5363577139       27.2979903535  W2        27696           0.0000000000
     78877     26293  TIP3      OH2            31.4694233595       30.0667877139       31.3748703535  W2        27697           0.0000000000
     78878     26293  TIP3      H1             31.4311733595       29.4204177139       32.0798303535  W2        27697           0.0000000000
     78879     26293  TIP3      H2             31.1470733595       29.6002277139       30.6037403535  W2        27697           0.0000000000
     78880     26294  TIP3      OH2            23.8379233595       29.6809977139       32.9678603535  W2        27698           0.0000000000
     78881     26294  TIP3      H1             23.8791333595       29.0553277139       33.6911003535  W2        27698           0.0000000000
     78882     26294  TIP3      H2             24.5406933595       30.3048577139       33.1499003535  W2        27698           0.0000000000
     78883     26295  TIP3      OH2            35.1754433595       33.0058277139       29.6763803535  W2        27699           0.0000000000
     78884     26295  TIP3      H1             34.7347133595       32.2854277139       30.1269403535  W2        27699           0.0000000000
     78885     26295  TIP3      H2             35.1624133595       33.7265477139       30.3061503535  W2        27699           0.0000000000
     78886     26296  TIP3      OH2            24.7612333595       34.1308877139       31.5027703535  W2        27700           0.0000000000
     78887     26296  TIP3      H1             24.3917533595       33.3289377139       31.1332003535  W2        27700           0.0000000000
     78888     26296  TIP3      H2             25.7023433595       33.9623777139       31.5491103535  W2        27700           0.0000000000
     78889     26297  TIP3      OH2            21.3712833595       27.7911477139       26.8956503535  W2        27701           0.0000000000
     78890     26297  TIP3      H1             20.9236233595       28.6370177139       26.8773003535  W2        27701           0.0000000000
     78891     26297  TIP3      H2             20.8104033595       27.2115677139       26.3801603535  W2        27701           0.0000000000
     78892     26298  TIP3      OH2            22.0818933595       29.9531077139       29.0214503535  W2        27702           0.0000000000
     78893     26298  TIP3      H1             22.2952433595       29.1832677139       29.5487503535  W2        27702           0.0000000000
     78894     26298  TIP3      H2             22.8196533595       30.0427777139       28.4182103535  W2        27702           0.0000000000
     78895     26299  TIP3      OH2            32.2869933595       38.1099977139       29.8884203535  W2        27703           0.0000000000
     78896     26299  TIP3      H1             32.9066333595       37.4334677139       29.6153403535  W2        27703           0.0000000000
     78897     26299  TIP3      H2             32.0787333595       37.8920777139       30.7969103535  W2        27703           0.0000000000
     78898     26300  TIP3      OH2            29.8588633595       32.4989277139       31.7809703535  W2        27704           0.0000000000
     78899     26300  TIP3      H1             30.1626533595       31.8130677139       31.1863803535  W2        27704           0.0000000000
     78900     26300  TIP3      H2             30.5802633595       32.6177977139       32.3987703535  W2        27704           0.0000000000
     78901     26301  TIP3      OH2            38.5218433595       24.1004577139       32.6415903535  W2        27705           0.0000000000
     78902     26301  TIP3      H1             38.5710633595       24.7105777139       33.3775003535  W2        27705           0.0000000000
     78903     26301  TIP3      H2             38.9473533595       24.5615477139       31.9187003535  W2        27705           0.0000000000
     78904     26302  TIP3      OH2            32.9995633595       26.8931677139       32.1084503535  W2        27706           0.0000000000
     78905     26302  TIP3      H1             33.1421533595       25.9468677139       32.1286103535  W2        27706           0.0000000000
     78906     26302  TIP3      H2             32.8934633595       27.1001477139       31.1799403535  W2        27706           0.0000000000
     78907     26303  TIP3      OH2            26.1543933595       24.9948077139       29.3809303535  W2        27707           0.0000000000
     78908     26303  TIP3      H1             26.1975033595       25.8546577139       28.9625603535  W2        27707           0.0000000000
     78909     26303  TIP3      H2             25.6968033595       24.4422777139       28.7472503535  W2        27707           0.0000000000
     78910     26304  TIP3      OH2            33.8766633595       25.1253677139       27.7817603535  W2        27708           0.0000000000
     78911     26304  TIP3      H1             34.5230933595       24.7966877139       28.4065203535  W2        27708           0.0000000000
     78912     26304  TIP3      H2             34.3866033595       25.6432677139       27.1589003535  W2        27708           0.0000000000
     78913     26305  TIP3      OH2            22.7745433595       27.3913877139       30.1430703535  W2        27709           0.0000000000
     78914     26305  TIP3      H1             23.4282033595       26.8415577139       30.5750803535  W2        27709           0.0000000000
     78915     26305  TIP3      H2             22.7984733595       27.1172877139       29.2262703535  W2        27709           0.0000000000
     78916     26306  TIP3      OH2            27.9309933595       28.9415177139       29.3582203535  W2        27710           0.0000000000
     78917     26306  TIP3      H1             28.5470933595       28.4150577139       29.8676203535  W2        27710           0.0000000000
     78918     26306  TIP3      H2             27.3448733595       28.3013877139       28.9545803535  W2        27710           0.0000000000
     78919     26307  TIP3      OH2            38.9133033595       25.5783777139       34.8775703535  W2        27711           0.0000000000
     78920     26307  TIP3      H1             38.2247633595       26.2364477139       34.7822303535  W2        27711           0.0000000000
     78921     26307  TIP3      H2             38.9287633595       25.3811677139       35.8141103535  W2        27711           0.0000000000
     78922     26308  TIP3      OH2            24.9645833595       23.9126477139       33.4550103535  W2        27712           0.0000000000
     78923     26308  TIP3      H1             24.7457533595       24.4427077139       32.6886103535  W2        27712           0.0000000000
     78924     26308  TIP3      H2             24.2966733595       24.1391977139       34.1021503535  W2        27712           0.0000000000
     78925     26309  TIP3      OH2            32.3335633595       33.4127577139       26.9989203535  W2        27713           0.0000000000
     78926     26309  TIP3      H1             32.0380733595       33.0899877139       26.1476103535  W2        27713           0.0000000000
     78927     26309  TIP3      H2             32.0093433595       34.3124277139       27.0401803535  W2        27713           0.0000000000
     78928     26310  TIP3      OH2            27.5337233595       31.5882177139       33.7423803535  W2        27714           0.0000000000
     78929     26310  TIP3      H1             26.7936333595       32.1863677139       33.8459003535  W2        27714           0.0000000000
     78930     26310  TIP3      H2             28.2476733595       32.1421777139       33.4267403535  W2        27714           0.0000000000
     78931     26311  TIP3      OH2            35.6405033595       24.4162977139       29.7623503535  W2        27715           0.0000000000
     78932     26311  TIP3      H1             35.4253033595       23.6506377139       30.2949503535  W2        27715           0.0000000000
     78933     26311  TIP3      H2             36.2962433595       24.8887577139       30.2752003535  W2        27715           0.0000000000
     78934     26312  TIP3      OH2            24.5583133595       25.8048277139       31.4072303535  W2        27716           0.0000000000
     78935     26312  TIP3      H1             25.1719433595       26.4375877139       31.7804703535  W2        27716           0.0000000000
     78936     26312  TIP3      H2             25.0703833595       25.3323277139       30.7509203535  W2        27716           0.0000000000
     78937     26313  TIP3      OH2            25.9411533595       33.5525177139       34.5295303535  W2        27717           0.0000000000
     78938     26313  TIP3      H1             25.9359133595       34.4318677139       34.1514603535  W2        27717           0.0000000000
     78939     26313  TIP3      H2             25.0875633595       33.4689277139       34.9545203535  W2        27717           0.0000000000
     78940     26314  TIP3      OH2            22.0622433595       33.2233077139       25.3114603535  W2        27718           0.0000000000
     78941     26314  TIP3      H1             21.7903333595       33.4524077139       24.4227503535  W2        27718           0.0000000000
     78942     26314  TIP3      H2             22.1078133595       34.0611877139       25.7719903535  W2        27718           0.0000000000
     78943     26315  TIP3      OH2            35.6872133595       34.8448977139       32.0243103535  W2        27719           0.0000000000
     78944     26315  TIP3      H1             34.7455833595       34.9032877139       32.1860003535  W2        27719           0.0000000000
     78945     26315  TIP3      H2             35.9638233595       35.7509477139       31.8872803535  W2        27719           0.0000000000
     78946     26316  TIP3      OH2            35.9879133595       23.1314277139       33.4417003535  W2        27720           0.0000000000
     78947     26316  TIP3      H1             35.2518333595       23.7421377139       33.4038303535  W2        27720           0.0000000000
     78948     26316  TIP3      H2             36.6713133595       23.5463277139       32.9153403535  W2        27720           0.0000000000
     78949     26317  TIP3      OH2            28.9910533595       21.2181577139       30.9075003535  W2        27721           0.0000000000
     78950     26317  TIP3      H1             28.8734733595       20.2697577139       30.8533303535  W2        27721           0.0000000000
     78951     26317  TIP3      H2             28.1360633595       21.5507677139       31.1806103535  W2        27721           0.0000000000
     78952     26318  TIP3      OH2            33.9393333595       36.6262477139       28.6494703535  W2        27722           0.0000000000
     78953     26318  TIP3      H1             34.3645633595       35.9190377139       28.1644303535  W2        27722           0.0000000000
     78954     26318  TIP3      H2             34.2563333595       37.4275177139       28.2326903535  W2        27722           0.0000000000
     78955     26319  TIP3      OH2            35.0989833595       34.5270977139       27.1581303535  W2        27723           0.0000000000
     78956     26319  TIP3      H1             34.8414633595       33.8371077139       26.5467203535  W2        27723           0.0000000000
     78957     26319  TIP3      H2             35.1700633595       34.0842177139       28.0037203535  W2        27723           0.0000000000
     78958     26320  TIP3      OH2            31.2575433595       30.0557177139       25.4080803535  W2        27725           0.0000000000
     78959     26320  TIP3      H1             30.5460933595       30.5906877139       25.0561303535  W2        27725           0.0000000000
     78960     26320  TIP3      H2             31.9485033595       30.1109277139       24.7479703535  W2        27725           0.0000000000
     78961     26321  TIP3      OH2            31.3114633595       28.5131477139       22.4465803535  W2        27726           0.0000000000
     78962     26321  TIP3      H1             32.0124533595       28.5358377139       23.0979803535  W2        27726           0.0000000000
     78963     26321  TIP3      H2             31.6137533595       27.8851177139       21.7905103535  W2        27726           0.0000000000
     78964     26322  TIP3      OH2            38.6269333595       29.4335677139       33.7015203535  W2        27727           0.0000000000
     78965     26322  TIP3      H1             37.9743433595       30.1281277139       33.7906103535  W2        27727           0.0000000000
     78966     26322  TIP3      H2             39.0919633595       29.6436577139       32.8916803535  W2        27727           0.0000000000
     78967     26323  TIP3      OH2            34.6633133595       30.2650477139       26.3596703535  W2        27728           0.0000000000
     78968     26323  TIP3      H1             33.9314133595       30.4934177139       26.9327303535  W2        27728           0.0000000000
     78969     26323  TIP3      H2             35.1105333595       29.5513177139       26.8144203535  W2        27728           0.0000000000
     78970     26324  TIP3      OH2            34.5606633595       28.4393077139       35.4273703535  W2        27729           0.0000000000
     78971     26324  TIP3      H1             34.6405733595       29.2027477139       35.9992203535  W2        27729           0.0000000000
     78972     26324  TIP3      H2             33.9594333595       28.7185477139       34.7368803535  W2        27729           0.0000000000
     78973     26325  TIP3      OH2            26.3086833595       30.8956677139       28.2421703535  W2        27730           0.0000000000
     78974     26325  TIP3      H1             25.9782033595       30.5250077139       27.4238703535  W2        27730           0.0000000000
     78975     26325  TIP3      H2             26.8970933595       30.2250677139       28.5890003535  W2        27730           0.0000000000
     78976     26326  TIP3      OH2            27.6754333595       34.3237277139       30.9233903535  W2        27731           0.0000000000
     78977     26326  TIP3      H1             27.5805633595       33.7450377139       30.1668503535  W2        27731           0.0000000000
     78978     26326  TIP3      H2             28.4047933595       33.9522977139       31.4196703535  W2        27731           0.0000000000
     78979     26327  TIP3      OH2            26.6752333595       29.6642277139       31.8756703535  W2        27732           0.0000000000
     78980     26327  TIP3      H1             27.2404833595       29.7856477139       31.1127903535  W2        27732           0.0000000000
     78981     26327  TIP3      H2             26.9941233595       30.3017277139       32.5145203535  W2        27732           0.0000000000
     78982     26328  TIP3      OH2            32.9844533595       35.1674177139       32.6097203535  W2        27733           0.0000000000
     78983     26328  TIP3      H1             32.7441133595       35.8297277139       33.2576403535  W2        27733           0.0000000000
     78984     26328  TIP3      H2             32.7862733595       34.3329377139       33.0346803535  W2        27733           0.0000000000
     78985     26329  TIP3      OH2            33.5342633595       29.4273377139       24.0447903535  W2        27735           0.0000000000
     78986     26329  TIP3      H1             34.1138133595       29.5773677139       24.7916803535  W2        27735           0.0000000000
     78987     26329  TIP3      H2             33.9482633595       29.8980777139       23.3214303535  W2        27735           0.0000000000
     78988     26330  TIP3      OH2            31.2607533595       36.1641877139       27.4801003535  W2        27737           0.0000000000
     78989     26330  TIP3      H1             31.7345133595       36.4598177139       28.2575203535  W2        27737           0.0000000000
     78990     26330  TIP3      H2             30.6976833595       36.9023477139       27.2470603535  W2        27737           0.0000000000
     78991     26331  TIP3      OH2            37.2331033595       21.1773777139       23.8577603535  W2        27739           0.0000000000
     78992     26331  TIP3      H1             36.3331733595       21.3162777139       24.1528203535  W2        27739           0.0000000000
     78993     26331  TIP3      H2             37.4849433595       22.0088377139       23.4559303535  W2        27739           0.0000000000
     78994     26332  TIP3      OH2            25.2989533595       29.9650977139       25.8314503535  W2        27740           0.0000000000
     78995     26332  TIP3      H1             25.0070833595       30.7332677139       25.3405803535  W2        27740           0.0000000000
     78996     26332  TIP3      H2             24.6244733595       29.3057177139       25.6685903535  W2        27740           0.0000000000
     78997     26333  TIP3      OH2            38.4222433595       35.5436177139       22.2341503535  W2        27741           0.0000000000
     78998     26333  TIP3      H1             38.4955933595       36.4826377139       22.4046803535  W2        27741           0.0000000000
     78999     26333  TIP3      H2             39.3277533595       35.2384777139       22.1778803535  W2        27741           0.0000000000
     79000     26334  TIP3      OH2            21.3919633595       32.3280177139       34.6464303535  W2        27742           0.0000000000
     79001     26334  TIP3      H1             20.8908033595       32.2999577139       33.8314003535  W2        27742           0.0000000000
     79002     26334  TIP3      H2             21.3973333595       31.4223377139       34.9561603535  W2        27742           0.0000000000
     79003     26335  TIP3      OH2            21.1422333595       35.1083977139       31.5304503535  W2        27743           0.0000000000
     79004     26335  TIP3      H1             22.0882933595       34.9640977139       31.5114003535  W2        27743           0.0000000000
     79005     26335  TIP3      H2             21.0298633595       35.8926777139       32.0675703535  W2        27743           0.0000000000
     79006     26336  TIP3      OH2            30.7330633595       39.1206577139       25.8950203535  W2        27746           0.0000000000
     79007     26336  TIP3      H1             30.6576633595       38.9993777139       24.9485403535  W2        27746           0.0000000000
     79008     26336  TIP3      H2             30.7659333595       40.0699277139       26.0134803535  W2        27746           0.0000000000
     79009     26337  TIP3      OH2            24.3864433595       37.9093577139       27.6759203535  W2        27747           0.0000000000
     79010     26337  TIP3      H1             24.5384833595       37.5613977139       28.5545703535  W2        27747           0.0000000000
     79011     26337  TIP3      H2             23.5354833595       37.5530877139       27.4206403535  W2        27747           0.0000000000
     79012     26338  TIP3      OH2            33.8346633595       38.2746777139       22.8972603535  W2        27748           0.0000000000
     79013     26338  TIP3      H1             34.2095033595       37.5302877139       22.4265203535  W2        27748           0.0000000000
     79014     26338  TIP3      H2             33.8390333595       38.0047377139       23.8155903535  W2        27748           0.0000000000
     79015     26339  TIP3      OH2            33.5034733595       38.2003877139       25.6464803535  W2        27749           0.0000000000
     79016     26339  TIP3      H1             32.5684533595       38.3005777139       25.8251803535  W2        27749           0.0000000000
     79017     26339  TIP3      H2             33.7836633595       37.4909877139       26.2248003535  W2        27749           0.0000000000
     79018     26340  TIP3      OH2            26.2598133595       22.1216077139       31.6851303535  W2        27752           0.0000000000
     79019     26340  TIP3      H1             25.3981833595       22.0344277139       31.2774203535  W2        27752           0.0000000000
     79020     26340  TIP3      H2             26.2373833595       22.9776177139       32.1128903535  W2        27752           0.0000000000
     79021     26341  TIP3      OH2            30.9225933595       21.8436477139       35.0598303535  W2        27753           0.0000000000
     79022     26341  TIP3      H1             31.3429033595       21.4283577139       35.8128903535  W2        27753           0.0000000000
     79023     26341  TIP3      H2             29.9895533595       21.6649777139       35.1770303535  W2        27753           0.0000000000
     79024     26342  TIP3      OH2            35.0115733595       30.4601677139       21.6745803535  W2        27755           0.0000000000
     79025     26342  TIP3      H1             35.0536533595       30.2375577139       20.7445803535  W2        27755           0.0000000000
     79026     26342  TIP3      H2             35.8607833595       30.8588777139       21.8645703535  W2        27755           0.0000000000
     79027     26343  TIP3      OH2            30.5843233595       24.3359877139       22.3449103535  W2        27756           0.0000000000
     79028     26343  TIP3      H1             30.3308033595       24.3551477139       23.2677203535  W2        27756           0.0000000000
     79029     26343  TIP3      H2             30.3275333595       23.4645277139       22.0435303535  W2        27756           0.0000000000
     79030     26344  TIP3      OH2            26.3508233595       27.0870577139       32.7801503535  W2        27757           0.0000000000
     79031     26344  TIP3      H1             25.7090333595       27.0467877139       33.4891603535  W2        27757           0.0000000000
     79032     26344  TIP3      H2             26.3880233595       28.0135277139       32.5424503535  W2        27757           0.0000000000
     79033     26345  TIP3      OH2            26.3477333595       27.3080677139       27.6921503535  W2        27758           0.0000000000
     79034     26345  TIP3      H1             25.4550233595       26.9676777139       27.6335303535  W2        27758           0.0000000000
     79035     26345  TIP3      H2             26.7983933595       26.9311577139       26.9364703535  W2        27758           0.0000000000
     79036     26346  TIP3      OH2            31.8832833595       27.7240977139       26.5092303535  W2        27759           0.0000000000
     79037     26346  TIP3      H1             31.4743133595       28.5389577139       26.2177103535  W2        27759           0.0000000000
     79038     26346  TIP3      H2             32.6039033595       27.5841077139       25.8949403535  W2        27759           0.0000000000
     79039     26347  TIP3      OH2            32.8880533595       27.1701377139       29.3232003535  W2        27761           0.0000000000
     79040     26347  TIP3      H1             32.6925033595       27.7758177139       28.6082603535  W2        27761           0.0000000000
     79041     26347  TIP3      H2             33.0693133595       26.3366577139       28.8888303535  W2        27761           0.0000000000
     79042     26348  TIP3      OH2            24.1008733595       27.4074077139       34.6473503535  W2        27762           0.0000000000
     79043     26348  TIP3      H1             24.0628133595       27.8075677139       35.5160603535  W2        27762           0.0000000000
     79044     26348  TIP3      H2             23.6099833595       26.5906477139       34.7376403535  W2        27762           0.0000000000
     79045     26349  TIP3      OH2            27.4666133595       24.7816377139       21.4459503535  W2        27763           0.0000000000
     79046     26349  TIP3      H1             27.0356833595       24.3366477139       22.1756903535  W2        27763           0.0000000000
     79047     26349  TIP3      H2             26.7484833595       25.1532677139       20.9337003535  W2        27763           0.0000000000
     79048     26350  TIP3      OH2            20.7089533595       24.5235877139       28.4978203535  W2        27764           0.0000000000
     79049     26350  TIP3      H1             21.3397233595       24.4947977139       29.2172103535  W2        27764           0.0000000000
     79050     26350  TIP3      H2             21.1583833595       24.0984577139       27.7674103535  W2        27764           0.0000000000
     79051     26351  TIP3      OH2            21.9831633595       25.2697877139       23.9218603535  W2        27765           0.0000000000
     79052     26351  TIP3      H1             22.4573333595       25.8607777139       23.3369503535  W2        27765           0.0000000000
     79053     26351  TIP3      H2             21.2658033595       25.8000777139       24.2688703535  W2        27765           0.0000000000
     79054     26352  TIP3      OH2            32.1519733595       28.8082677139       33.9944403535  W2        27766           0.0000000000
     79055     26352  TIP3      H1             32.4754533595       28.1772377139       33.3514903535  W2        27766           0.0000000000
     79056     26352  TIP3      H2             31.7119033595       28.2734877139       34.6551803535  W2        27766           0.0000000000
     79057     26353  TIP3      OH2            28.9292633595       24.7358177139       28.7785603535  W2        27767           0.0000000000
     79058     26353  TIP3      H1             28.0183733595       24.7924977139       29.0671603535  W2        27767           0.0000000000
     79059     26353  TIP3      H2             29.4345533595       24.6753677139       29.5892803535  W2        27767           0.0000000000
     79060     26354  TIP3      OH2            23.7576033595       26.3644477139       27.6053203535  W2        27768           0.0000000000
     79061     26354  TIP3      H1             22.8684033595       26.4639977139       27.2652803535  W2        27768           0.0000000000
     79062     26354  TIP3      H2             24.0540933595       25.5227477139       27.2591103535  W2        27768           0.0000000000
     79063     26355  TIP3      OH2            27.4107833595       26.3647077139       25.2617803535  W2        27769           0.0000000000
     79064     26355  TIP3      H1             28.3423333595       26.4937077139       25.4400903535  W2        27769           0.0000000000
     79065     26355  TIP3      H2             27.1958133595       27.0341377139       24.6122503535  W2        27769           0.0000000000
     79066     26356  TIP3      OH2            33.3344533595       23.9704477139       32.0427403535  W2        27770           0.0000000000
     79067     26356  TIP3      H1             32.6576133595       24.1017577139       32.7067103535  W2        27770           0.0000000000
     79068     26356  TIP3      H2             32.8489433595       23.8153977139       31.2325103535  W2        27770           0.0000000000
     79069     26357  TIP3      OH2            26.0848033595       27.5589277139       22.8283903535  W2        27771           0.0000000000
     79070     26357  TIP3      H1             25.5423133595       27.1793077139       22.1371503535  W2        27771           0.0000000000
     79071     26357  TIP3      H2             26.9182933595       27.7533977139       22.3998003535  W2        27771           0.0000000000
     79072     26358  TIP3      OH2            30.2492333595       27.5231177139       30.6655203535  W2        27774           0.0000000000
     79073     26358  TIP3      H1             30.8135733595       26.9767777139       30.1184803535  W2        27774           0.0000000000
     79074     26358  TIP3      H2             30.1015733595       27.0013077139       31.4542803535  W2        27774           0.0000000000
     79075     26359  TIP3      OH2            25.2512033595       23.6597277139       27.0840003535  W2        27775           0.0000000000
     79076     26359  TIP3      H1             24.9341533595       22.7572577139       27.0485403535  W2        27775           0.0000000000
     79077     26359  TIP3      H2             26.0326133595       23.6614677139       26.5311603535  W2        27775           0.0000000000
     79078     26360  TIP3      OH2            28.8758233595       25.9117277139       33.0795603535  W2        27776           0.0000000000
     79079     26360  TIP3      H1             28.0403533595       26.3656777139       33.1898003535  W2        27776           0.0000000000
     79080     26360  TIP3      H2             29.3998833595       26.1875777139       33.8315503535  W2        27776           0.0000000000
     79081     26361  TIP3      OH2            29.4200833595       32.1244977139       24.7642003535  W2        27777           0.0000000000
     79082     26361  TIP3      H1             28.6751833595       31.6170277139       24.4419903535  W2        27777           0.0000000000
     79083     26361  TIP3      H2             29.2858033595       32.1732977139       25.7106803535  W2        27777           0.0000000000
     79084     26362  TIP3      OH2            36.5699733595       31.2573177139       33.5509603535  W2        27778           0.0000000000
     79085     26362  TIP3      H1             37.2118533595       31.7139477139       33.0071803535  W2        27778           0.0000000000
     79086     26362  TIP3      H2             35.7396633595       31.3705577139       33.0883703535  W2        27778           0.0000000000
     79087     26363  TIP3      OH2            33.3177633595       24.9384877139       22.9634603535  W2        27779           0.0000000000
     79088     26363  TIP3      H1             32.3791833595       25.0500477139       22.8123403535  W2        27779           0.0000000000
     79089     26363  TIP3      H2             33.6149733595       25.7951777139       23.2700303535  W2        27779           0.0000000000
     79090     26364  TIP3      OH2            34.0361133595       26.8057577139       24.6242003535  W2        27781           0.0000000000
     79091     26364  TIP3      H1             34.9280133595       26.6682577139       24.9433203535  W2        27781           0.0000000000
     79092     26364  TIP3      H2             34.0924733595       27.5963677139       24.0875503535  W2        27781           0.0000000000
     79093     26365  TIP3      OH2            24.5449133595       31.4194977139       30.5339903535  W2        27782           0.0000000000
     79094     26365  TIP3      H1             25.2896333595       31.4170677139       29.9326403535  W2        27782           0.0000000000
     79095     26365  TIP3      H2             24.6225733595       30.5958777139       31.0155003535  W2        27782           0.0000000000
     79096     26366  TIP3      OH2            31.5454933595       33.5829277139       23.7896603535  W2        27783           0.0000000000
     79097     26366  TIP3      H1             31.2503333595       34.4097177139       24.1711403535  W2        27783           0.0000000000
     79098     26366  TIP3      H2             30.8424933595       32.9636177139       23.9858003535  W2        27783           0.0000000000
     79099     26367  TIP3      OH2            38.9209833595       27.0151677139       24.3188703535  W2        27787           0.0000000000
     79100     26367  TIP3      H1             38.3666133595       26.6189677139       23.6466203535  W2        27787           0.0000000000
     79101     26367  TIP3      H2             39.0213433595       27.9256877139       24.0412003535  W2        27787           0.0000000000
     79102     26368  TIP3      OH2            37.2161533595       35.8012077139       24.7840803535  W2        27789           0.0000000000
     79103     26368  TIP3      H1             36.8432633595       34.9755877139       25.0931403535  W2        27789           0.0000000000
     79104     26368  TIP3      H2             37.4935033595       35.6181477139       23.8864203535  W2        27789           0.0000000000
     79105     26369  TIP3      OH2            34.3765433595       30.6091577139       31.8052703535  W2        27790           0.0000000000
     79106     26369  TIP3      H1             33.4482333595       30.3773477139       31.7782003535  W2        27790           0.0000000000
     79107     26369  TIP3      H2             34.8276533595       29.8321377139       31.4751503535  W2        27790           0.0000000000
     79108     26370  TIP3      OH2            26.9198533595       34.9373177139       27.9381403535  W2        27791           0.0000000000
     79109     26370  TIP3      H1             27.4470733595       35.7107577139       27.7380203535  W2        27791           0.0000000000
     79110     26370  TIP3      H2             26.0397033595       35.1622377139       27.6365403535  W2        27791           0.0000000000
     79111     26371  TIP3      OH2            22.6746233595       29.7997277139       22.5253803535  W2        27792           0.0000000000
     79112     26371  TIP3      H1             23.2906133595       30.4264477139       22.9048603535  W2        27792           0.0000000000
     79113     26371  TIP3      H2             21.8128833595       30.1157077139       22.7970303535  W2        27792           0.0000000000
     79114     26372  TIP3      OH2            28.3470833595       32.6003077139       27.5145703535  W2        27793           0.0000000000
     79115     26372  TIP3      H1             28.1060833595       33.5257477139       27.5561003535  W2        27793           0.0000000000
     79116     26372  TIP3      H2             27.6064433595       32.1414377139       27.9109603535  W2        27793           0.0000000000
     79117     26373  TIP3      OH2            28.8617433595       36.7496677139       33.8296803535  W2        27794           0.0000000000
     79118     26373  TIP3      H1             29.2242133595       37.6042277139       33.5961203535  W2        27794           0.0000000000
     79119     26373  TIP3      H2             29.3932633595       36.4578277139       34.5703103535  W2        27794           0.0000000000
     79120     26374  TIP3      OH2            27.0301633595       37.6220677139       27.0597903535  W2        27795           0.0000000000
     79121     26374  TIP3      H1             26.0802133595       37.7278077139       27.1111203535  W2        27795           0.0000000000
     79122     26374  TIP3      H2             27.3819733595       38.4428077139       27.4045403535  W2        27795           0.0000000000
     79123     26375  TIP3      OH2            32.4058233595       32.8487377139       33.5302403535  W2        27796           0.0000000000
     79124     26375  TIP3      H1             31.9799533595       32.6209077139       34.3566403535  W2        27796           0.0000000000
     79125     26375  TIP3      H2             32.9864033595       32.1099177139       33.3477703535  W2        27796           0.0000000000
     79126     26376  TIP3      OH2            34.6087133595       33.7777877139       22.6041403535  W2        27797           0.0000000000
     79127     26376  TIP3      H1             34.9620233595       33.3977677139       23.4084903535  W2        27797           0.0000000000
     79128     26376  TIP3      H2             33.6600633595       33.6842677139       22.6910703535  W2        27797           0.0000000000
     79129     26377  TIP3      OH2            39.1121533595       38.2570377139       22.8051603535  W2        27799           0.0000000000
     79130     26377  TIP3      H1             39.8559433595       38.8430877139       22.6653203535  W2        27799           0.0000000000
     79131     26377  TIP3      H2             38.4179633595       38.8256177139       23.1384003535  W2        27799           0.0000000000
     79132     26378  TIP3      OH2            23.1868333595       24.6334577139       35.4069803535  W2        27800           0.0000000000
     79133     26378  TIP3      H1             22.2940633595       24.9719977139       35.3393803535  W2        27800           0.0000000000
     79134     26378  TIP3      H2             23.0881133595       23.7780677139       35.8250603535  W2        27800           0.0000000000
     79135     26379  TIP3      OH2            35.4746433595       32.4499877139       24.8309303535  W2        27801           0.0000000000
     79136     26379  TIP3      H1             35.1974033595       31.7219177139       25.3870403535  W2        27801           0.0000000000
     79137     26379  TIP3      H2             36.4019433595       32.5691877139       25.0361903535  W2        27801           0.0000000000
     79138     26380  TIP3      OH2            22.8380333595       36.4378977139       33.8419203535  W2        27802           0.0000000000
     79139     26380  TIP3      H1             23.0550633595       35.5061377139       33.8108903535  W2        27802           0.0000000000
     79140     26380  TIP3      H2             23.0843833595       36.7123977139       34.7252003535  W2        27802           0.0000000000
     79141     26381  TIP3      OH2            28.6994933595       34.8893977139       21.0511403535  W2        27803           0.0000000000
     79142     26381  TIP3      H1             28.9384733595       34.1412077139       20.5040303535  W2        27803           0.0000000000
     79143     26381  TIP3      H2             28.4306233595       34.5015677139       21.8839203535  W2        27803           0.0000000000
     79144     26382  TIP3      OH2            27.6365533595       34.4597777139       23.5074003535  W2        27804           0.0000000000
     79145     26382  TIP3      H1             27.7833533595       33.9397577139       24.2974903535  W2        27804           0.0000000000
     79146     26382  TIP3      H2             27.6337233595       35.3665377139       23.8139903535  W2        27804           0.0000000000
     79147     26383  TIP3      OH2            24.0896633595       31.7121077139       24.0179403535  W2        27805           0.0000000000
     79148     26383  TIP3      H1             23.4035933595       32.0643577139       24.5849103535  W2        27805           0.0000000000
     79149     26383  TIP3      H2             24.6124533595       32.4750677139       23.7713703535  W2        27805           0.0000000000
     79150     26384  TIP3      OH2            31.9211733595       24.3744877139       34.2968403535  W2        27806           0.0000000000
     79151     26384  TIP3      H1             32.6199633595       24.4483577139       34.9468103535  W2        27806           0.0000000000
     79152     26384  TIP3      H2             31.5403133595       23.5099877139       34.4511303535  W2        27806           0.0000000000
     79153     26385  TIP3      OH2            32.7056633595       24.0266577139       25.3940703535  W2        27807           0.0000000000
     79154     26385  TIP3      H1             32.9254933595       24.4981977139       24.5906103535  W2        27807           0.0000000000
     79155     26385  TIP3      H2             33.2640633595       24.4209177139       26.0641303535  W2        27807           0.0000000000
     79156     26386  TIP3      OH2            30.3742733595       36.1571377139       24.2568203535  W2        27808           0.0000000000
     79157     26386  TIP3      H1             29.5578833595       36.6541077139       24.3092503535  W2        27808           0.0000000000
     79158     26386  TIP3      H2             30.9039033595       36.6324877139       23.6167003535  W2        27808           0.0000000000
     79159     26387  TIP3      OH2            29.9056533595       25.7545377139       26.2289103535  W2        27809           0.0000000000
     79160     26387  TIP3      H1             30.7179133595       26.2588577139       26.2750803535  W2        27809           0.0000000000
     79161     26387  TIP3      H2             29.6609533595       25.6095077139       27.1428703535  W2        27809           0.0000000000
     79162     26388  TIP3      OH2            30.4412933595       26.7408077139       35.4135703535  W2        27810           0.0000000000
     79163     26388  TIP3      H1             30.5603233595       27.3143477139       36.1706103535  W2        27810           0.0000000000
     79164     26388  TIP3      H2             31.0967533595       26.0527477139       35.5283503535  W2        27810           0.0000000000
     79165     26389  TIP3      OH2            30.7893233595       22.8358377139       27.1670203535  W2        27811           0.0000000000
     79166     26389  TIP3      H1             30.4426733595       23.4528977139       27.8114503535  W2        27811           0.0000000000
     79167     26389  TIP3      H2             31.4480133595       23.3364077139       26.6855703535  W2        27811           0.0000000000
     79168     26390  TIP3      OH2            27.7125833595       37.2008577139       24.2385103535  W2        27812           0.0000000000
     79169     26390  TIP3      H1             27.8734533595       38.0006077139       23.7377703535  W2        27812           0.0000000000
     79170     26390  TIP3      H2             27.5153633595       37.5074577139       25.1235703535  W2        27812           0.0000000000
     79171     26391  TIP3      OH2            26.4470233595       23.8987777139       23.8542703535  W2        27813           0.0000000000
     79172     26391  TIP3      H1             26.3635033595       24.7870877139       24.2009103535  W2        27813           0.0000000000
     79173     26391  TIP3      H2             27.3370533595       23.6334477139       24.0859503535  W2        27813           0.0000000000
     79174     26392  TIP3      OH2            35.2479733595       28.3979377139       30.3442703535  W2        27815           0.0000000000
     79175     26392  TIP3      H1             34.4504133595       27.9829577139       30.0157703535  W2        27815           0.0000000000
     79176     26392  TIP3      H2             35.6930833595       27.7073077139       30.8353203535  W2        27815           0.0000000000
     79177     26393  TIP3      OH2            24.7055533595       34.3259977139       22.9147203535  W2        27816           0.0000000000
     79178     26393  TIP3      H1             25.2977033595       35.0254777139       23.1909603535  W2        27816           0.0000000000
     79179     26393  TIP3      H2             25.1648533595       33.8929477139       22.1951803535  W2        27816           0.0000000000
     79180     26394  TIP3      OH2            23.0214733595       26.9902977139       22.0306603535  W2        27817           0.0000000000
     79181     26394  TIP3      H1             22.9767333595       27.9296077139       22.2093603535  W2        27817           0.0000000000
     79182     26394  TIP3      H2             22.1337933595       26.7547877139       21.7608703535  W2        27817           0.0000000000
     79183     26395  TIP3      OH2            36.3344333595       37.6541877139       31.9666203535  W2        27818           0.0000000000
     79184     26395  TIP3      H1             36.1788633595       38.3326277139       31.3095503535  W2        27818           0.0000000000
     79185     26395  TIP3      H2             37.2670733595       37.7261177139       32.1696803535  W2        27818           0.0000000000
     79186     26396  TIP3      OH2            23.8296733595       21.7719577139       30.7037603535  W2        27819           0.0000000000
     79187     26396  TIP3      H1             23.6006533595       21.8312077139       29.7762603535  W2        27819           0.0000000000
     79188     26396  TIP3      H2             23.3870133595       20.9805077139       31.0101703535  W2        27819           0.0000000000
     79189     26397  TIP3      OH2            22.7600033595       35.7126677139       26.8643403535  W2        27820           0.0000000000
     79190     26397  TIP3      H1             21.9278633595       36.1849377139       26.8914803535  W2        27820           0.0000000000
     79191     26397  TIP3      H2             23.3058333595       36.2224277139       26.2656503535  W2        27820           0.0000000000
     79192     26398  TIP3      OH2            30.7376733595       36.7525377139       21.1897403535  W2        27823           0.0000000000
     79193     26398  TIP3      H1             30.0937733595       36.1213977139       21.5111103535  W2        27823           0.0000000000
     79194     26398  TIP3      H2             31.4995033595       36.2213377139       20.9580903535  W2        27823           0.0000000000
     79195     26399  TIP3      OH2            35.3419633595       36.5695277139       21.4235403535  W2        27825           0.0000000000
     79196     26399  TIP3      H1             35.6250033595       35.7750477139       21.8762303535  W2        27825           0.0000000000
     79197     26399  TIP3      H2             36.0817533595       36.8026277139       20.8626503535  W2        27825           0.0000000000
     79198     26400  TIP3      OH2            26.2966933595       32.4790177139       21.2810303535  W2        27827           0.0000000000
     79199     26400  TIP3      H1             26.3611033595       31.6849777139       21.8116703535  W2        27827           0.0000000000
     79200     26400  TIP3      H2             26.9496133595       32.3602977139       20.5912303535  W2        27827           0.0000000000
     79201     26401  TIP3      OH2            31.6490333595       33.5261877139       21.0168303535  W2        27829           0.0000000000
     79202     26401  TIP3      H1             31.3804433595       33.7063977139       21.9177203535  W2        27829           0.0000000000
     79203     26401  TIP3      H2             31.4425933595       32.6008077139       20.8854103535  W2        27829           0.0000000000
     79204     26402  TIP3      OH2            27.4460733595       30.4516377139       23.5868303535  W2        27832           0.0000000000
     79205     26402  TIP3      H1             26.9862733595       29.9674677139       24.2726803535  W2        27832           0.0000000000
     79206     26402  TIP3      H2             27.7009433595       29.7831777139       22.9508803535  W2        27832           0.0000000000
     79207     26403  TIP3      OH2            28.5171133595       28.6948177139       21.8491503535  W2        27834           0.0000000000
     79208     26403  TIP3      H1             28.3366133595       28.5399377139       20.9219803535  W2        27834           0.0000000000
     79209     26403  TIP3      H2             29.4671633595       28.8026877139       21.8939403535  W2        27834           0.0000000000
     79210     26404  TIP3      OH2            37.9069433595       31.0492377139       21.2949603535  W2        27836           0.0000000000
     79211     26404  TIP3      H1             37.6334233595       30.6247877139       20.4817903535  W2        27836           0.0000000000
     79212     26404  TIP3      H2             37.9463533595       31.9806877139       21.0780003535  W2        27836           0.0000000000
     79213     26405  TIP3      OH2            27.4869433595       24.0690077139       34.5178403535  W2        27838           0.0000000000
     79214     26405  TIP3      H1             28.0226933595       24.5206777139       33.8657703535  W2        27838           0.0000000000
     79215     26405  TIP3      H2             26.6349033595       23.9609877139       34.0952503535  W2        27838           0.0000000000
     79216     26406  TIP3      OH2            29.0687833595       29.5086277139       34.7573603535  W2        27839           0.0000000000
     79217     26406  TIP3      H1             29.8192633595       29.3523777139       34.1841403535  W2        27839           0.0000000000
     79218     26406  TIP3      H2             28.7296133595       30.3602877139       34.4819103535  W2        27839           0.0000000000
     79219     26407  TIP3      OH2            28.2924933595       21.5255777139       34.9492003535  W2        27843           0.0000000000
     79220     26407  TIP3      H1             28.1944533595       22.4718977139       34.8438203535  W2        27843           0.0000000000
     79221     26407  TIP3      H2             27.5501133595       21.1529577139       34.4735503535  W2        27843           0.0000000000
     79222     26408  TIP3      OH2            28.4142833595       39.3851877139       22.8505103535  W2        27850           0.0000000000
     79223     26408  TIP3      H1             29.3473533595       39.5430577139       22.9943503535  W2        27850           0.0000000000
     79224     26408  TIP3      H2             28.1501633595       40.0604877139       22.2256603535  W2        27850           0.0000000000
     79225     26409  TIP3      OH2            21.9827733595       34.0215677139       22.3333203535  W2        27851           0.0000000000
     79226     26409  TIP3      H1             22.8966933595       34.1004577139       22.6067103535  W2        27851           0.0000000000
     79227     26409  TIP3      H2             21.9900833595       33.3345277139       21.6668803535  W2        27851           0.0000000000
     79228     26410  TIP3      OH2            20.6318333595       39.4144177139       27.4107103535  W2        27852           0.0000000000
     79229     26410  TIP3      H1             19.9845433595       38.9525877139       26.8778303535  W2        27852           0.0000000000
     79230     26410  TIP3      H2             20.9862933595       38.7427477139       27.9933303535  W2        27852           0.0000000000
     79231     26411  TIP3      OH2            21.5017533595       37.4951177139       29.2153303535  W2        27853           0.0000000000
     79232     26411  TIP3      H1             21.1674333595       36.6148477139       29.3873503535  W2        27853           0.0000000000
     79233     26411  TIP3      H2             21.7239933595       37.8406177139       30.0798903535  W2        27853           0.0000000000
     79234     26412  TIP3      OH2            39.0502333595       38.3047577139       32.1958103535  W2        27854           0.0000000000
     79235     26412  TIP3      H1             39.0289033595       38.4895977139       33.1347503535  W2        27854           0.0000000000
     79236     26412  TIP3      H2             39.7408533595       38.8731577139       31.8549503535  W2        27854           0.0000000000
     79237     26413  TIP3      OH2            38.6135233595       37.8718677139       35.1177203535  W2        27855           0.0000000000
     79238     26413  TIP3      H1             38.1263933595       37.1362777139       34.7464603535  W2        27855           0.0000000000
     79239     26413  TIP3      H2             39.1627933595       37.4782577139       35.7956603535  W2        27855           0.0000000000
     79240     26414  TIP3      OH2            38.3652233595       31.9180477139       25.2700003535  W2        27857           0.0000000000
     79241     26414  TIP3      H1             39.2153633595       32.3391377139       25.3971603535  W2        27857           0.0000000000
     79242     26414  TIP3      H2             38.3707333595       31.1780577139       25.8771403535  W2        27857           0.0000000000
     79243     26415  TIP3      OH2            38.7597833595       29.9717877139       27.0935703535  W2        27858           0.0000000000
     79244     26415  TIP3      H1             38.0332433595       29.4920477139       27.4913303535  W2        27858           0.0000000000
     79245     26415  TIP3      H2             39.3411133595       30.1772577139       27.8257303535  W2        27858           0.0000000000
     79246     26416  TIP3      OH2            38.5189033595       32.7565377139       32.0413303535  W2        27859           0.0000000000
     79247     26416  TIP3      H1             39.3523233595       32.3785377139       31.7606903535  W2        27859           0.0000000000
     79248     26416  TIP3      H2             38.6309333595       33.6996577139       31.9222403535  W2        27859           0.0000000000
     79249     26417  TIP3      OH2            37.0051333595       35.6342877139       34.3481703535  W2        27860           0.0000000000
     79250     26417  TIP3      H1             36.3576633595       35.9594377139       34.9736903535  W2        27860           0.0000000000
     79251     26417  TIP3      H2             36.4875333595       35.1940577139       33.6740003535  W2        27860           0.0000000000
     79252     26418  TIP3      OH2            39.0280933595       29.8726377139       23.4847003535  W2        27861           0.0000000000
     79253     26418  TIP3      H1             38.5062033595       30.2290477139       22.7657903535  W2        27861           0.0000000000
     79254     26418  TIP3      H2             38.9950133595       30.5474177139       24.1627903535  W2        27861           0.0000000000
     79255     26419  TIP3      OH2            37.3769933595       27.1121977139       22.0354103535  W2        27862           0.0000000000
     79256     26419  TIP3      H1             37.4734333595       27.7788977139       21.3553803535  W2        27862           0.0000000000
     79257     26419  TIP3      H2             37.2369533595       26.2968277139       21.5539603535  W2        27862           0.0000000000
     79258     26420  TIP3      OH2            36.5464633595       28.4924377139       27.6564403535  W2        27863           0.0000000000
     79259     26420  TIP3      H1             36.3963433595       27.5472977139       27.6362203535  W2        27863           0.0000000000
     79260     26420  TIP3      H2             36.1929133595       28.7735777139       28.5003503535  W2        27863           0.0000000000
     79261     26421  TIP3      OH2            21.5817033595       30.5706577139       31.6668203535  W2        27864           0.0000000000
     79262     26421  TIP3      H1             21.7659933595       30.4888277139       30.7311103535  W2        27864           0.0000000000
     79263     26421  TIP3      H2             22.4309933595       30.4463577139       32.0904603535  W2        27864           0.0000000000
     79264     26422  TIP3      OH2            36.6243733595       24.5201777139       21.1529603535  W2        27867           0.0000000000
     79265     26422  TIP3      H1             37.2349533595       24.1488577139       21.7897803535  W2        27867           0.0000000000
     79266     26422  TIP3      H2             35.7875233595       24.0988677139       21.3489603535  W2        27867           0.0000000000
     79267     26423  TIP3      OH2            36.2569433595       26.0750177139       26.1189503535  W2        27868           0.0000000000
     79268     26423  TIP3      H1             36.5366533595       25.1680577139       26.2431203535  W2        27868           0.0000000000
     79269     26423  TIP3      H2             37.0161133595       26.5091677139       25.7298703535  W2        27868           0.0000000000
     79270     26424  TIP3      OH2            36.8687733595       26.6567577139       31.5548403535  W2        27869           0.0000000000
     79271     26424  TIP3      H1             37.8015733595       26.8687477139       31.5204403535  W2        27869           0.0000000000
     79272     26424  TIP3      H2             36.6335233595       26.7579677139       32.4771403535  W2        27869           0.0000000000
     79273     26425  TIP3      OH2            36.8979633595       27.3932877139       34.3307803535  W2        27870           0.0000000000
     79274     26425  TIP3      H1             36.0550933595       27.6613277139       34.6967603535  W2        27870           0.0000000000
     79275     26425  TIP3      H2             37.3403933595       28.2154777139       34.1198903535  W2        27870           0.0000000000
     79276     26426  TIP3      OH2            36.8704233595       23.3379477139       26.1671503535  W2        27873           0.0000000000
     79277     26426  TIP3      H1             37.0529233595       22.8890977139       26.9926503535  W2        27873           0.0000000000
     79278     26426  TIP3      H2             36.2707133595       22.7533877139       25.7036103535  W2        27873           0.0000000000
     79279     26427  TIP3      OH2            22.4004333595       24.1533177139       30.6989903535  W2        27874           0.0000000000
     79280     26427  TIP3      H1             22.8455933595       23.3615677139       31.0009603535  W2        27874           0.0000000000
     79281     26427  TIP3      H2             22.8667333595       24.8698377139       31.1295503535  W2        27874           0.0000000000
     79282     26428  TIP3      OH2            20.7044633595       27.1526177139       31.7680103535  W2        27875           0.0000000000
     79283     26428  TIP3      H1             21.1964433595       26.9316677139       30.9772103535  W2        27875           0.0000000000
     79284     26428  TIP3      H2             21.0665533595       27.9929577139       32.0489603535  W2        27875           0.0000000000
     79285     26429  TIP3      OH2            38.7370433595       23.4057577139       22.6951803535  W2        27877           0.0000000000
     79286     26429  TIP3      H1             39.1493033595       22.6843277139       22.2199803535  W2        27877           0.0000000000
     79287     26429  TIP3      H2             39.4186933595       24.0752177139       22.7536103535  W2        27877           0.0000000000
     79288     26430  TIP3      OH2            21.0181133595       23.4105277139       25.8222503535  W2        27878           0.0000000000
     79289     26430  TIP3      H1             20.0929533595       23.6191877139       25.6928003535  W2        27878           0.0000000000
     79290     26430  TIP3      H2             21.4721033595       23.8946077139       25.1324803535  W2        27878           0.0000000000
     79291     26431  TIP3      OH2            35.7888333595       38.3946977139       27.7679903535  W2        27879           0.0000000000
     79292     26431  TIP3      H1             36.4411233595       38.0469077139       27.1599003535  W2        27879           0.0000000000
     79293     26431  TIP3      H2             36.2992133595       38.8830177139       28.4139603535  W2        27879           0.0000000000
     79294     26432  TIP3      OH2            20.9816533595       22.1484277139       34.1665003535  W2        27880           0.0000000000
     79295     26432  TIP3      H1             20.3167033595       21.9024577139       34.8095903535  W2        27880           0.0000000000
     79296     26432  TIP3      H2             20.5387833595       22.7704677139       33.5893003535  W2        27880           0.0000000000
     79297     26433  TIP3      OH2            26.1278733595       36.2979577139       34.5694803535  W2        27882           0.0000000000
     79298     26433  TIP3      H1             25.7029833595       37.1078077139       34.2869403535  W2        27882           0.0000000000
     79299     26433  TIP3      H2             27.0321533595       36.3833677139       34.2674603535  W2        27882           0.0000000000
     79300     26434  TIP3      OH2            23.5295433595       39.5543477139       34.6170103535  W2        27886           0.0000000000
     79301     26434  TIP3      H1             22.8091833595       39.9944477139       34.1657803535  W2        27886           0.0000000000
     79302     26434  TIP3      H2             23.1639433595       39.3038177139       35.4654103535  W2        27886           0.0000000000
     79303     26435  TIP3      OH2            25.9968033595       39.1547377139       33.6467303535  W2        27887           0.0000000000
     79304     26435  TIP3      H1             25.1320233595       39.2265877139       34.0507403535  W2        27887           0.0000000000
     79305     26435  TIP3      H2             25.9417033595       39.7014677139       32.8629803535  W2        27887           0.0000000000
     79306     26436  TIP3      OH2            30.7073633595       39.0426277139       32.8223303535  W2        27888           0.0000000000
     79307     26436  TIP3      H1             30.2507633595       39.5715977139       32.1681703535  W2        27888           0.0000000000
     79308     26436  TIP3      H2             30.8701633595       39.6457677139       33.5475603535  W2        27888           0.0000000000
     79309     26437  TIP3      OH2            33.0349933595       37.9205877139       33.7673603535  W2        27889           0.0000000000
     79310     26437  TIP3      H1             32.1303633595       38.0856077139       33.5015703535  W2        27889           0.0000000000
     79311     26437  TIP3      H2             33.4638533595       38.7738077139       33.7017003535  W2        27889           0.0000000000
     79312     26438  TIP3      OH2            35.6391833595       39.4904977139       34.0621403535  W2        27890           0.0000000000
     79313     26438  TIP3      H1             35.4573833595       40.4063877139       33.8516303535  W2        27890           0.0000000000
     79314     26438  TIP3      H2             35.8159633595       39.0802077139       33.2156003535  W2        27890           0.0000000000
     79315     26439  TIP3      OH2            22.9443533595       38.1775977139       31.5271903535  W2        27891           0.0000000000
     79316     26439  TIP3      H1             22.9259533595       37.7521077139       32.3844203535  W2        27891           0.0000000000
     79317     26439  TIP3      H2             23.7491433595       37.8590977139       31.1184103535  W2        27891           0.0000000000
     79318     26440  TIP3      OH2            25.0856633595       36.8874677139       30.1821803535  W2        27892           0.0000000000
     79319     26440  TIP3      H1             24.8667333595       35.9712077139       30.3517803535  W2        27892           0.0000000000
     79320     26440  TIP3      H2             25.9098833595       37.0275077139       30.6483203535  W2        27892           0.0000000000
     79321     26441  TIP3      OH2            27.6229133595       37.3573977139       31.0309803535  W2        27893           0.0000000000
     79322     26441  TIP3      H1             27.8354833595       36.4692977139       30.7440703535  W2        27893           0.0000000000
     79323     26441  TIP3      H2             27.6874233595       37.3231677139       31.9853803535  W2        27893           0.0000000000
     79324     26442  TIP3      OH2            31.1312833595       23.0214577139       30.1753103535  W2        27894           0.0000000000
     79325     26442  TIP3      H1             30.4569633595       22.3920177139       30.4308903535  W2        27894           0.0000000000
     79326     26442  TIP3      H2             31.6952033595       22.5373477139       29.5721003535  W2        27894           0.0000000000
     79327     26443  TIP3      OH2            36.2740033595       21.1288577139       30.2880203535  W2        27895           0.0000000000
     79328     26443  TIP3      H1             36.8777633595       21.6763977139       29.7861203535  W2        27895           0.0000000000
     79329     26443  TIP3      H2             35.4042033595       21.4478977139       30.0474303535  W2        27895           0.0000000000
     79330     26444  TIP3      OH2            38.0010433595       22.2677277139       28.6211103535  W2        27896           0.0000000000
     79331     26444  TIP3      H1             38.6127933595       21.7532977139       28.0944703535  W2        27896           0.0000000000
     79332     26444  TIP3      H2             38.3833833595       23.1449377139       28.6445503535  W2        27896           0.0000000000
     79333     26445  TIP3      OH2            23.4580333595       21.6554877139       27.9973003535  W2        27897           0.0000000000
     79334     26445  TIP3      H1             22.6810133595       21.4209777139       27.4898903535  W2        27897           0.0000000000
     79335     26445  TIP3      H2             23.9883933595       20.8586977139       28.0061003535  W2        27897           0.0000000000
     79336     26446  TIP3      OH2            22.2943733595       21.4532977139       23.8009103535  W2        27898           0.0000000000
     79337     26446  TIP3      H1             22.7334433595       22.0643477139       23.2092603535  W2        27898           0.0000000000
     79338     26446  TIP3      H2             21.6606133595       21.9917077139       24.2749103535  W2        27898           0.0000000000
     79339     26447  TIP3      OH2            28.0372933595       21.5821977139       27.8106103535  W2        27899           0.0000000000
     79340     26447  TIP3      H1             28.9116333595       21.9706277139       27.7810403535  W2        27899           0.0000000000
     79341     26447  TIP3      H2             27.9013733595       21.3669777139       28.7333303535  W2        27899           0.0000000000
     79342     26448  TIP3      OH2            33.5941333595       21.6121777139       29.4597803535  W2        27900           0.0000000000
     79343     26448  TIP3      H1             33.6702933595       21.7073377139       28.5103803535  W2        27900           0.0000000000
     79344     26448  TIP3      H2             33.3190533595       20.7044677139       29.5886903535  W2        27900           0.0000000000
     79345     26449  TIP3      OH2            34.9473933595       21.6379577139       25.1522803535  W2        27901           0.0000000000
     79346     26449  TIP3      H1             34.2445033595       22.2528777139       24.9424203535  W2        27901           0.0000000000
     79347     26449  TIP3      H2             34.5025333595       20.8006277139       25.2833703535  W2        27901           0.0000000000
     79348     26450  TIP3      OH2            22.1953233595       37.4015177139       24.6984203535  W2        27902           0.0000000000
     79349     26450  TIP3      H1             21.5103133595       37.3634077139       24.0309303535  W2        27902           0.0000000000
     79350     26450  TIP3      H2             22.1990433595       38.3142777139       24.9866303535  W2        27902           0.0000000000
     79351     26451  TIP3      OH2            24.1552833595       23.3694477139       22.2433203535  W2        27903           0.0000000000
     79352     26451  TIP3      H1             24.6466233595       22.7396877139       21.7158703535  W2        27903           0.0000000000
     79353     26451  TIP3      H2             24.7789133595       23.6653877139       22.9064403535  W2        27903           0.0000000000
     79354     26452  TIP3      OH2            29.1812933595       23.6625977139       24.7003703535  W2        27904           0.0000000000
     79355     26452  TIP3      H1             29.3594233595       23.0159177139       25.3832303535  W2        27904           0.0000000000
     79356     26452  TIP3      H2             29.1279133595       24.4963677139       25.1674803535  W2        27904           0.0000000000
     79357     26453  TIP3      OH2            31.0596733595       38.6110077139       23.0960403535  W2        27905           0.0000000000
     79358     26453  TIP3      H1             31.9256933595       38.9777477139       22.9178603535  W2        27905           0.0000000000
     79359     26453  TIP3      H2             30.8129533595       38.1718077139       22.2821203535  W2        27905           0.0000000000
     79360     26454  TIP3      OH2            37.7686333595       38.1740377139       25.7751503535  W2        27906           0.0000000000
     79361     26454  TIP3      H1             37.5743433595       37.4262477139       25.2101103535  W2        27906           0.0000000000
     79362     26454  TIP3      H2             37.7296433595       38.9320477139       25.1919403535  W2        27906           0.0000000000
     79363     26455  TIP3      OH2            24.0134433595       38.3215977139       21.7236303535  W2        27909           0.0000000000
     79364     26455  TIP3      H1             23.7459033595       38.6078877139       22.5969403535  W2        27909           0.0000000000
     79365     26455  TIP3      H2             24.7847033595       37.7755177139       21.8758803535  W2        27909           0.0000000000
     79366     26456  TIP3      OH2            51.3922933595       30.8117177139       27.9560503535  W2        27912           0.0000000000
     79367     26456  TIP3      H1             51.4814033595       31.7555377139       27.8237603535  W2        27912           0.0000000000
     79368     26456  TIP3      H2             50.7540533595       30.5363577139       27.2979903535  W2        27912           0.0000000000
     79369     26457  TIP3      OH2            50.3254233595       30.0667877139       31.3748703535  W2        27913           0.0000000000
     79370     26457  TIP3      H1             50.2871733595       29.4204177139       32.0798303535  W2        27913           0.0000000000
     79371     26457  TIP3      H2             50.0030733595       29.6002277139       30.6037403535  W2        27913           0.0000000000
     79372     26458  TIP3      OH2            42.6939233595       29.6809977139       32.9678603535  W2        27914           0.0000000000
     79373     26458  TIP3      H1             42.7351333595       29.0553277139       33.6911003535  W2        27914           0.0000000000
     79374     26458  TIP3      H2             43.3966933595       30.3048577139       33.1499003535  W2        27914           0.0000000000
     79375     26459  TIP3      OH2            54.0314433595       33.0058277139       29.6763803535  W2        27915           0.0000000000
     79376     26459  TIP3      H1             53.5907133595       32.2854277139       30.1269403535  W2        27915           0.0000000000
     79377     26459  TIP3      H2             54.0184133595       33.7265477139       30.3061503535  W2        27915           0.0000000000
     79378     26460  TIP3      OH2            43.6172333595       34.1308877139       31.5027703535  W2        27916           0.0000000000
     79379     26460  TIP3      H1             43.2477533595       33.3289377139       31.1332003535  W2        27916           0.0000000000
     79380     26460  TIP3      H2             44.5583433595       33.9623777139       31.5491103535  W2        27916           0.0000000000
     79381     26461  TIP3      OH2            40.2272833595       27.7911477139       26.8956503535  W2        27917           0.0000000000
     79382     26461  TIP3      H1             39.7796233595       28.6370177139       26.8773003535  W2        27917           0.0000000000
     79383     26461  TIP3      H2             39.6664033595       27.2115677139       26.3801603535  W2        27917           0.0000000000
     79384     26462  TIP3      OH2            40.9378933595       29.9531077139       29.0214503535  W2        27918           0.0000000000
     79385     26462  TIP3      H1             41.1512433595       29.1832677139       29.5487503535  W2        27918           0.0000000000
     79386     26462  TIP3      H2             41.6756533595       30.0427777139       28.4182103535  W2        27918           0.0000000000
     79387     26463  TIP3      OH2            51.1429933595       38.1099977139       29.8884203535  W2        27919           0.0000000000
     79388     26463  TIP3      H1             51.7626333595       37.4334677139       29.6153403535  W2        27919           0.0000000000
     79389     26463  TIP3      H2             50.9347333595       37.8920777139       30.7969103535  W2        27919           0.0000000000
     79390     26464  TIP3      OH2            48.7148633595       32.4989277139       31.7809703535  W2        27920           0.0000000000
     79391     26464  TIP3      H1             49.0186533595       31.8130677139       31.1863803535  W2        27920           0.0000000000
     79392     26464  TIP3      H2             49.4362633595       32.6177977139       32.3987703535  W2        27920           0.0000000000
     79393     26465  TIP3      OH2            51.8555633595       26.8931677139       32.1084503535  W2        27921           0.0000000000
     79394     26465  TIP3      H1             51.9981533595       25.9468677139       32.1286103535  W2        27921           0.0000000000
     79395     26465  TIP3      H2             51.7494633595       27.1001477139       31.1799403535  W2        27921           0.0000000000
     79396     26466  TIP3      OH2            45.0103933595       24.9948077139       29.3809303535  W2        27922           0.0000000000
     79397     26466  TIP3      H1             45.0535033595       25.8546577139       28.9625603535  W2        27922           0.0000000000
     79398     26466  TIP3      H2             44.5528033595       24.4422777139       28.7472503535  W2        27922           0.0000000000
     79399     26467  TIP3      OH2            52.7326633595       25.1253677139       27.7817603535  W2        27923           0.0000000000
     79400     26467  TIP3      H1             53.3790933595       24.7966877139       28.4065203535  W2        27923           0.0000000000
     79401     26467  TIP3      H2             53.2426033595       25.6432677139       27.1589003535  W2        27923           0.0000000000
     79402     26468  TIP3      OH2            41.6305433595       27.3913877139       30.1430703535  W2        27924           0.0000000000
     79403     26468  TIP3      H1             42.2842033595       26.8415577139       30.5750803535  W2        27924           0.0000000000
     79404     26468  TIP3      H2             41.6544733595       27.1172877139       29.2262703535  W2        27924           0.0000000000
     79405     26469  TIP3      OH2            46.7869933595       28.9415177139       29.3582203535  W2        27925           0.0000000000
     79406     26469  TIP3      H1             47.4030933595       28.4150577139       29.8676203535  W2        27925           0.0000000000
     79407     26469  TIP3      H2             46.2008733595       28.3013877139       28.9545803535  W2        27925           0.0000000000
     79408     26470  TIP3      OH2            43.8205833595       23.9126477139       33.4550103535  W2        27926           0.0000000000
     79409     26470  TIP3      H1             43.6017533595       24.4427077139       32.6886103535  W2        27926           0.0000000000
     79410     26470  TIP3      H2             43.1526733595       24.1391977139       34.1021503535  W2        27926           0.0000000000
     79411     26471  TIP3      OH2            51.1895633595       33.4127577139       26.9989203535  W2        27927           0.0000000000
     79412     26471  TIP3      H1             50.8940733595       33.0899877139       26.1476103535  W2        27927           0.0000000000
     79413     26471  TIP3      H2             50.8653433595       34.3124277139       27.0401803535  W2        27927           0.0000000000
     79414     26472  TIP3      OH2            46.3897233595       31.5882177139       33.7423803535  W2        27928           0.0000000000
     79415     26472  TIP3      H1             45.6496333595       32.1863677139       33.8459003535  W2        27928           0.0000000000
     79416     26472  TIP3      H2             47.1036733595       32.1421777139       33.4267403535  W2        27928           0.0000000000
     79417     26473  TIP3      OH2            54.4965033595       24.4162977139       29.7623503535  W2        27929           0.0000000000
     79418     26473  TIP3      H1             54.2813033595       23.6506377139       30.2949503535  W2        27929           0.0000000000
     79419     26473  TIP3      H2             55.1522433595       24.8887577139       30.2752003535  W2        27929           0.0000000000
     79420     26474  TIP3      OH2            43.4143133595       25.8048277139       31.4072303535  W2        27930           0.0000000000
     79421     26474  TIP3      H1             44.0279433595       26.4375877139       31.7804703535  W2        27930           0.0000000000
     79422     26474  TIP3      H2             43.9263833595       25.3323277139       30.7509203535  W2        27930           0.0000000000
     79423     26475  TIP3      OH2            44.7971533595       33.5525177139       34.5295303535  W2        27931           0.0000000000
     79424     26475  TIP3      H1             44.7919133595       34.4318677139       34.1514603535  W2        27931           0.0000000000
     79425     26475  TIP3      H2             43.9435633595       33.4689277139       34.9545203535  W2        27931           0.0000000000
     79426     26476  TIP3      OH2            40.9182433595       33.2233077139       25.3114603535  W2        27932           0.0000000000
     79427     26476  TIP3      H1             40.6463333595       33.4524077139       24.4227503535  W2        27932           0.0000000000
     79428     26476  TIP3      H2             40.9638133595       34.0611877139       25.7719903535  W2        27932           0.0000000000
     79429     26477  TIP3      OH2            54.5432133595       34.8448977139       32.0243103535  W2        27933           0.0000000000
     79430     26477  TIP3      H1             53.6015833595       34.9032877139       32.1860003535  W2        27933           0.0000000000
     79431     26477  TIP3      H2             54.8198233595       35.7509477139       31.8872803535  W2        27933           0.0000000000
     79432     26478  TIP3      OH2            47.8470533595       21.2181577139       30.9075003535  W2        27934           0.0000000000
     79433     26478  TIP3      H1             47.7294733595       20.2697577139       30.8533303535  W2        27934           0.0000000000
     79434     26478  TIP3      H2             46.9920633595       21.5507677139       31.1806103535  W2        27934           0.0000000000
     79435     26479  TIP3      OH2            52.7953333595       36.6262477139       28.6494703535  W2        27935           0.0000000000
     79436     26479  TIP3      H1             53.2205633595       35.9190377139       28.1644303535  W2        27935           0.0000000000
     79437     26479  TIP3      H2             53.1123333595       37.4275177139       28.2326903535  W2        27935           0.0000000000
     79438     26480  TIP3      OH2            53.9549833595       34.5270977139       27.1581303535  W2        27936           0.0000000000
     79439     26480  TIP3      H1             53.6974633595       33.8371077139       26.5467203535  W2        27936           0.0000000000
     79440     26480  TIP3      H2             54.0260633595       34.0842177139       28.0037203535  W2        27936           0.0000000000
     79441     26481  TIP3      OH2            50.1135433595       30.0557177139       25.4080803535  W2        27937           0.0000000000
     79442     26481  TIP3      H1             49.4020933595       30.5906877139       25.0561303535  W2        27937           0.0000000000
     79443     26481  TIP3      H2             50.8045033595       30.1109277139       24.7479703535  W2        27937           0.0000000000
     79444     26482  TIP3      OH2            50.1674633595       28.5131477139       22.4465803535  W2        27938           0.0000000000
     79445     26482  TIP3      H1             50.8684533595       28.5358377139       23.0979803535  W2        27938           0.0000000000
     79446     26482  TIP3      H2             50.4697533595       27.8851177139       21.7905103535  W2        27938           0.0000000000
     79447     26483  TIP3      OH2            53.5193133595       30.2650477139       26.3596703535  W2        27939           0.0000000000
     79448     26483  TIP3      H1             52.7874133595       30.4934177139       26.9327303535  W2        27939           0.0000000000
     79449     26483  TIP3      H2             53.9665333595       29.5513177139       26.8144203535  W2        27939           0.0000000000
     79450     26484  TIP3      OH2            53.4166633595       28.4393077139       35.4273703535  W2        27940           0.0000000000
     79451     26484  TIP3      H1             53.4965733595       29.2027477139       35.9992203535  W2        27940           0.0000000000
     79452     26484  TIP3      H2             52.8154333595       28.7185477139       34.7368803535  W2        27940           0.0000000000
     79453     26485  TIP3      OH2            45.1646833595       30.8956677139       28.2421703535  W2        27941           0.0000000000
     79454     26485  TIP3      H1             44.8342033595       30.5250077139       27.4238703535  W2        27941           0.0000000000
     79455     26485  TIP3      H2             45.7530933595       30.2250677139       28.5890003535  W2        27941           0.0000000000
     79456     26486  TIP3      OH2            46.5314333595       34.3237277139       30.9233903535  W2        27942           0.0000000000
     79457     26486  TIP3      H1             46.4365633595       33.7450377139       30.1668503535  W2        27942           0.0000000000
     79458     26486  TIP3      H2             47.2607933595       33.9522977139       31.4196703535  W2        27942           0.0000000000
     79459     26487  TIP3      OH2            45.5312333595       29.6642277139       31.8756703535  W2        27943           0.0000000000
     79460     26487  TIP3      H1             46.0964833595       29.7856477139       31.1127903535  W2        27943           0.0000000000
     79461     26487  TIP3      H2             45.8501233595       30.3017277139       32.5145203535  W2        27943           0.0000000000
     79462     26488  TIP3      OH2            51.8404533595       35.1674177139       32.6097203535  W2        27944           0.0000000000
     79463     26488  TIP3      H1             51.6001133595       35.8297277139       33.2576403535  W2        27944           0.0000000000
     79464     26488  TIP3      H2             51.6422733595       34.3329377139       33.0346803535  W2        27944           0.0000000000
     79465     26489  TIP3      OH2            52.3902633595       29.4273377139       24.0447903535  W2        27946           0.0000000000
     79466     26489  TIP3      H1             52.9698133595       29.5773677139       24.7916803535  W2        27946           0.0000000000
     79467     26489  TIP3      H2             52.8042633595       29.8980777139       23.3214303535  W2        27946           0.0000000000
     79468     26490  TIP3      OH2            50.1167533595       36.1641877139       27.4801003535  W2        27948           0.0000000000
     79469     26490  TIP3      H1             50.5905133595       36.4598177139       28.2575203535  W2        27948           0.0000000000
     79470     26490  TIP3      H2             49.5536833595       36.9023477139       27.2470603535  W2        27948           0.0000000000
     79471     26491  TIP3      OH2            44.1549533595       29.9650977139       25.8314503535  W2        27950           0.0000000000
     79472     26491  TIP3      H1             43.8630833595       30.7332677139       25.3405803535  W2        27950           0.0000000000
     79473     26491  TIP3      H2             43.4804733595       29.3057177139       25.6685903535  W2        27950           0.0000000000
     79474     26492  TIP3      OH2            40.2479633595       32.3280177139       34.6464303535  W2        27951           0.0000000000
     79475     26492  TIP3      H1             39.7468033595       32.2999577139       33.8314003535  W2        27951           0.0000000000
     79476     26492  TIP3      H2             40.2533333595       31.4223377139       34.9561603535  W2        27951           0.0000000000
     79477     26493  TIP3      OH2            39.9982333595       35.1083977139       31.5304503535  W2        27952           0.0000000000
     79478     26493  TIP3      H1             40.9442933595       34.9640977139       31.5114003535  W2        27952           0.0000000000
     79479     26493  TIP3      H2             39.8858633595       35.8926777139       32.0675703535  W2        27952           0.0000000000
     79480     26494  TIP3      OH2            49.5890633595       39.1206577139       25.8950203535  W2        27954           0.0000000000
     79481     26494  TIP3      H1             49.5136633595       38.9993777139       24.9485403535  W2        27954           0.0000000000
     79482     26494  TIP3      H2             49.6219333595       40.0699277139       26.0134803535  W2        27954           0.0000000000
     79483     26495  TIP3      OH2            43.2424433595       37.9093577139       27.6759203535  W2        27955           0.0000000000
     79484     26495  TIP3      H1             43.3944833595       37.5613977139       28.5545703535  W2        27955           0.0000000000
     79485     26495  TIP3      H2             42.3914833595       37.5530877139       27.4206403535  W2        27955           0.0000000000
     79486     26496  TIP3      OH2            52.6906633595       38.2746777139       22.8972603535  W2        27956           0.0000000000
     79487     26496  TIP3      H1             53.0655033595       37.5302877139       22.4265203535  W2        27956           0.0000000000
     79488     26496  TIP3      H2             52.6950333595       38.0047377139       23.8155903535  W2        27956           0.0000000000
     79489     26497  TIP3      OH2            52.3594733595       38.2003877139       25.6464803535  W2        27957           0.0000000000
     79490     26497  TIP3      H1             51.4244533595       38.3005777139       25.8251803535  W2        27957           0.0000000000
     79491     26497  TIP3      H2             52.6396633595       37.4909877139       26.2248003535  W2        27957           0.0000000000
     79492     26498  TIP3      OH2            45.1158133595       22.1216077139       31.6851303535  W2        27959           0.0000000000
     79493     26498  TIP3      H1             44.2541833595       22.0344277139       31.2774203535  W2        27959           0.0000000000
     79494     26498  TIP3      H2             45.0933833595       22.9776177139       32.1128903535  W2        27959           0.0000000000
     79495     26499  TIP3      OH2            49.7785933595       21.8436477139       35.0598303535  W2        27960           0.0000000000
     79496     26499  TIP3      H1             50.1989033595       21.4283577139       35.8128903535  W2        27960           0.0000000000
     79497     26499  TIP3      H2             48.8455533595       21.6649777139       35.1770303535  W2        27960           0.0000000000
     79498     26500  TIP3      OH2            53.8675733595       30.4601677139       21.6745803535  W2        27962           0.0000000000
     79499     26500  TIP3      H1             53.9096533595       30.2375577139       20.7445803535  W2        27962           0.0000000000
     79500     26500  TIP3      H2             54.7167833595       30.8588777139       21.8645703535  W2        27962           0.0000000000
     79501     26501  TIP3      OH2            49.4403233595       24.3359877139       22.3449103535  W2        27963           0.0000000000
     79502     26501  TIP3      H1             49.1868033595       24.3551477139       23.2677203535  W2        27963           0.0000000000
     79503     26501  TIP3      H2             49.1835333595       23.4645277139       22.0435303535  W2        27963           0.0000000000
     79504     26502  TIP3      OH2            45.2068233595       27.0870577139       32.7801503535  W2        27964           0.0000000000
     79505     26502  TIP3      H1             44.5650333595       27.0467877139       33.4891603535  W2        27964           0.0000000000
     79506     26502  TIP3      H2             45.2440233595       28.0135277139       32.5424503535  W2        27964           0.0000000000
     79507     26503  TIP3      OH2            45.2037333595       27.3080677139       27.6921503535  W2        27965           0.0000000000
     79508     26503  TIP3      H1             44.3110233595       26.9676777139       27.6335303535  W2        27965           0.0000000000
     79509     26503  TIP3      H2             45.6543933595       26.9311577139       26.9364703535  W2        27965           0.0000000000
     79510     26504  TIP3      OH2            50.7392833595       27.7240977139       26.5092303535  W2        27966           0.0000000000
     79511     26504  TIP3      H1             50.3303133595       28.5389577139       26.2177103535  W2        27966           0.0000000000
     79512     26504  TIP3      H2             51.4599033595       27.5841077139       25.8949403535  W2        27966           0.0000000000
     79513     26505  TIP3      OH2            51.7440533595       27.1701377139       29.3232003535  W2        27968           0.0000000000
     79514     26505  TIP3      H1             51.5485033595       27.7758177139       28.6082603535  W2        27968           0.0000000000
     79515     26505  TIP3      H2             51.9253133595       26.3366577139       28.8888303535  W2        27968           0.0000000000
     79516     26506  TIP3      OH2            42.9568733595       27.4074077139       34.6473503535  W2        27969           0.0000000000
     79517     26506  TIP3      H1             42.9188133595       27.8075677139       35.5160603535  W2        27969           0.0000000000
     79518     26506  TIP3      H2             42.4659833595       26.5906477139       34.7376403535  W2        27969           0.0000000000
     79519     26507  TIP3      OH2            46.3226133595       24.7816377139       21.4459503535  W2        27970           0.0000000000
     79520     26507  TIP3      H1             45.8916833595       24.3366477139       22.1756903535  W2        27970           0.0000000000
     79521     26507  TIP3      H2             45.6044833595       25.1532677139       20.9337003535  W2        27970           0.0000000000
     79522     26508  TIP3      OH2            39.5649533595       24.5235877139       28.4978203535  W2        27971           0.0000000000
     79523     26508  TIP3      H1             40.1957233595       24.4947977139       29.2172103535  W2        27971           0.0000000000
     79524     26508  TIP3      H2             40.0143833595       24.0984577139       27.7674103535  W2        27971           0.0000000000
     79525     26509  TIP3      OH2            40.8391633595       25.2697877139       23.9218603535  W2        27972           0.0000000000
     79526     26509  TIP3      H1             41.3133333595       25.8607777139       23.3369503535  W2        27972           0.0000000000
     79527     26509  TIP3      H2             40.1218033595       25.8000777139       24.2688703535  W2        27972           0.0000000000
     79528     26510  TIP3      OH2            51.0079733595       28.8082677139       33.9944403535  W2        27973           0.0000000000
     79529     26510  TIP3      H1             51.3314533595       28.1772377139       33.3514903535  W2        27973           0.0000000000
     79530     26510  TIP3      H2             50.5679033595       28.2734877139       34.6551803535  W2        27973           0.0000000000
     79531     26511  TIP3      OH2            47.7852633595       24.7358177139       28.7785603535  W2        27974           0.0000000000
     79532     26511  TIP3      H1             46.8743733595       24.7924977139       29.0671603535  W2        27974           0.0000000000
     79533     26511  TIP3      H2             48.2905533595       24.6753677139       29.5892803535  W2        27974           0.0000000000
     79534     26512  TIP3      OH2            42.6136033595       26.3644477139       27.6053203535  W2        27975           0.0000000000
     79535     26512  TIP3      H1             41.7244033595       26.4639977139       27.2652803535  W2        27975           0.0000000000
     79536     26512  TIP3      H2             42.9100933595       25.5227477139       27.2591103535  W2        27975           0.0000000000
     79537     26513  TIP3      OH2            46.2667833595       26.3647077139       25.2617803535  W2        27976           0.0000000000
     79538     26513  TIP3      H1             47.1983333595       26.4937077139       25.4400903535  W2        27976           0.0000000000
     79539     26513  TIP3      H2             46.0518133595       27.0341377139       24.6122503535  W2        27976           0.0000000000
     79540     26514  TIP3      OH2            52.1904533595       23.9704477139       32.0427403535  W2        27977           0.0000000000
     79541     26514  TIP3      H1             51.5136133595       24.1017577139       32.7067103535  W2        27977           0.0000000000
     79542     26514  TIP3      H2             51.7049433595       23.8153977139       31.2325103535  W2        27977           0.0000000000
     79543     26515  TIP3      OH2            44.9408033595       27.5589277139       22.8283903535  W2        27978           0.0000000000
     79544     26515  TIP3      H1             44.3983133595       27.1793077139       22.1371503535  W2        27978           0.0000000000
     79545     26515  TIP3      H2             45.7742933595       27.7533977139       22.3998003535  W2        27978           0.0000000000
     79546     26516  TIP3      OH2            49.1052333595       27.5231177139       30.6655203535  W2        27980           0.0000000000
     79547     26516  TIP3      H1             49.6695733595       26.9767777139       30.1184803535  W2        27980           0.0000000000
     79548     26516  TIP3      H2             48.9575733595       27.0013077139       31.4542803535  W2        27980           0.0000000000
     79549     26517  TIP3      OH2            44.1072033595       23.6597277139       27.0840003535  W2        27981           0.0000000000
     79550     26517  TIP3      H1             43.7901533595       22.7572577139       27.0485403535  W2        27981           0.0000000000
     79551     26517  TIP3      H2             44.8886133595       23.6614677139       26.5311603535  W2        27981           0.0000000000
     79552     26518  TIP3      OH2            47.7318233595       25.9117277139       33.0795603535  W2        27982           0.0000000000
     79553     26518  TIP3      H1             46.8963533595       26.3656777139       33.1898003535  W2        27982           0.0000000000
     79554     26518  TIP3      H2             48.2558833595       26.1875777139       33.8315503535  W2        27982           0.0000000000
     79555     26519  TIP3      OH2            48.2760833595       32.1244977139       24.7642003535  W2        27983           0.0000000000
     79556     26519  TIP3      H1             47.5311833595       31.6170277139       24.4419903535  W2        27983           0.0000000000
     79557     26519  TIP3      H2             48.1418033595       32.1732977139       25.7106803535  W2        27983           0.0000000000
     79558     26520  TIP3      OH2            52.1737633595       24.9384877139       22.9634603535  W2        27984           0.0000000000
     79559     26520  TIP3      H1             51.2351833595       25.0500477139       22.8123403535  W2        27984           0.0000000000
     79560     26520  TIP3      H2             52.4709733595       25.7951777139       23.2700303535  W2        27984           0.0000000000
     79561     26521  TIP3      OH2            52.8921133595       26.8057577139       24.6242003535  W2        27986           0.0000000000
     79562     26521  TIP3      H1             53.7840133595       26.6682577139       24.9433203535  W2        27986           0.0000000000
     79563     26521  TIP3      H2             52.9484733595       27.5963677139       24.0875503535  W2        27986           0.0000000000
     79564     26522  TIP3      OH2            43.4009133595       31.4194977139       30.5339903535  W2        27987           0.0000000000
     79565     26522  TIP3      H1             44.1456333595       31.4170677139       29.9326403535  W2        27987           0.0000000000
     79566     26522  TIP3      H2             43.4785733595       30.5958777139       31.0155003535  W2        27987           0.0000000000
     79567     26523  TIP3      OH2            50.4014933595       33.5829277139       23.7896603535  W2        27988           0.0000000000
     79568     26523  TIP3      H1             50.1063333595       34.4097177139       24.1711403535  W2        27988           0.0000000000
     79569     26523  TIP3      H2             49.6984933595       32.9636177139       23.9858003535  W2        27988           0.0000000000
     79570     26524  TIP3      OH2            53.2325433595       30.6091577139       31.8052703535  W2        27992           0.0000000000
     79571     26524  TIP3      H1             52.3042333595       30.3773477139       31.7782003535  W2        27992           0.0000000000
     79572     26524  TIP3      H2             53.6836533595       29.8321377139       31.4751503535  W2        27992           0.0000000000
     79573     26525  TIP3      OH2            45.7758533595       34.9373177139       27.9381403535  W2        27993           0.0000000000
     79574     26525  TIP3      H1             46.3030733595       35.7107577139       27.7380203535  W2        27993           0.0000000000
     79575     26525  TIP3      H2             44.8957033595       35.1622377139       27.6365403535  W2        27993           0.0000000000
     79576     26526  TIP3      OH2            41.5306233595       29.7997277139       22.5253803535  W2        27994           0.0000000000
     79577     26526  TIP3      H1             42.1466133595       30.4264477139       22.9048603535  W2        27994           0.0000000000
     79578     26526  TIP3      H2             40.6688833595       30.1157077139       22.7970303535  W2        27994           0.0000000000
     79579     26527  TIP3      OH2            47.2030833595       32.6003077139       27.5145703535  W2        27995           0.0000000000
     79580     26527  TIP3      H1             46.9620833595       33.5257477139       27.5561003535  W2        27995           0.0000000000
     79581     26527  TIP3      H2             46.4624433595       32.1414377139       27.9109603535  W2        27995           0.0000000000
     79582     26528  TIP3      OH2            47.7177433595       36.7496677139       33.8296803535  W2        27996           0.0000000000
     79583     26528  TIP3      H1             48.0802133595       37.6042277139       33.5961203535  W2        27996           0.0000000000
     79584     26528  TIP3      H2             48.2492633595       36.4578277139       34.5703103535  W2        27996           0.0000000000
     79585     26529  TIP3      OH2            45.8861633595       37.6220677139       27.0597903535  W2        27997           0.0000000000
     79586     26529  TIP3      H1             44.9362133595       37.7278077139       27.1111203535  W2        27997           0.0000000000
     79587     26529  TIP3      H2             46.2379733595       38.4428077139       27.4045403535  W2        27997           0.0000000000
     79588     26530  TIP3      OH2            51.2618233595       32.8487377139       33.5302403535  W2        27998           0.0000000000
     79589     26530  TIP3      H1             50.8359533595       32.6209077139       34.3566403535  W2        27998           0.0000000000
     79590     26530  TIP3      H2             51.8424033595       32.1099177139       33.3477703535  W2        27998           0.0000000000
     79591     26531  TIP3      OH2            53.4647133595       33.7777877139       22.6041403535  W2        27999           0.0000000000
     79592     26531  TIP3      H1             53.8180233595       33.3977677139       23.4084903535  W2        27999           0.0000000000
     79593     26531  TIP3      H2             52.5160633595       33.6842677139       22.6910703535  W2        27999           0.0000000000
     79594     26532  TIP3      OH2            42.0428333595       24.6334577139       35.4069803535  W2        28001           0.0000000000
     79595     26532  TIP3      H1             41.1500633595       24.9719977139       35.3393803535  W2        28001           0.0000000000
     79596     26532  TIP3      H2             41.9441133595       23.7780677139       35.8250603535  W2        28001           0.0000000000
     79597     26533  TIP3      OH2            54.3306433595       32.4499877139       24.8309303535  W2        28002           0.0000000000
     79598     26533  TIP3      H1             54.0534033595       31.7219177139       25.3870403535  W2        28002           0.0000000000
     79599     26533  TIP3      H2             55.2579433595       32.5691877139       25.0361903535  W2        28002           0.0000000000
     79600     26534  TIP3      OH2            41.6940333595       36.4378977139       33.8419203535  W2        28003           0.0000000000
     79601     26534  TIP3      H1             41.9110633595       35.5061377139       33.8108903535  W2        28003           0.0000000000
     79602     26534  TIP3      H2             41.9403833595       36.7123977139       34.7252003535  W2        28003           0.0000000000
     79603     26535  TIP3      OH2            47.5554933595       34.8893977139       21.0511403535  W2        28004           0.0000000000
     79604     26535  TIP3      H1             47.7944733595       34.1412077139       20.5040303535  W2        28004           0.0000000000
     79605     26535  TIP3      H2             47.2866233595       34.5015677139       21.8839203535  W2        28004           0.0000000000
     79606     26536  TIP3      OH2            46.4925533595       34.4597777139       23.5074003535  W2        28005           0.0000000000
     79607     26536  TIP3      H1             46.6393533595       33.9397577139       24.2974903535  W2        28005           0.0000000000
     79608     26536  TIP3      H2             46.4897233595       35.3665377139       23.8139903535  W2        28005           0.0000000000
     79609     26537  TIP3      OH2            42.9456633595       31.7121077139       24.0179403535  W2        28006           0.0000000000
     79610     26537  TIP3      H1             42.2595933595       32.0643577139       24.5849103535  W2        28006           0.0000000000
     79611     26537  TIP3      H2             43.4684533595       32.4750677139       23.7713703535  W2        28006           0.0000000000
     79612     26538  TIP3      OH2            50.7771733595       24.3744877139       34.2968403535  W2        28007           0.0000000000
     79613     26538  TIP3      H1             51.4759633595       24.4483577139       34.9468103535  W2        28007           0.0000000000
     79614     26538  TIP3      H2             50.3963133595       23.5099877139       34.4511303535  W2        28007           0.0000000000
     79615     26539  TIP3      OH2            51.5616633595       24.0266577139       25.3940703535  W2        28008           0.0000000000
     79616     26539  TIP3      H1             51.7814933595       24.4981977139       24.5906103535  W2        28008           0.0000000000
     79617     26539  TIP3      H2             52.1200633595       24.4209177139       26.0641303535  W2        28008           0.0000000000
     79618     26540  TIP3      OH2            49.2302733595       36.1571377139       24.2568203535  W2        28009           0.0000000000
     79619     26540  TIP3      H1             48.4138833595       36.6541077139       24.3092503535  W2        28009           0.0000000000
     79620     26540  TIP3      H2             49.7599033595       36.6324877139       23.6167003535  W2        28009           0.0000000000
     79621     26541  TIP3      OH2            48.7616533595       25.7545377139       26.2289103535  W2        28010           0.0000000000
     79622     26541  TIP3      H1             49.5739133595       26.2588577139       26.2750803535  W2        28010           0.0000000000
     79623     26541  TIP3      H2             48.5169533595       25.6095077139       27.1428703535  W2        28010           0.0000000000
     79624     26542  TIP3      OH2            49.2972933595       26.7408077139       35.4135703535  W2        28011           0.0000000000
     79625     26542  TIP3      H1             49.4163233595       27.3143477139       36.1706103535  W2        28011           0.0000000000
     79626     26542  TIP3      H2             49.9527533595       26.0527477139       35.5283503535  W2        28011           0.0000000000
     79627     26543  TIP3      OH2            49.6453233595       22.8358377139       27.1670203535  W2        28012           0.0000000000
     79628     26543  TIP3      H1             49.2986733595       23.4528977139       27.8114503535  W2        28012           0.0000000000
     79629     26543  TIP3      H2             50.3040133595       23.3364077139       26.6855703535  W2        28012           0.0000000000
     79630     26544  TIP3      OH2            46.5685833595       37.2008577139       24.2385103535  W2        28013           0.0000000000
     79631     26544  TIP3      H1             46.7294533595       38.0006077139       23.7377703535  W2        28013           0.0000000000
     79632     26544  TIP3      H2             46.3713633595       37.5074577139       25.1235703535  W2        28013           0.0000000000
     79633     26545  TIP3      OH2            45.3030233595       23.8987777139       23.8542703535  W2        28014           0.0000000000
     79634     26545  TIP3      H1             45.2195033595       24.7870877139       24.2009103535  W2        28014           0.0000000000
     79635     26545  TIP3      H2             46.1930533595       23.6334477139       24.0859503535  W2        28014           0.0000000000
     79636     26546  TIP3      OH2            54.1039733595       28.3979377139       30.3442703535  W2        28015           0.0000000000
     79637     26546  TIP3      H1             53.3064133595       27.9829577139       30.0157703535  W2        28015           0.0000000000
     79638     26546  TIP3      H2             54.5490833595       27.7073077139       30.8353203535  W2        28015           0.0000000000
     79639     26547  TIP3      OH2            43.5615533595       34.3259977139       22.9147203535  W2        28016           0.0000000000
     79640     26547  TIP3      H1             44.1537033595       35.0254777139       23.1909603535  W2        28016           0.0000000000
     79641     26547  TIP3      H2             44.0208533595       33.8929477139       22.1951803535  W2        28016           0.0000000000
     79642     26548  TIP3      OH2            41.8774733595       26.9902977139       22.0306603535  W2        28017           0.0000000000
     79643     26548  TIP3      H1             41.8327333595       27.9296077139       22.2093603535  W2        28017           0.0000000000
     79644     26548  TIP3      H2             40.9897933595       26.7547877139       21.7608703535  W2        28017           0.0000000000
     79645     26549  TIP3      OH2            42.6856733595       21.7719577139       30.7037603535  W2        28018           0.0000000000
     79646     26549  TIP3      H1             42.4566533595       21.8312077139       29.7762603535  W2        28018           0.0000000000
     79647     26549  TIP3      H2             42.2430133595       20.9805077139       31.0101703535  W2        28018           0.0000000000
     79648     26550  TIP3      OH2            41.6160033595       35.7126677139       26.8643403535  W2        28019           0.0000000000
     79649     26550  TIP3      H1             40.7838633595       36.1849377139       26.8914803535  W2        28019           0.0000000000
     79650     26550  TIP3      H2             42.1618333595       36.2224277139       26.2656503535  W2        28019           0.0000000000
     79651     26551  TIP3      OH2            49.5936733595       36.7525377139       21.1897403535  W2        28022           0.0000000000
     79652     26551  TIP3      H1             48.9497733595       36.1213977139       21.5111103535  W2        28022           0.0000000000
     79653     26551  TIP3      H2             50.3555033595       36.2213377139       20.9580903535  W2        28022           0.0000000000
     79654     26552  TIP3      OH2            54.1979633595       36.5695277139       21.4235403535  W2        28024           0.0000000000
     79655     26552  TIP3      H1             54.4810033595       35.7750477139       21.8762303535  W2        28024           0.0000000000
     79656     26552  TIP3      H2             54.9377533595       36.8026277139       20.8626503535  W2        28024           0.0000000000
     79657     26553  TIP3      OH2            45.1526933595       32.4790177139       21.2810303535  W2        28026           0.0000000000
     79658     26553  TIP3      H1             45.2171033595       31.6849777139       21.8116703535  W2        28026           0.0000000000
     79659     26553  TIP3      H2             45.8056133595       32.3602977139       20.5912303535  W2        28026           0.0000000000
     79660     26554  TIP3      OH2            50.5050333595       33.5261877139       21.0168303535  W2        28028           0.0000000000
     79661     26554  TIP3      H1             50.2364433595       33.7063977139       21.9177203535  W2        28028           0.0000000000
     79662     26554  TIP3      H2             50.2985933595       32.6008077139       20.8854103535  W2        28028           0.0000000000
     79663     26555  TIP3      OH2            46.3020733595       30.4516377139       23.5868303535  W2        28031           0.0000000000
     79664     26555  TIP3      H1             45.8422733595       29.9674677139       24.2726803535  W2        28031           0.0000000000
     79665     26555  TIP3      H2             46.5569433595       29.7831777139       22.9508803535  W2        28031           0.0000000000
     79666     26556  TIP3      OH2            47.3731133595       28.6948177139       21.8491503535  W2        28033           0.0000000000
     79667     26556  TIP3      H1             47.1926133595       28.5399377139       20.9219803535  W2        28033           0.0000000000
     79668     26556  TIP3      H2             48.3231633595       28.8026877139       21.8939403535  W2        28033           0.0000000000
     79669     26557  TIP3      OH2            46.3429433595       24.0690077139       34.5178403535  W2        28036           0.0000000000
     79670     26557  TIP3      H1             46.8786933595       24.5206777139       33.8657703535  W2        28036           0.0000000000
     79671     26557  TIP3      H2             45.4909033595       23.9609877139       34.0952503535  W2        28036           0.0000000000
     79672     26558  TIP3      OH2            47.9247833595       29.5086277139       34.7573603535  W2        28037           0.0000000000
     79673     26558  TIP3      H1             48.6752633595       29.3523777139       34.1841403535  W2        28037           0.0000000000
     79674     26558  TIP3      H2             47.5856133595       30.3602877139       34.4819103535  W2        28037           0.0000000000
     79675     26559  TIP3      OH2            47.1484933595       21.5255777139       34.9492003535  W2        28041           0.0000000000
     79676     26559  TIP3      H1             47.0504533595       22.4718977139       34.8438203535  W2        28041           0.0000000000
     79677     26559  TIP3      H2             46.4061133595       21.1529577139       34.4735503535  W2        28041           0.0000000000
     79678     26560  TIP3      OH2            47.2702833595       39.3851877139       22.8505103535  W2        28048           0.0000000000
     79679     26560  TIP3      H1             48.2033533595       39.5430577139       22.9943503535  W2        28048           0.0000000000
     79680     26560  TIP3      H2             47.0061633595       40.0604877139       22.2256603535  W2        28048           0.0000000000
     79681     26561  TIP3      OH2            40.8387733595       34.0215677139       22.3333203535  W2        28049           0.0000000000
     79682     26561  TIP3      H1             41.7526933595       34.1004577139       22.6067103535  W2        28049           0.0000000000
     79683     26561  TIP3      H2             40.8460833595       33.3345277139       21.6668803535  W2        28049           0.0000000000
     79684     26562  TIP3      OH2            39.4878333595       39.4144177139       27.4107103535  W2        28050           0.0000000000
     79685     26562  TIP3      H1             38.8405433595       38.9525877139       26.8778303535  W2        28050           0.0000000000
     79686     26562  TIP3      H2             39.8422933595       38.7427477139       27.9933303535  W2        28050           0.0000000000
     79687     26563  TIP3      OH2            40.3577533595       37.4951177139       29.2153303535  W2        28051           0.0000000000
     79688     26563  TIP3      H1             40.0234333595       36.6148477139       29.3873503535  W2        28051           0.0000000000
     79689     26563  TIP3      H2             40.5799933595       37.8406177139       30.0798903535  W2        28051           0.0000000000
     79690     26564  TIP3      OH2            40.4377033595       30.5706577139       31.6668203535  W2        28052           0.0000000000
     79691     26564  TIP3      H1             40.6219933595       30.4888277139       30.7311103535  W2        28052           0.0000000000
     79692     26564  TIP3      H2             41.2869933595       30.4463577139       32.0904603535  W2        28052           0.0000000000
     79693     26565  TIP3      OH2            41.2564333595       24.1533177139       30.6989903535  W2        28054           0.0000000000
     79694     26565  TIP3      H1             41.7015933595       23.3615677139       31.0009603535  W2        28054           0.0000000000
     79695     26565  TIP3      H2             41.7227333595       24.8698377139       31.1295503535  W2        28054           0.0000000000
     79696     26566  TIP3      OH2            39.5604633595       27.1526177139       31.7680103535  W2        28055           0.0000000000
     79697     26566  TIP3      H1             40.0524433595       26.9316677139       30.9772103535  W2        28055           0.0000000000
     79698     26566  TIP3      H2             39.9225533595       27.9929577139       32.0489603535  W2        28055           0.0000000000
     79699     26567  TIP3      OH2            39.8741133595       23.4105277139       25.8222503535  W2        28056           0.0000000000
     79700     26567  TIP3      H1             38.9489533595       23.6191877139       25.6928003535  W2        28056           0.0000000000
     79701     26567  TIP3      H2             40.3281033595       23.8946077139       25.1324803535  W2        28056           0.0000000000
     79702     26568  TIP3      OH2            54.6448333595       38.3946977139       27.7679903535  W2        28057           0.0000000000
     79703     26568  TIP3      H1             55.2971233595       38.0469077139       27.1599003535  W2        28057           0.0000000000
     79704     26568  TIP3      H2             55.1552133595       38.8830177139       28.4139603535  W2        28057           0.0000000000
     79705     26569  TIP3      OH2            39.8376533595       22.1484277139       34.1665003535  W2        28058           0.0000000000
     79706     26569  TIP3      H1             39.1727033595       21.9024577139       34.8095903535  W2        28058           0.0000000000
     79707     26569  TIP3      H2             39.3947833595       22.7704677139       33.5893003535  W2        28058           0.0000000000
     79708     26570  TIP3      OH2            44.9838733595       36.2979577139       34.5694803535  W2        28060           0.0000000000
     79709     26570  TIP3      H1             44.5589833595       37.1078077139       34.2869403535  W2        28060           0.0000000000
     79710     26570  TIP3      H2             45.8881533595       36.3833677139       34.2674603535  W2        28060           0.0000000000
     79711     26571  TIP3      OH2            42.3855433595       39.5543477139       34.6170103535  W2        28063           0.0000000000
     79712     26571  TIP3      H1             41.6651833595       39.9944477139       34.1657803535  W2        28063           0.0000000000
     79713     26571  TIP3      H2             42.0199433595       39.3038177139       35.4654103535  W2        28063           0.0000000000
     79714     26572  TIP3      OH2            44.8528033595       39.1547377139       33.6467303535  W2        28064           0.0000000000
     79715     26572  TIP3      H1             43.9880233595       39.2265877139       34.0507403535  W2        28064           0.0000000000
     79716     26572  TIP3      H2             44.7977033595       39.7014677139       32.8629803535  W2        28064           0.0000000000
     79717     26573  TIP3      OH2            49.5633633595       39.0426277139       32.8223303535  W2        28065           0.0000000000
     79718     26573  TIP3      H1             49.1067633595       39.5715977139       32.1681703535  W2        28065           0.0000000000
     79719     26573  TIP3      H2             49.7261633595       39.6457677139       33.5475603535  W2        28065           0.0000000000
     79720     26574  TIP3      OH2            51.8909933595       37.9205877139       33.7673603535  W2        28066           0.0000000000
     79721     26574  TIP3      H1             50.9863633595       38.0856077139       33.5015703535  W2        28066           0.0000000000
     79722     26574  TIP3      H2             52.3198533595       38.7738077139       33.7017003535  W2        28066           0.0000000000
     79723     26575  TIP3      OH2            54.4951833595       39.4904977139       34.0621403535  W2        28067           0.0000000000
     79724     26575  TIP3      H1             54.3133833595       40.4063877139       33.8516303535  W2        28067           0.0000000000
     79725     26575  TIP3      H2             54.6719633595       39.0802077139       33.2156003535  W2        28067           0.0000000000
     79726     26576  TIP3      OH2            41.8003533595       38.1775977139       31.5271903535  W2        28068           0.0000000000
     79727     26576  TIP3      H1             41.7819533595       37.7521077139       32.3844203535  W2        28068           0.0000000000
     79728     26576  TIP3      H2             42.6051433595       37.8590977139       31.1184103535  W2        28068           0.0000000000
     79729     26577  TIP3      OH2            43.9416633595       36.8874677139       30.1821803535  W2        28069           0.0000000000
     79730     26577  TIP3      H1             43.7227333595       35.9712077139       30.3517803535  W2        28069           0.0000000000
     79731     26577  TIP3      H2             44.7658833595       37.0275077139       30.6483203535  W2        28069           0.0000000000
     79732     26578  TIP3      OH2            46.4789133595       37.3573977139       31.0309803535  W2        28070           0.0000000000
     79733     26578  TIP3      H1             46.6914833595       36.4692977139       30.7440703535  W2        28070           0.0000000000
     79734     26578  TIP3      H2             46.5434233595       37.3231677139       31.9853803535  W2        28070           0.0000000000
     79735     26579  TIP3      OH2            49.9872833595       23.0214577139       30.1753103535  W2        28071           0.0000000000
     79736     26579  TIP3      H1             49.3129633595       22.3920177139       30.4308903535  W2        28071           0.0000000000
     79737     26579  TIP3      H2             50.5512033595       22.5373477139       29.5721003535  W2        28071           0.0000000000
     79738     26580  TIP3      OH2            42.3140333595       21.6554877139       27.9973003535  W2        28072           0.0000000000
     79739     26580  TIP3      H1             41.5370133595       21.4209777139       27.4898903535  W2        28072           0.0000000000
     79740     26580  TIP3      H2             42.8443933595       20.8586977139       28.0061003535  W2        28072           0.0000000000
     79741     26581  TIP3      OH2            41.1503733595       21.4532977139       23.8009103535  W2        28073           0.0000000000
     79742     26581  TIP3      H1             41.5894433595       22.0643477139       23.2092603535  W2        28073           0.0000000000
     79743     26581  TIP3      H2             40.5166133595       21.9917077139       24.2749103535  W2        28073           0.0000000000
     79744     26582  TIP3      OH2            46.8932933595       21.5821977139       27.8106103535  W2        28074           0.0000000000
     79745     26582  TIP3      H1             47.7676333595       21.9706277139       27.7810403535  W2        28074           0.0000000000
     79746     26582  TIP3      H2             46.7573733595       21.3669777139       28.7333303535  W2        28074           0.0000000000
     79747     26583  TIP3      OH2            52.4501333595       21.6121777139       29.4597803535  W2        28075           0.0000000000
     79748     26583  TIP3      H1             52.5262933595       21.7073377139       28.5103803535  W2        28075           0.0000000000
     79749     26583  TIP3      H2             52.1750533595       20.7044677139       29.5886903535  W2        28075           0.0000000000
     79750     26584  TIP3      OH2            53.8033933595       21.6379577139       25.1522803535  W2        28076           0.0000000000
     79751     26584  TIP3      H1             53.1005033595       22.2528777139       24.9424203535  W2        28076           0.0000000000
     79752     26584  TIP3      H2             53.3585333595       20.8006277139       25.2833703535  W2        28076           0.0000000000
     79753     26585  TIP3      OH2            41.0513233595       37.4015177139       24.6984203535  W2        28077           0.0000000000
     79754     26585  TIP3      H1             40.3663133595       37.3634077139       24.0309303535  W2        28077           0.0000000000
     79755     26585  TIP3      H2             41.0550433595       38.3142777139       24.9866303535  W2        28077           0.0000000000
     79756     26586  TIP3      OH2            43.0112833595       23.3694477139       22.2433203535  W2        28078           0.0000000000
     79757     26586  TIP3      H1             43.5026233595       22.7396877139       21.7158703535  W2        28078           0.0000000000
     79758     26586  TIP3      H2             43.6349133595       23.6653877139       22.9064403535  W2        28078           0.0000000000
     79759     26587  TIP3      OH2            48.0372933595       23.6625977139       24.7003703535  W2        28079           0.0000000000
     79760     26587  TIP3      H1             48.2154233595       23.0159177139       25.3832303535  W2        28079           0.0000000000
     79761     26587  TIP3      H2             47.9839133595       24.4963677139       25.1674803535  W2        28079           0.0000000000
     79762     26588  TIP3      OH2            49.9156733595       38.6110077139       23.0960403535  W2        28080           0.0000000000
     79763     26588  TIP3      H1             50.7816933595       38.9777477139       22.9178603535  W2        28080           0.0000000000
     79764     26588  TIP3      H2             49.6689533595       38.1718077139       22.2821203535  W2        28080           0.0000000000
     79765     26589  TIP3      OH2            42.8694433595       38.3215977139       21.7236303535  W2        28083           0.0000000000
     79766     26589  TIP3      H1             42.6019033595       38.6078877139       22.5969403535  W2        28083           0.0000000000
     79767     26589  TIP3      H2             43.6407033595       37.7755177139       21.8758803535  W2        28083           0.0000000000
     79768     26590  TIP3      OH2           -42.8877066405       49.6677177139       27.9560503535  W2        28085           0.0000000000
     79769     26590  TIP3      H1            -42.7985966405       50.6115377139       27.8237603535  W2        28085           0.0000000000
     79770     26590  TIP3      H2            -43.5259466405       49.3923577139       27.2979903535  W2        28085           0.0000000000
     79771     26591  TIP3      OH2           -43.9545766405       48.9227877139       31.3748703535  W2        28086           0.0000000000
     79772     26591  TIP3      H1            -43.9928266405       48.2764177139       32.0798303535  W2        28086           0.0000000000
     79773     26591  TIP3      H2            -44.2769266405       48.4562277139       30.6037403535  W2        28086           0.0000000000
     79774     26592  TIP3      OH2           -51.5860766405       48.5369977139       32.9678603535  W2        28087           0.0000000000
     79775     26592  TIP3      H1            -51.5448666405       47.9113277139       33.6911003535  W2        28087           0.0000000000
     79776     26592  TIP3      H2            -50.8833066405       49.1608577139       33.1499003535  W2        28087           0.0000000000
     79777     26593  TIP3      OH2           -40.2485566405       51.8618277139       29.6763803535  W2        28088           0.0000000000
     79778     26593  TIP3      H1            -40.6892866405       51.1414277139       30.1269403535  W2        28088           0.0000000000
     79779     26593  TIP3      H2            -40.2615866405       52.5825477139       30.3061503535  W2        28088           0.0000000000
     79780     26594  TIP3      OH2           -50.6627666405       52.9868877139       31.5027703535  W2        28089           0.0000000000
     79781     26594  TIP3      H1            -51.0322466405       52.1849377139       31.1332003535  W2        28089           0.0000000000
     79782     26594  TIP3      H2            -49.7216566405       52.8183777139       31.5491103535  W2        28089           0.0000000000
     79783     26595  TIP3      OH2           -54.0527166405       46.6471477139       26.8956503535  W2        28090           0.0000000000
     79784     26595  TIP3      H1            -54.5003766405       47.4930177139       26.8773003535  W2        28090           0.0000000000
     79785     26595  TIP3      H2            -54.6135966405       46.0675677139       26.3801603535  W2        28090           0.0000000000
     79786     26596  TIP3      OH2           -53.3421066405       48.8091077139       29.0214503535  W2        28091           0.0000000000
     79787     26596  TIP3      H1            -53.1287566405       48.0392677139       29.5487503535  W2        28091           0.0000000000
     79788     26596  TIP3      H2            -52.6043466405       48.8987777139       28.4182103535  W2        28091           0.0000000000
     79789     26597  TIP3      OH2           -45.5651366405       51.3549277139       31.7809703535  W2        28092           0.0000000000
     79790     26597  TIP3      H1            -45.2613466405       50.6690677139       31.1863803535  W2        28092           0.0000000000
     79791     26597  TIP3      H2            -44.8437366405       51.4737977139       32.3987703535  W2        28092           0.0000000000
     79792     26598  TIP3      OH2           -36.9021566405       42.9564577139       32.6415903535  W2        28093           0.0000000000
     79793     26598  TIP3      H1            -36.8529366405       43.5665777139       33.3775003535  W2        28093           0.0000000000
     79794     26598  TIP3      H2            -36.4766466405       43.4175477139       31.9187003535  W2        28093           0.0000000000
     79795     26599  TIP3      OH2           -42.4244366405       45.7491677139       32.1084503535  W2        28094           0.0000000000
     79796     26599  TIP3      H1            -42.2818466405       44.8028677139       32.1286103535  W2        28094           0.0000000000
     79797     26599  TIP3      H2            -42.5305366405       45.9561477139       31.1799403535  W2        28094           0.0000000000
     79798     26600  TIP3      OH2           -49.2696066405       43.8508077139       29.3809303535  W2        28095           0.0000000000
     79799     26600  TIP3      H1            -49.2264966405       44.7106577139       28.9625603535  W2        28095           0.0000000000
     79800     26600  TIP3      H2            -49.7271966405       43.2982777139       28.7472503535  W2        28095           0.0000000000
     79801     26601  TIP3      OH2           -41.5473366405       43.9813677139       27.7817603535  W2        28096           0.0000000000
     79802     26601  TIP3      H1            -40.9009066405       43.6526877139       28.4065203535  W2        28096           0.0000000000
     79803     26601  TIP3      H2            -41.0373966405       44.4992677139       27.1589003535  W2        28096           0.0000000000
     79804     26602  TIP3      OH2           -52.6494566405       46.2473877139       30.1430703535  W2        28097           0.0000000000
     79805     26602  TIP3      H1            -51.9957966405       45.6975577139       30.5750803535  W2        28097           0.0000000000
     79806     26602  TIP3      H2            -52.6255266405       45.9732877139       29.2262703535  W2        28097           0.0000000000
     79807     26603  TIP3      OH2           -47.4930066405       47.7975177139       29.3582203535  W2        28098           0.0000000000
     79808     26603  TIP3      H1            -46.8769066405       47.2710577139       29.8676203535  W2        28098           0.0000000000
     79809     26603  TIP3      H2            -48.0791266405       47.1573877139       28.9545803535  W2        28098           0.0000000000
     79810     26604  TIP3      OH2           -36.5106966405       44.4343777139       34.8775703535  W2        28099           0.0000000000
     79811     26604  TIP3      H1            -37.1992366405       45.0924477139       34.7822303535  W2        28099           0.0000000000
     79812     26604  TIP3      H2            -36.4952366405       44.2371677139       35.8141103535  W2        28099           0.0000000000
     79813     26605  TIP3      OH2           -50.4594166405       42.7686477139       33.4550103535  W2        28100           0.0000000000
     79814     26605  TIP3      H1            -50.6782466405       43.2987077139       32.6886103535  W2        28100           0.0000000000
     79815     26605  TIP3      H2            -51.1273266405       42.9951977139       34.1021503535  W2        28100           0.0000000000
     79816     26606  TIP3      OH2           -43.0904366405       52.2687577139       26.9989203535  W2        28101           0.0000000000
     79817     26606  TIP3      H1            -43.3859266405       51.9459877139       26.1476103535  W2        28101           0.0000000000
     79818     26606  TIP3      H2            -43.4146566405       53.1684277139       27.0401803535  W2        28101           0.0000000000
     79819     26607  TIP3      OH2           -47.8902766405       50.4442177139       33.7423803535  W2        28102           0.0000000000
     79820     26607  TIP3      H1            -48.6303666405       51.0423677139       33.8459003535  W2        28102           0.0000000000
     79821     26607  TIP3      H2            -47.1763266405       50.9981777139       33.4267403535  W2        28102           0.0000000000
     79822     26608  TIP3      OH2           -39.7834966405       43.2722977139       29.7623503535  W2        28103           0.0000000000
     79823     26608  TIP3      H1            -39.9986966405       42.5066377139       30.2949503535  W2        28103           0.0000000000
     79824     26608  TIP3      H2            -39.1277566405       43.7447577139       30.2752003535  W2        28103           0.0000000000
     79825     26609  TIP3      OH2           -50.8656866405       44.6608277139       31.4072303535  W2        28104           0.0000000000
     79826     26609  TIP3      H1            -50.2520566405       45.2935877139       31.7804703535  W2        28104           0.0000000000
     79827     26609  TIP3      H2            -50.3536166405       44.1883277139       30.7509203535  W2        28104           0.0000000000
     79828     26610  TIP3      OH2           -49.4828466405       52.4085177139       34.5295303535  W2        28105           0.0000000000
     79829     26610  TIP3      H1            -49.4880866405       53.2878677139       34.1514603535  W2        28105           0.0000000000
     79830     26610  TIP3      H2            -50.3364366405       52.3249277139       34.9545203535  W2        28105           0.0000000000
     79831     26611  TIP3      OH2           -53.3617566405       52.0793077139       25.3114603535  W2        28106           0.0000000000
     79832     26611  TIP3      H1            -53.6336666405       52.3084077139       24.4227503535  W2        28106           0.0000000000
     79833     26611  TIP3      H2            -53.3161866405       52.9171877139       25.7719903535  W2        28106           0.0000000000
     79834     26612  TIP3      OH2           -39.7367866405       53.7008977139       32.0243103535  W2        28107           0.0000000000
     79835     26612  TIP3      H1            -40.6784166405       53.7592877139       32.1860003535  W2        28107           0.0000000000
     79836     26612  TIP3      H2            -39.4601766405       54.6069477139       31.8872803535  W2        28107           0.0000000000
     79837     26613  TIP3      OH2           -39.4360866405       41.9874277139       33.4417003535  W2        28108           0.0000000000
     79838     26613  TIP3      H1            -40.1721666405       42.5981377139       33.4038303535  W2        28108           0.0000000000
     79839     26613  TIP3      H2            -38.7526866405       42.4023277139       32.9153403535  W2        28108           0.0000000000
     79840     26614  TIP3      OH2           -46.4329466405       40.0741577139       30.9075003535  W2        28109           0.0000000000
     79841     26614  TIP3      H1            -46.5505266405       39.1257577139       30.8533303535  W2        28109           0.0000000000
     79842     26614  TIP3      H2            -47.2879366405       40.4067677139       31.1806103535  W2        28109           0.0000000000
     79843     26615  TIP3      OH2           -40.3250166405       53.3830977139       27.1581303535  W2        28110           0.0000000000
     79844     26615  TIP3      H1            -40.5825366405       52.6931077139       26.5467203535  W2        28110           0.0000000000
     79845     26615  TIP3      H2            -40.2539366405       52.9402177139       28.0037203535  W2        28110           0.0000000000
     79846     26616  TIP3      OH2           -44.1664566405       48.9117177139       25.4080803535  W2        28112           0.0000000000
     79847     26616  TIP3      H1            -44.8779066405       49.4466877139       25.0561303535  W2        28112           0.0000000000
     79848     26616  TIP3      H2            -43.4754966405       48.9669277139       24.7479703535  W2        28112           0.0000000000
     79849     26617  TIP3      OH2           -44.1125366405       47.3691477139       22.4465803535  W2        28113           0.0000000000
     79850     26617  TIP3      H1            -43.4115466405       47.3918377139       23.0979803535  W2        28113           0.0000000000
     79851     26617  TIP3      H2            -43.8102466405       46.7411177139       21.7905103535  W2        28113           0.0000000000
     79852     26618  TIP3      OH2           -36.7970666405       48.2895677139       33.7015203535  W2        28114           0.0000000000
     79853     26618  TIP3      H1            -37.4496566405       48.9841277139       33.7906103535  W2        28114           0.0000000000
     79854     26618  TIP3      H2            -36.3320366405       48.4996577139       32.8916803535  W2        28114           0.0000000000
     79855     26619  TIP3      OH2           -40.7606866405       49.1210477139       26.3596703535  W2        28115           0.0000000000
     79856     26619  TIP3      H1            -41.4925866405       49.3494177139       26.9327303535  W2        28115           0.0000000000
     79857     26619  TIP3      H2            -40.3134666405       48.4073177139       26.8144203535  W2        28115           0.0000000000
     79858     26620  TIP3      OH2           -40.8633366405       47.2953077139       35.4273703535  W2        28116           0.0000000000
     79859     26620  TIP3      H1            -40.7834266405       48.0587477139       35.9992203535  W2        28116           0.0000000000
     79860     26620  TIP3      H2            -41.4645666405       47.5745477139       34.7368803535  W2        28116           0.0000000000
     79861     26621  TIP3      OH2           -49.1153166405       49.7516677139       28.2421703535  W2        28117           0.0000000000
     79862     26621  TIP3      H1            -49.4457966405       49.3810077139       27.4238703535  W2        28117           0.0000000000
     79863     26621  TIP3      H2            -48.5269066405       49.0810677139       28.5890003535  W2        28117           0.0000000000
     79864     26622  TIP3      OH2           -47.7485666405       53.1797277139       30.9233903535  W2        28118           0.0000000000
     79865     26622  TIP3      H1            -47.8434366405       52.6010377139       30.1668503535  W2        28118           0.0000000000
     79866     26622  TIP3      H2            -47.0192066405       52.8082977139       31.4196703535  W2        28118           0.0000000000
     79867     26623  TIP3      OH2           -48.7487666405       48.5202277139       31.8756703535  W2        28119           0.0000000000
     79868     26623  TIP3      H1            -48.1835166405       48.6416477139       31.1127903535  W2        28119           0.0000000000
     79869     26623  TIP3      H2            -48.4298766405       49.1577277139       32.5145203535  W2        28119           0.0000000000
     79870     26624  TIP3      OH2           -42.4395466405       54.0234177139       32.6097203535  W2        28120           0.0000000000
     79871     26624  TIP3      H1            -42.6798866405       54.6857277139       33.2576403535  W2        28120           0.0000000000
     79872     26624  TIP3      H2            -42.6377266405       53.1889377139       33.0346803535  W2        28120           0.0000000000
     79873     26625  TIP3      OH2           -41.8897366405       48.2833377139       24.0447903535  W2        28122           0.0000000000
     79874     26625  TIP3      H1            -41.3101866405       48.4333677139       24.7916803535  W2        28122           0.0000000000
     79875     26625  TIP3      H2            -41.4757366405       48.7540777139       23.3214303535  W2        28122           0.0000000000
     79876     26626  TIP3      OH2           -38.1908966405       40.0333777139       23.8577603535  W2        28125           0.0000000000
     79877     26626  TIP3      H1            -39.0908266405       40.1722777139       24.1528203535  W2        28125           0.0000000000
     79878     26626  TIP3      H2            -37.9390566405       40.8648377139       23.4559303535  W2        28125           0.0000000000
     79879     26627  TIP3      OH2           -50.1250466405       48.8210977139       25.8314503535  W2        28126           0.0000000000
     79880     26627  TIP3      H1            -50.4169166405       49.5892677139       25.3405803535  W2        28126           0.0000000000
     79881     26627  TIP3      H2            -50.7995266405       48.1617177139       25.6685903535  W2        28126           0.0000000000
     79882     26628  TIP3      OH2           -37.0017566405       54.3996177139       22.2341503535  W2        28127           0.0000000000
     79883     26628  TIP3      H1            -36.9284066405       55.3386377139       22.4046803535  W2        28127           0.0000000000
     79884     26628  TIP3      H2            -36.0962466405       54.0944777139       22.1778803535  W2        28127           0.0000000000
     79885     26629  TIP3      OH2           -54.0320366405       51.1840177139       34.6464303535  W2        28128           0.0000000000
     79886     26629  TIP3      H1            -54.5331966405       51.1559577139       33.8314003535  W2        28128           0.0000000000
     79887     26629  TIP3      H2            -54.0266666405       50.2783377139       34.9561603535  W2        28128           0.0000000000
     79888     26630  TIP3      OH2           -54.2817666405       53.9643977139       31.5304503535  W2        28129           0.0000000000
     79889     26630  TIP3      H1            -53.3357066405       53.8200977139       31.5114003535  W2        28129           0.0000000000
     79890     26630  TIP3      H2            -54.3941366405       54.7486777139       32.0675703535  W2        28129           0.0000000000
     79891     26631  TIP3      OH2           -49.1641866405       40.9776077139       31.6851303535  W2        28134           0.0000000000
     79892     26631  TIP3      H1            -50.0258166405       40.8904277139       31.2774203535  W2        28134           0.0000000000
     79893     26631  TIP3      H2            -49.1866166405       41.8336177139       32.1128903535  W2        28134           0.0000000000
     79894     26632  TIP3      OH2           -44.5014066405       40.6996477139       35.0598303535  W2        28135           0.0000000000
     79895     26632  TIP3      H1            -44.0810966405       40.2843577139       35.8128903535  W2        28135           0.0000000000
     79896     26632  TIP3      H2            -45.4344466405       40.5209777139       35.1770303535  W2        28135           0.0000000000
     79897     26633  TIP3      OH2           -40.4124266405       49.3161677139       21.6745803535  W2        28137           0.0000000000
     79898     26633  TIP3      H1            -40.3703466405       49.0935577139       20.7445803535  W2        28137           0.0000000000
     79899     26633  TIP3      H2            -39.5632166405       49.7148777139       21.8645703535  W2        28137           0.0000000000
     79900     26634  TIP3      OH2           -44.8396766405       43.1919877139       22.3449103535  W2        28138           0.0000000000
     79901     26634  TIP3      H1            -45.0931966405       43.2111477139       23.2677203535  W2        28138           0.0000000000
     79902     26634  TIP3      H2            -45.0964666405       42.3205277139       22.0435303535  W2        28138           0.0000000000
     79903     26635  TIP3      OH2           -49.0731766405       45.9430577139       32.7801503535  W2        28139           0.0000000000
     79904     26635  TIP3      H1            -49.7149666405       45.9027877139       33.4891603535  W2        28139           0.0000000000
     79905     26635  TIP3      H2            -49.0359766405       46.8695277139       32.5424503535  W2        28139           0.0000000000
     79906     26636  TIP3      OH2           -49.0762666405       46.1640677139       27.6921503535  W2        28140           0.0000000000
     79907     26636  TIP3      H1            -49.9689766405       45.8236777139       27.6335303535  W2        28140           0.0000000000
     79908     26636  TIP3      H2            -48.6256066405       45.7871577139       26.9364703535  W2        28140           0.0000000000
     79909     26637  TIP3      OH2           -43.5407166405       46.5800977139       26.5092303535  W2        28141           0.0000000000
     79910     26637  TIP3      H1            -43.9496866405       47.3949577139       26.2177103535  W2        28141           0.0000000000
     79911     26637  TIP3      H2            -42.8200966405       46.4401077139       25.8949403535  W2        28141           0.0000000000
     79912     26638  TIP3      OH2           -42.5359466405       46.0261377139       29.3232003535  W2        28143           0.0000000000
     79913     26638  TIP3      H1            -42.7314966405       46.6318177139       28.6082603535  W2        28143           0.0000000000
     79914     26638  TIP3      H2            -42.3546866405       45.1926577139       28.8888303535  W2        28143           0.0000000000
     79915     26639  TIP3      OH2           -51.3231266405       46.2634077139       34.6473503535  W2        28144           0.0000000000
     79916     26639  TIP3      H1            -51.3611866405       46.6635677139       35.5160603535  W2        28144           0.0000000000
     79917     26639  TIP3      H2            -51.8140166405       45.4466477139       34.7376403535  W2        28144           0.0000000000
     79918     26640  TIP3      OH2           -47.9573866405       43.6376377139       21.4459503535  W2        28145           0.0000000000
     79919     26640  TIP3      H1            -48.3883166405       43.1926477139       22.1756903535  W2        28145           0.0000000000
     79920     26640  TIP3      H2            -48.6755166405       44.0092677139       20.9337003535  W2        28145           0.0000000000
     79921     26641  TIP3      OH2           -54.7150466405       43.3795877139       28.4978203535  W2        28146           0.0000000000
     79922     26641  TIP3      H1            -54.0842766405       43.3507977139       29.2172103535  W2        28146           0.0000000000
     79923     26641  TIP3      H2            -54.2656166405       42.9544577139       27.7674103535  W2        28146           0.0000000000
     79924     26642  TIP3      OH2           -53.4408366405       44.1257877139       23.9218603535  W2        28147           0.0000000000
     79925     26642  TIP3      H1            -52.9666666405       44.7167777139       23.3369503535  W2        28147           0.0000000000
     79926     26642  TIP3      H2            -54.1581966405       44.6560777139       24.2688703535  W2        28147           0.0000000000
     79927     26643  TIP3      OH2           -43.2720266405       47.6642677139       33.9944403535  W2        28148           0.0000000000
     79928     26643  TIP3      H1            -42.9485466405       47.0332377139       33.3514903535  W2        28148           0.0000000000
     79929     26643  TIP3      H2            -43.7120966405       47.1294877139       34.6551803535  W2        28148           0.0000000000
     79930     26644  TIP3      OH2           -46.4947366405       43.5918177139       28.7785603535  W2        28149           0.0000000000
     79931     26644  TIP3      H1            -47.4056266405       43.6484977139       29.0671603535  W2        28149           0.0000000000
     79932     26644  TIP3      H2            -45.9894466405       43.5313677139       29.5892803535  W2        28149           0.0000000000
     79933     26645  TIP3      OH2           -51.6663966405       45.2204477139       27.6053203535  W2        28150           0.0000000000
     79934     26645  TIP3      H1            -52.5555966405       45.3199977139       27.2652803535  W2        28150           0.0000000000
     79935     26645  TIP3      H2            -51.3699066405       44.3787477139       27.2591103535  W2        28150           0.0000000000
     79936     26646  TIP3      OH2           -48.0132166405       45.2207077139       25.2617803535  W2        28151           0.0000000000
     79937     26646  TIP3      H1            -47.0816666405       45.3497077139       25.4400903535  W2        28151           0.0000000000
     79938     26646  TIP3      H2            -48.2281866405       45.8901377139       24.6122503535  W2        28151           0.0000000000
     79939     26647  TIP3      OH2           -42.0895466405       42.8264477139       32.0427403535  W2        28152           0.0000000000
     79940     26647  TIP3      H1            -42.7663866405       42.9577577139       32.7067103535  W2        28152           0.0000000000
     79941     26647  TIP3      H2            -42.5750566405       42.6713977139       31.2325103535  W2        28152           0.0000000000
     79942     26648  TIP3      OH2           -49.3391966405       46.4149277139       22.8283903535  W2        28153           0.0000000000
     79943     26648  TIP3      H1            -49.8816866405       46.0353077139       22.1371503535  W2        28153           0.0000000000
     79944     26648  TIP3      H2            -48.5057066405       46.6093977139       22.3998003535  W2        28153           0.0000000000
     79945     26649  TIP3      OH2           -45.1747666405       46.3791177139       30.6655203535  W2        28155           0.0000000000
     79946     26649  TIP3      H1            -44.6104266405       45.8327777139       30.1184803535  W2        28155           0.0000000000
     79947     26649  TIP3      H2            -45.3224266405       45.8573077139       31.4542803535  W2        28155           0.0000000000
     79948     26650  TIP3      OH2           -50.1727966405       42.5157277139       27.0840003535  W2        28156           0.0000000000
     79949     26650  TIP3      H1            -50.4898466405       41.6132577139       27.0485403535  W2        28156           0.0000000000
     79950     26650  TIP3      H2            -49.3913866405       42.5174677139       26.5311603535  W2        28156           0.0000000000
     79951     26651  TIP3      OH2           -46.5481766405       44.7677277139       33.0795603535  W2        28157           0.0000000000
     79952     26651  TIP3      H1            -47.3836466405       45.2216777139       33.1898003535  W2        28157           0.0000000000
     79953     26651  TIP3      H2            -46.0241166405       45.0435777139       33.8315503535  W2        28157           0.0000000000
     79954     26652  TIP3      OH2           -46.0039166405       50.9804977139       24.7642003535  W2        28158           0.0000000000
     79955     26652  TIP3      H1            -46.7488166405       50.4730277139       24.4419903535  W2        28158           0.0000000000
     79956     26652  TIP3      H2            -46.1381966405       51.0292977139       25.7106803535  W2        28158           0.0000000000
     79957     26653  TIP3      OH2           -38.8540266405       50.1133177139       33.5509603535  W2        28159           0.0000000000
     79958     26653  TIP3      H1            -38.2121466405       50.5699477139       33.0071803535  W2        28159           0.0000000000
     79959     26653  TIP3      H2            -39.6843366405       50.2265577139       33.0883703535  W2        28159           0.0000000000
     79960     26654  TIP3      OH2           -42.1062366405       43.7944877139       22.9634603535  W2        28160           0.0000000000
     79961     26654  TIP3      H1            -43.0448166405       43.9060477139       22.8123403535  W2        28160           0.0000000000
     79962     26654  TIP3      H2            -41.8090266405       44.6511777139       23.2700303535  W2        28160           0.0000000000
     79963     26655  TIP3      OH2           -41.3878866405       45.6617577139       24.6242003535  W2        28162           0.0000000000
     79964     26655  TIP3      H1            -40.4959866405       45.5242577139       24.9433203535  W2        28162           0.0000000000
     79965     26655  TIP3      H2            -41.3315266405       46.4523677139       24.0875503535  W2        28162           0.0000000000
     79966     26656  TIP3      OH2           -50.8790866405       50.2754977139       30.5339903535  W2        28163           0.0000000000
     79967     26656  TIP3      H1            -50.1343666405       50.2730677139       29.9326403535  W2        28163           0.0000000000
     79968     26656  TIP3      H2            -50.8014266405       49.4518777139       31.0155003535  W2        28163           0.0000000000
     79969     26657  TIP3      OH2           -43.8785066405       52.4389277139       23.7896603535  W2        28164           0.0000000000
     79970     26657  TIP3      H1            -44.1736666405       53.2657177139       24.1711403535  W2        28164           0.0000000000
     79971     26657  TIP3      H2            -44.5815066405       51.8196177139       23.9858003535  W2        28164           0.0000000000
     79972     26658  TIP3      OH2           -36.5030166405       45.8711677139       24.3188703535  W2        28168           0.0000000000
     79973     26658  TIP3      H1            -37.0573866405       45.4749677139       23.6466203535  W2        28168           0.0000000000
     79974     26658  TIP3      H2            -36.4026566405       46.7816877139       24.0412003535  W2        28168           0.0000000000
     79975     26659  TIP3      OH2           -38.2078466405       54.6572077139       24.7840803535  W2        28170           0.0000000000
     79976     26659  TIP3      H1            -38.5807366405       53.8315877139       25.0931403535  W2        28170           0.0000000000
     79977     26659  TIP3      H2            -37.9304966405       54.4741477139       23.8864203535  W2        28170           0.0000000000
     79978     26660  TIP3      OH2           -41.0474566405       49.4651577139       31.8052703535  W2        28171           0.0000000000
     79979     26660  TIP3      H1            -41.9757666405       49.2333477139       31.7782003535  W2        28171           0.0000000000
     79980     26660  TIP3      H2            -40.5963466405       48.6881377139       31.4751503535  W2        28171           0.0000000000
     79981     26661  TIP3      OH2           -48.5041466405       53.7933177139       27.9381403535  W2        28172           0.0000000000
     79982     26661  TIP3      H1            -47.9769266405       54.5667577139       27.7380203535  W2        28172           0.0000000000
     79983     26661  TIP3      H2            -49.3842966405       54.0182377139       27.6365403535  W2        28172           0.0000000000
     79984     26662  TIP3      OH2           -52.7493766405       48.6557277139       22.5253803535  W2        28173           0.0000000000
     79985     26662  TIP3      H1            -52.1333866405       49.2824477139       22.9048603535  W2        28173           0.0000000000
     79986     26662  TIP3      H2            -53.6111166405       48.9717077139       22.7970303535  W2        28173           0.0000000000
     79987     26663  TIP3      OH2           -47.0769166405       51.4563077139       27.5145703535  W2        28174           0.0000000000
     79988     26663  TIP3      H1            -47.3179166405       52.3817477139       27.5561003535  W2        28174           0.0000000000
     79989     26663  TIP3      H2            -47.8175566405       50.9974377139       27.9109603535  W2        28174           0.0000000000
     79990     26664  TIP3      OH2           -43.0181766405       51.7047377139       33.5302403535  W2        28175           0.0000000000
     79991     26664  TIP3      H1            -43.4440466405       51.4769077139       34.3566403535  W2        28175           0.0000000000
     79992     26664  TIP3      H2            -42.4375966405       50.9659177139       33.3477703535  W2        28175           0.0000000000
     79993     26665  TIP3      OH2           -40.8152866405       52.6337877139       22.6041403535  W2        28176           0.0000000000
     79994     26665  TIP3      H1            -40.4619766405       52.2537677139       23.4084903535  W2        28176           0.0000000000
     79995     26665  TIP3      H2            -41.7639366405       52.5402677139       22.6910703535  W2        28176           0.0000000000
     79996     26666  TIP3      OH2           -52.2371666405       43.4894577139       35.4069803535  W2        28177           0.0000000000
     79997     26666  TIP3      H1            -53.1299366405       43.8279977139       35.3393803535  W2        28177           0.0000000000
     79998     26666  TIP3      H2            -52.3358866405       42.6340677139       35.8250603535  W2        28177           0.0000000000
     79999     26667  TIP3      OH2           -39.9493566405       51.3059877139       24.8309303535  W2        28178           0.0000000000
     80000     26667  TIP3      H1            -40.2265966405       50.5779177139       25.3870403535  W2        28178           0.0000000000
     80001     26667  TIP3      H2            -39.0220566405       51.4251877139       25.0361903535  W2        28178           0.0000000000
     80002     26668  TIP3      OH2           -46.7245066405       53.7453977139       21.0511403535  W2        28179           0.0000000000
     80003     26668  TIP3      H1            -46.4855266405       52.9972077139       20.5040303535  W2        28179           0.0000000000
     80004     26668  TIP3      H2            -46.9933766405       53.3575677139       21.8839203535  W2        28179           0.0000000000
     80005     26669  TIP3      OH2           -47.7874466405       53.3157777139       23.5074003535  W2        28180           0.0000000000
     80006     26669  TIP3      H1            -47.6406466405       52.7957577139       24.2974903535  W2        28180           0.0000000000
     80007     26669  TIP3      H2            -47.7902766405       54.2225377139       23.8139903535  W2        28180           0.0000000000
     80008     26670  TIP3      OH2           -51.3343366405       50.5681077139       24.0179403535  W2        28181           0.0000000000
     80009     26670  TIP3      H1            -52.0204066405       50.9203577139       24.5849103535  W2        28181           0.0000000000
     80010     26670  TIP3      H2            -50.8115466405       51.3310677139       23.7713703535  W2        28181           0.0000000000
     80011     26671  TIP3      OH2           -43.5028266405       43.2304877139       34.2968403535  W2        28182           0.0000000000
     80012     26671  TIP3      H1            -42.8040366405       43.3043577139       34.9468103535  W2        28182           0.0000000000
     80013     26671  TIP3      H2            -43.8836866405       42.3659877139       34.4511303535  W2        28182           0.0000000000
     80014     26672  TIP3      OH2           -42.7183366405       42.8826577139       25.3940703535  W2        28183           0.0000000000
     80015     26672  TIP3      H1            -42.4985066405       43.3541977139       24.5906103535  W2        28183           0.0000000000
     80016     26672  TIP3      H2            -42.1599366405       43.2769177139       26.0641303535  W2        28183           0.0000000000
     80017     26673  TIP3      OH2           -45.5183466405       44.6105377139       26.2289103535  W2        28184           0.0000000000
     80018     26673  TIP3      H1            -44.7060866405       45.1148577139       26.2750803535  W2        28184           0.0000000000
     80019     26673  TIP3      H2            -45.7630466405       44.4655077139       27.1428703535  W2        28184           0.0000000000
     80020     26674  TIP3      OH2           -44.9827066405       45.5968077139       35.4135703535  W2        28185           0.0000000000
     80021     26674  TIP3      H1            -44.8636766405       46.1703477139       36.1706103535  W2        28185           0.0000000000
     80022     26674  TIP3      H2            -44.3272466405       44.9087477139       35.5283503535  W2        28185           0.0000000000
     80023     26675  TIP3      OH2           -44.6346766405       41.6918377139       27.1670203535  W2        28186           0.0000000000
     80024     26675  TIP3      H1            -44.9813266405       42.3088977139       27.8114503535  W2        28186           0.0000000000
     80025     26675  TIP3      H2            -43.9759866405       42.1924077139       26.6855703535  W2        28186           0.0000000000
     80026     26676  TIP3      OH2           -48.9769766405       42.7547777139       23.8542703535  W2        28187           0.0000000000
     80027     26676  TIP3      H1            -49.0604966405       43.6430877139       24.2009103535  W2        28187           0.0000000000
     80028     26676  TIP3      H2            -48.0869466405       42.4894477139       24.0859503535  W2        28187           0.0000000000
     80029     26677  TIP3      OH2           -40.1760266405       47.2539377139       30.3442703535  W2        28189           0.0000000000
     80030     26677  TIP3      H1            -40.9735866405       46.8389577139       30.0157703535  W2        28189           0.0000000000
     80031     26677  TIP3      H2            -39.7309166405       46.5633077139       30.8353203535  W2        28189           0.0000000000
     80032     26678  TIP3      OH2           -50.7184466405       53.1819977139       22.9147203535  W2        28190           0.0000000000
     80033     26678  TIP3      H1            -50.1262966405       53.8814777139       23.1909603535  W2        28190           0.0000000000
     80034     26678  TIP3      H2            -50.2591466405       52.7489477139       22.1951803535  W2        28190           0.0000000000
     80035     26679  TIP3      OH2           -52.4025266405       45.8462977139       22.0306603535  W2        28191           0.0000000000
     80036     26679  TIP3      H1            -52.4472666405       46.7856077139       22.2093603535  W2        28191           0.0000000000
     80037     26679  TIP3      H2            -53.2902066405       45.6107877139       21.7608703535  W2        28191           0.0000000000
     80038     26680  TIP3      OH2           -51.5943266405       40.6279577139       30.7037603535  W2        28192           0.0000000000
     80039     26680  TIP3      H1            -51.8233466405       40.6872077139       29.7762603535  W2        28192           0.0000000000
     80040     26680  TIP3      H2            -52.0369866405       39.8365077139       31.0101703535  W2        28192           0.0000000000
     80041     26681  TIP3      OH2           -52.6639966405       54.5686677139       26.8643403535  W2        28193           0.0000000000
     80042     26681  TIP3      H1            -53.4961366405       55.0409377139       26.8914803535  W2        28193           0.0000000000
     80043     26681  TIP3      H2            -52.1181666405       55.0784277139       26.2656503535  W2        28193           0.0000000000
     80044     26682  TIP3      OH2           -49.1273066405       51.3350177139       21.2810303535  W2        28196           0.0000000000
     80045     26682  TIP3      H1            -49.0628966405       50.5409777139       21.8116703535  W2        28196           0.0000000000
     80046     26682  TIP3      H2            -48.4743866405       51.2162977139       20.5912303535  W2        28196           0.0000000000
     80047     26683  TIP3      OH2           -43.7749666405       52.3821877139       21.0168303535  W2        28198           0.0000000000
     80048     26683  TIP3      H1            -44.0435566405       52.5623977139       21.9177203535  W2        28198           0.0000000000
     80049     26683  TIP3      H2            -43.9814066405       51.4568077139       20.8854103535  W2        28198           0.0000000000
     80050     26684  TIP3      OH2           -47.9779266405       49.3076377139       23.5868303535  W2        28201           0.0000000000
     80051     26684  TIP3      H1            -48.4377266405       48.8234677139       24.2726803535  W2        28201           0.0000000000
     80052     26684  TIP3      H2            -47.7230566405       48.6391777139       22.9508803535  W2        28201           0.0000000000
     80053     26685  TIP3      OH2           -46.9068866405       47.5508177139       21.8491503535  W2        28203           0.0000000000
     80054     26685  TIP3      H1            -47.0873866405       47.3959377139       20.9219803535  W2        28203           0.0000000000
     80055     26685  TIP3      H2            -45.9568366405       47.6586877139       21.8939403535  W2        28203           0.0000000000
     80056     26686  TIP3      OH2           -37.5170566405       49.9052377139       21.2949603535  W2        28205           0.0000000000
     80057     26686  TIP3      H1            -37.7905766405       49.4807877139       20.4817903535  W2        28205           0.0000000000
     80058     26686  TIP3      H2            -37.4776466405       50.8366877139       21.0780003535  W2        28205           0.0000000000
     80059     26687  TIP3      OH2           -47.9370566405       42.9250077139       34.5178403535  W2        28207           0.0000000000
     80060     26687  TIP3      H1            -47.4013066405       43.3766777139       33.8657703535  W2        28207           0.0000000000
     80061     26687  TIP3      H2            -48.7890966405       42.8169877139       34.0952503535  W2        28207           0.0000000000
     80062     26688  TIP3      OH2           -46.3552166405       48.3646277139       34.7573603535  W2        28208           0.0000000000
     80063     26688  TIP3      H1            -45.6047366405       48.2083777139       34.1841403535  W2        28208           0.0000000000
     80064     26688  TIP3      H2            -46.6943866405       49.2162877139       34.4819103535  W2        28208           0.0000000000
     80065     26689  TIP3      OH2           -47.1315066405       40.3815777139       34.9492003535  W2        28212           0.0000000000
     80066     26689  TIP3      H1            -47.2295466405       41.3278977139       34.8438203535  W2        28212           0.0000000000
     80067     26689  TIP3      H2            -47.8738866405       40.0089577139       34.4735503535  W2        28212           0.0000000000
     80068     26690  TIP3      OH2           -53.4412266405       52.8775677139       22.3333203535  W2        28219           0.0000000000
     80069     26690  TIP3      H1            -52.5273066405       52.9564577139       22.6067103535  W2        28219           0.0000000000
     80070     26690  TIP3      H2            -53.4339166405       52.1905277139       21.6668803535  W2        28219           0.0000000000
     80071     26691  TIP3      OH2           -37.0587766405       50.7740477139       25.2700003535  W2        28221           0.0000000000
     80072     26691  TIP3      H1            -36.2086366405       51.1951377139       25.3971603535  W2        28221           0.0000000000
     80073     26691  TIP3      H2            -37.0532666405       50.0340577139       25.8771403535  W2        28221           0.0000000000
     80074     26692  TIP3      OH2           -36.6642166405       48.8277877139       27.0935703535  W2        28222           0.0000000000
     80075     26692  TIP3      H1            -37.3907566405       48.3480477139       27.4913303535  W2        28222           0.0000000000
     80076     26692  TIP3      H2            -36.0828866405       49.0332577139       27.8257303535  W2        28222           0.0000000000
     80077     26693  TIP3      OH2           -36.9050966405       51.6125377139       32.0413303535  W2        28223           0.0000000000
     80078     26693  TIP3      H1            -36.0716766405       51.2345377139       31.7606903535  W2        28223           0.0000000000
     80079     26693  TIP3      H2            -36.7930666405       52.5556577139       31.9222403535  W2        28223           0.0000000000
     80080     26694  TIP3      OH2           -38.4188666405       54.4902877139       34.3481703535  W2        28224           0.0000000000
     80081     26694  TIP3      H1            -39.0663366405       54.8154377139       34.9736903535  W2        28224           0.0000000000
     80082     26694  TIP3      H2            -38.9364666405       54.0500577139       33.6740003535  W2        28224           0.0000000000
     80083     26695  TIP3      OH2           -36.3959066405       48.7286377139       23.4847003535  W2        28225           0.0000000000
     80084     26695  TIP3      H1            -36.9177966405       49.0850477139       22.7657903535  W2        28225           0.0000000000
     80085     26695  TIP3      H2            -36.4289866405       49.4034177139       24.1627903535  W2        28225           0.0000000000
     80086     26696  TIP3      OH2           -38.0470066405       45.9681977139       22.0354103535  W2        28226           0.0000000000
     80087     26696  TIP3      H1            -37.9505666405       46.6348977139       21.3553803535  W2        28226           0.0000000000
     80088     26696  TIP3      H2            -38.1870466405       45.1528277139       21.5539603535  W2        28226           0.0000000000
     80089     26697  TIP3      OH2           -38.8775366405       47.3484377139       27.6564403535  W2        28227           0.0000000000
     80090     26697  TIP3      H1            -39.0276566405       46.4032977139       27.6362203535  W2        28227           0.0000000000
     80091     26697  TIP3      H2            -39.2310866405       47.6295777139       28.5003503535  W2        28227           0.0000000000
     80092     26698  TIP3      OH2           -53.8422966405       49.4266577139       31.6668203535  W2        28228           0.0000000000
     80093     26698  TIP3      H1            -53.6580066405       49.3448277139       30.7311103535  W2        28228           0.0000000000
     80094     26698  TIP3      H2            -52.9930066405       49.3023577139       32.0904603535  W2        28228           0.0000000000
     80095     26699  TIP3      OH2           -38.7996266405       43.3761777139       21.1529603535  W2        28231           0.0000000000
     80096     26699  TIP3      H1            -38.1890466405       43.0048577139       21.7897803535  W2        28231           0.0000000000
     80097     26699  TIP3      H2            -39.6364766405       42.9548677139       21.3489603535  W2        28231           0.0000000000
     80098     26700  TIP3      OH2           -39.1670566405       44.9310177139       26.1189503535  W2        28232           0.0000000000
     80099     26700  TIP3      H1            -38.8873466405       44.0240577139       26.2431203535  W2        28232           0.0000000000
     80100     26700  TIP3      H2            -38.4078866405       45.3651677139       25.7298703535  W2        28232           0.0000000000
     80101     26701  TIP3      OH2           -38.5552266405       45.5127577139       31.5548403535  W2        28233           0.0000000000
     80102     26701  TIP3      H1            -37.6224266405       45.7247477139       31.5204403535  W2        28233           0.0000000000
     80103     26701  TIP3      H2            -38.7904766405       45.6139677139       32.4771403535  W2        28233           0.0000000000
     80104     26702  TIP3      OH2           -38.5260366405       46.2492877139       34.3307803535  W2        28234           0.0000000000
     80105     26702  TIP3      H1            -39.3689066405       46.5173277139       34.6967603535  W2        28234           0.0000000000
     80106     26702  TIP3      H2            -38.0836066405       47.0714777139       34.1198903535  W2        28234           0.0000000000
     80107     26703  TIP3      OH2           -38.5535766405       42.1939477139       26.1671503535  W2        28237           0.0000000000
     80108     26703  TIP3      H1            -38.3710766405       41.7450977139       26.9926503535  W2        28237           0.0000000000
     80109     26703  TIP3      H2            -39.1532866405       41.6093877139       25.7036103535  W2        28237           0.0000000000
     80110     26704  TIP3      OH2           -53.0235666405       43.0093177139       30.6989903535  W2        28238           0.0000000000
     80111     26704  TIP3      H1            -52.5784066405       42.2175677139       31.0009603535  W2        28238           0.0000000000
     80112     26704  TIP3      H2            -52.5572666405       43.7258377139       31.1295503535  W2        28238           0.0000000000
     80113     26705  TIP3      OH2           -54.7195366405       46.0086177139       31.7680103535  W2        28239           0.0000000000
     80114     26705  TIP3      H1            -54.2275566405       45.7876677139       30.9772103535  W2        28239           0.0000000000
     80115     26705  TIP3      H2            -54.3574466405       46.8489577139       32.0489603535  W2        28239           0.0000000000
     80116     26706  TIP3      OH2           -36.6869566405       42.2617577139       22.6951803535  W2        28241           0.0000000000
     80117     26706  TIP3      H1            -36.2746966405       41.5403277139       22.2199803535  W2        28241           0.0000000000
     80118     26706  TIP3      H2            -36.0053066405       42.9312177139       22.7536103535  W2        28241           0.0000000000
     80119     26707  TIP3      OH2           -54.4058866405       42.2665277139       25.8222503535  W2        28242           0.0000000000
     80120     26707  TIP3      H1            -55.3310466405       42.4751877139       25.6928003535  W2        28242           0.0000000000
     80121     26707  TIP3      H2            -53.9518966405       42.7506077139       25.1324803535  W2        28242           0.0000000000
     80122     26708  TIP3      OH2           -54.4423466405       41.0044277139       34.1665003535  W2        28243           0.0000000000
     80123     26708  TIP3      H1            -55.1072966405       40.7584577139       34.8095903535  W2        28243           0.0000000000
     80124     26708  TIP3      H2            -54.8852166405       41.6264677139       33.5893003535  W2        28243           0.0000000000
     80125     26709  TIP3      OH2           -44.2927166405       41.8774577139       30.1753103535  W2        28246           0.0000000000
     80126     26709  TIP3      H1            -44.9670366405       41.2480177139       30.4308903535  W2        28246           0.0000000000
     80127     26709  TIP3      H2            -43.7287966405       41.3933477139       29.5721003535  W2        28246           0.0000000000
     80128     26710  TIP3      OH2           -39.1499966405       39.9848577139       30.2880203535  W2        28247           0.0000000000
     80129     26710  TIP3      H1            -38.5462366405       40.5323977139       29.7861203535  W2        28247           0.0000000000
     80130     26710  TIP3      H2            -40.0197966405       40.3038977139       30.0474303535  W2        28247           0.0000000000
     80131     26711  TIP3      OH2           -37.4229566405       41.1237277139       28.6211103535  W2        28248           0.0000000000
     80132     26711  TIP3      H1            -36.8112066405       40.6092977139       28.0944703535  W2        28248           0.0000000000
     80133     26711  TIP3      H2            -37.0406166405       42.0009377139       28.6445503535  W2        28248           0.0000000000
     80134     26712  TIP3      OH2           -51.9659666405       40.5114877139       27.9973003535  W2        28249           0.0000000000
     80135     26712  TIP3      H1            -52.7429866405       40.2769777139       27.4898903535  W2        28249           0.0000000000
     80136     26712  TIP3      H2            -51.4356066405       39.7146977139       28.0061003535  W2        28249           0.0000000000
     80137     26713  TIP3      OH2           -53.1296266405       40.3092977139       23.8009103535  W2        28250           0.0000000000
     80138     26713  TIP3      H1            -52.6905566405       40.9203477139       23.2092603535  W2        28250           0.0000000000
     80139     26713  TIP3      H2            -53.7633866405       40.8477077139       24.2749103535  W2        28250           0.0000000000
     80140     26714  TIP3      OH2           -47.3867066405       40.4381977139       27.8106103535  W2        28251           0.0000000000
     80141     26714  TIP3      H1            -46.5123666405       40.8266277139       27.7810403535  W2        28251           0.0000000000
     80142     26714  TIP3      H2            -47.5226266405       40.2229777139       28.7333303535  W2        28251           0.0000000000
     80143     26715  TIP3      OH2           -41.8298666405       40.4681777139       29.4597803535  W2        28252           0.0000000000
     80144     26715  TIP3      H1            -41.7537066405       40.5633377139       28.5103803535  W2        28252           0.0000000000
     80145     26715  TIP3      H2            -42.1049466405       39.5604677139       29.5886903535  W2        28252           0.0000000000
     80146     26716  TIP3      OH2           -40.4766066405       40.4939577139       25.1522803535  W2        28253           0.0000000000
     80147     26716  TIP3      H1            -41.1794966405       41.1088777139       24.9424203535  W2        28253           0.0000000000
     80148     26716  TIP3      H2            -40.9214666405       39.6566277139       25.2833703535  W2        28253           0.0000000000
     80149     26717  TIP3      OH2           -51.2687166405       42.2254477139       22.2433203535  W2        28254           0.0000000000
     80150     26717  TIP3      H1            -50.7773766405       41.5956877139       21.7158703535  W2        28254           0.0000000000
     80151     26717  TIP3      H2            -50.6450866405       42.5213877139       22.9064403535  W2        28254           0.0000000000
     80152     26718  TIP3      OH2           -46.2427066405       42.5185977139       24.7003703535  W2        28255           0.0000000000
     80153     26718  TIP3      H1            -46.0645766405       41.8719177139       25.3832303535  W2        28255           0.0000000000
     80154     26718  TIP3      H2            -46.2960866405       43.3523677139       25.1674803535  W2        28255           0.0000000000
     80155     26719  TIP3      OH2           -24.0317066405       49.6677177139       27.9560503535  W2        28259           0.0000000000
     80156     26719  TIP3      H1            -23.9425966405       50.6115377139       27.8237603535  W2        28259           0.0000000000
     80157     26719  TIP3      H2            -24.6699466405       49.3923577139       27.2979903535  W2        28259           0.0000000000
     80158     26720  TIP3      OH2           -25.0985766405       48.9227877139       31.3748703535  W2        28260           0.0000000000
     80159     26720  TIP3      H1            -25.1368266405       48.2764177139       32.0798303535  W2        28260           0.0000000000
     80160     26720  TIP3      H2            -25.4209266405       48.4562277139       30.6037403535  W2        28260           0.0000000000
     80161     26721  TIP3      OH2           -32.7300766405       48.5369977139       32.9678603535  W2        28261           0.0000000000
     80162     26721  TIP3      H1            -32.6888666405       47.9113277139       33.6911003535  W2        28261           0.0000000000
     80163     26721  TIP3      H2            -32.0273066405       49.1608577139       33.1499003535  W2        28261           0.0000000000
     80164     26722  TIP3      OH2           -21.3925566405       51.8618277139       29.6763803535  W2        28262           0.0000000000
     80165     26722  TIP3      H1            -21.8332866405       51.1414277139       30.1269403535  W2        28262           0.0000000000
     80166     26722  TIP3      H2            -21.4055866405       52.5825477139       30.3061503535  W2        28262           0.0000000000
     80167     26723  TIP3      OH2           -31.8067666405       52.9868877139       31.5027703535  W2        28263           0.0000000000
     80168     26723  TIP3      H1            -32.1762466405       52.1849377139       31.1332003535  W2        28263           0.0000000000
     80169     26723  TIP3      H2            -30.8656566405       52.8183777139       31.5491103535  W2        28263           0.0000000000
     80170     26724  TIP3      OH2           -35.1967166405       46.6471477139       26.8956503535  W2        28264           0.0000000000
     80171     26724  TIP3      H1            -35.6443766405       47.4930177139       26.8773003535  W2        28264           0.0000000000
     80172     26724  TIP3      H2            -35.7575966405       46.0675677139       26.3801603535  W2        28264           0.0000000000
     80173     26725  TIP3      OH2           -34.4861066405       48.8091077139       29.0214503535  W2        28265           0.0000000000
     80174     26725  TIP3      H1            -34.2727566405       48.0392677139       29.5487503535  W2        28265           0.0000000000
     80175     26725  TIP3      H2            -33.7483466405       48.8987777139       28.4182103535  W2        28265           0.0000000000
     80176     26726  TIP3      OH2           -26.7091366405       51.3549277139       31.7809703535  W2        28266           0.0000000000
     80177     26726  TIP3      H1            -26.4053466405       50.6690677139       31.1863803535  W2        28266           0.0000000000
     80178     26726  TIP3      H2            -25.9877366405       51.4737977139       32.3987703535  W2        28266           0.0000000000
     80179     26727  TIP3      OH2           -18.0461566405       42.9564577139       32.6415903535  W2        28267           0.0000000000
     80180     26727  TIP3      H1            -17.9969366405       43.5665777139       33.3775003535  W2        28267           0.0000000000
     80181     26727  TIP3      H2            -17.6206466405       43.4175477139       31.9187003535  W2        28267           0.0000000000
     80182     26728  TIP3      OH2           -23.5684366405       45.7491677139       32.1084503535  W2        28268           0.0000000000
     80183     26728  TIP3      H1            -23.4258466405       44.8028677139       32.1286103535  W2        28268           0.0000000000
     80184     26728  TIP3      H2            -23.6745366405       45.9561477139       31.1799403535  W2        28268           0.0000000000
     80185     26729  TIP3      OH2           -30.4136066405       43.8508077139       29.3809303535  W2        28269           0.0000000000
     80186     26729  TIP3      H1            -30.3704966405       44.7106577139       28.9625603535  W2        28269           0.0000000000
     80187     26729  TIP3      H2            -30.8711966405       43.2982777139       28.7472503535  W2        28269           0.0000000000
     80188     26730  TIP3      OH2           -22.6913366405       43.9813677139       27.7817603535  W2        28270           0.0000000000
     80189     26730  TIP3      H1            -22.0449066405       43.6526877139       28.4065203535  W2        28270           0.0000000000
     80190     26730  TIP3      H2            -22.1813966405       44.4992677139       27.1589003535  W2        28270           0.0000000000
     80191     26731  TIP3      OH2           -33.7934566405       46.2473877139       30.1430703535  W2        28271           0.0000000000
     80192     26731  TIP3      H1            -33.1397966405       45.6975577139       30.5750803535  W2        28271           0.0000000000
     80193     26731  TIP3      H2            -33.7695266405       45.9732877139       29.2262703535  W2        28271           0.0000000000
     80194     26732  TIP3      OH2           -28.6370066405       47.7975177139       29.3582203535  W2        28272           0.0000000000
     80195     26732  TIP3      H1            -28.0209066405       47.2710577139       29.8676203535  W2        28272           0.0000000000
     80196     26732  TIP3      H2            -29.2231266405       47.1573877139       28.9545803535  W2        28272           0.0000000000
     80197     26733  TIP3      OH2           -17.6546966405       44.4343777139       34.8775703535  W2        28273           0.0000000000
     80198     26733  TIP3      H1            -18.3432366405       45.0924477139       34.7822303535  W2        28273           0.0000000000
     80199     26733  TIP3      H2            -17.6392366405       44.2371677139       35.8141103535  W2        28273           0.0000000000
     80200     26734  TIP3      OH2           -31.6034166405       42.7686477139       33.4550103535  W2        28274           0.0000000000
     80201     26734  TIP3      H1            -31.8222466405       43.2987077139       32.6886103535  W2        28274           0.0000000000
     80202     26734  TIP3      H2            -32.2713266405       42.9951977139       34.1021503535  W2        28274           0.0000000000
     80203     26735  TIP3      OH2           -24.2344366405       52.2687577139       26.9989203535  W2        28275           0.0000000000
     80204     26735  TIP3      H1            -24.5299266405       51.9459877139       26.1476103535  W2        28275           0.0000000000
     80205     26735  TIP3      H2            -24.5586566405       53.1684277139       27.0401803535  W2        28275           0.0000000000
     80206     26736  TIP3      OH2           -29.0342766405       50.4442177139       33.7423803535  W2        28276           0.0000000000
     80207     26736  TIP3      H1            -29.7743666405       51.0423677139       33.8459003535  W2        28276           0.0000000000
     80208     26736  TIP3      H2            -28.3203266405       50.9981777139       33.4267403535  W2        28276           0.0000000000
     80209     26737  TIP3      OH2           -20.9274966405       43.2722977139       29.7623503535  W2        28277           0.0000000000
     80210     26737  TIP3      H1            -21.1426966405       42.5066377139       30.2949503535  W2        28277           0.0000000000
     80211     26737  TIP3      H2            -20.2717566405       43.7447577139       30.2752003535  W2        28277           0.0000000000
     80212     26738  TIP3      OH2           -32.0096866405       44.6608277139       31.4072303535  W2        28278           0.0000000000
     80213     26738  TIP3      H1            -31.3960566405       45.2935877139       31.7804703535  W2        28278           0.0000000000
     80214     26738  TIP3      H2            -31.4976166405       44.1883277139       30.7509203535  W2        28278           0.0000000000
     80215     26739  TIP3      OH2           -30.6268466405       52.4085177139       34.5295303535  W2        28279           0.0000000000
     80216     26739  TIP3      H1            -30.6320866405       53.2878677139       34.1514603535  W2        28279           0.0000000000
     80217     26739  TIP3      H2            -31.4804366405       52.3249277139       34.9545203535  W2        28279           0.0000000000
     80218     26740  TIP3      OH2           -34.5057566405       52.0793077139       25.3114603535  W2        28280           0.0000000000
     80219     26740  TIP3      H1            -34.7776666405       52.3084077139       24.4227503535  W2        28280           0.0000000000
     80220     26740  TIP3      H2            -34.4601866405       52.9171877139       25.7719903535  W2        28280           0.0000000000
     80221     26741  TIP3      OH2           -20.8807866405       53.7008977139       32.0243103535  W2        28281           0.0000000000
     80222     26741  TIP3      H1            -21.8224166405       53.7592877139       32.1860003535  W2        28281           0.0000000000
     80223     26741  TIP3      H2            -20.6041766405       54.6069477139       31.8872803535  W2        28281           0.0000000000
     80224     26742  TIP3      OH2           -20.5800866405       41.9874277139       33.4417003535  W2        28282           0.0000000000
     80225     26742  TIP3      H1            -21.3161666405       42.5981377139       33.4038303535  W2        28282           0.0000000000
     80226     26742  TIP3      H2            -19.8966866405       42.4023277139       32.9153403535  W2        28282           0.0000000000
     80227     26743  TIP3      OH2           -27.5769466405       40.0741577139       30.9075003535  W2        28283           0.0000000000
     80228     26743  TIP3      H1            -27.6945266405       39.1257577139       30.8533303535  W2        28283           0.0000000000
     80229     26743  TIP3      H2            -28.4319366405       40.4067677139       31.1806103535  W2        28283           0.0000000000
     80230     26744  TIP3      OH2           -21.4690166405       53.3830977139       27.1581303535  W2        28284           0.0000000000
     80231     26744  TIP3      H1            -21.7265366405       52.6931077139       26.5467203535  W2        28284           0.0000000000
     80232     26744  TIP3      H2            -21.3979366405       52.9402177139       28.0037203535  W2        28284           0.0000000000
     80233     26745  TIP3      OH2           -25.3104566405       48.9117177139       25.4080803535  W2        28286           0.0000000000
     80234     26745  TIP3      H1            -26.0219066405       49.4466877139       25.0561303535  W2        28286           0.0000000000
     80235     26745  TIP3      H2            -24.6194966405       48.9669277139       24.7479703535  W2        28286           0.0000000000
     80236     26746  TIP3      OH2           -25.2565366405       47.3691477139       22.4465803535  W2        28287           0.0000000000
     80237     26746  TIP3      H1            -24.5555466405       47.3918377139       23.0979803535  W2        28287           0.0000000000
     80238     26746  TIP3      H2            -24.9542466405       46.7411177139       21.7905103535  W2        28287           0.0000000000
     80239     26747  TIP3      OH2           -17.9410666405       48.2895677139       33.7015203535  W2        28288           0.0000000000
     80240     26747  TIP3      H1            -18.5936566405       48.9841277139       33.7906103535  W2        28288           0.0000000000
     80241     26747  TIP3      H2            -17.4760366405       48.4996577139       32.8916803535  W2        28288           0.0000000000
     80242     26748  TIP3      OH2           -21.9046866405       49.1210477139       26.3596703535  W2        28289           0.0000000000
     80243     26748  TIP3      H1            -22.6365866405       49.3494177139       26.9327303535  W2        28289           0.0000000000
     80244     26748  TIP3      H2            -21.4574666405       48.4073177139       26.8144203535  W2        28289           0.0000000000
     80245     26749  TIP3      OH2           -22.0073366405       47.2953077139       35.4273703535  W2        28290           0.0000000000
     80246     26749  TIP3      H1            -21.9274266405       48.0587477139       35.9992203535  W2        28290           0.0000000000
     80247     26749  TIP3      H2            -22.6085666405       47.5745477139       34.7368803535  W2        28290           0.0000000000
     80248     26750  TIP3      OH2           -30.2593166405       49.7516677139       28.2421703535  W2        28291           0.0000000000
     80249     26750  TIP3      H1            -30.5897966405       49.3810077139       27.4238703535  W2        28291           0.0000000000
     80250     26750  TIP3      H2            -29.6709066405       49.0810677139       28.5890003535  W2        28291           0.0000000000
     80251     26751  TIP3      OH2           -28.8925666405       53.1797277139       30.9233903535  W2        28292           0.0000000000
     80252     26751  TIP3      H1            -28.9874366405       52.6010377139       30.1668503535  W2        28292           0.0000000000
     80253     26751  TIP3      H2            -28.1632066405       52.8082977139       31.4196703535  W2        28292           0.0000000000
     80254     26752  TIP3      OH2           -29.8927666405       48.5202277139       31.8756703535  W2        28293           0.0000000000
     80255     26752  TIP3      H1            -29.3275166405       48.6416477139       31.1127903535  W2        28293           0.0000000000
     80256     26752  TIP3      H2            -29.5738766405       49.1577277139       32.5145203535  W2        28293           0.0000000000
     80257     26753  TIP3      OH2           -23.5835466405       54.0234177139       32.6097203535  W2        28294           0.0000000000
     80258     26753  TIP3      H1            -23.8238866405       54.6857277139       33.2576403535  W2        28294           0.0000000000
     80259     26753  TIP3      H2            -23.7817266405       53.1889377139       33.0346803535  W2        28294           0.0000000000
     80260     26754  TIP3      OH2           -23.0337366405       48.2833377139       24.0447903535  W2        28296           0.0000000000
     80261     26754  TIP3      H1            -22.4541866405       48.4333677139       24.7916803535  W2        28296           0.0000000000
     80262     26754  TIP3      H2            -22.6197366405       48.7540777139       23.3214303535  W2        28296           0.0000000000
     80263     26755  TIP3      OH2           -19.3348966405       40.0333777139       23.8577603535  W2        28299           0.0000000000
     80264     26755  TIP3      H1            -20.2348266405       40.1722777139       24.1528203535  W2        28299           0.0000000000
     80265     26755  TIP3      H2            -19.0830566405       40.8648377139       23.4559303535  W2        28299           0.0000000000
     80266     26756  TIP3      OH2           -31.2690466405       48.8210977139       25.8314503535  W2        28300           0.0000000000
     80267     26756  TIP3      H1            -31.5609166405       49.5892677139       25.3405803535  W2        28300           0.0000000000
     80268     26756  TIP3      H2            -31.9435266405       48.1617177139       25.6685903535  W2        28300           0.0000000000
     80269     26757  TIP3      OH2           -18.1457566405       54.3996177139       22.2341503535  W2        28301           0.0000000000
     80270     26757  TIP3      H1            -18.0724066405       55.3386377139       22.4046803535  W2        28301           0.0000000000
     80271     26757  TIP3      H2            -17.2402466405       54.0944777139       22.1778803535  W2        28301           0.0000000000
     80272     26758  TIP3      OH2           -35.1760366405       51.1840177139       34.6464303535  W2        28302           0.0000000000
     80273     26758  TIP3      H1            -35.6771966405       51.1559577139       33.8314003535  W2        28302           0.0000000000
     80274     26758  TIP3      H2            -35.1706666405       50.2783377139       34.9561603535  W2        28302           0.0000000000
     80275     26759  TIP3      OH2           -35.4257666405       53.9643977139       31.5304503535  W2        28303           0.0000000000
     80276     26759  TIP3      H1            -34.4797066405       53.8200977139       31.5114003535  W2        28303           0.0000000000
     80277     26759  TIP3      H2            -35.5381366405       54.7486777139       32.0675703535  W2        28303           0.0000000000
     80278     26760  TIP3      OH2           -30.3081866405       40.9776077139       31.6851303535  W2        28308           0.0000000000
     80279     26760  TIP3      H1            -31.1698166405       40.8904277139       31.2774203535  W2        28308           0.0000000000
     80280     26760  TIP3      H2            -30.3306166405       41.8336177139       32.1128903535  W2        28308           0.0000000000
     80281     26761  TIP3      OH2           -25.6454066405       40.6996477139       35.0598303535  W2        28309           0.0000000000
     80282     26761  TIP3      H1            -25.2250966405       40.2843577139       35.8128903535  W2        28309           0.0000000000
     80283     26761  TIP3      H2            -26.5784466405       40.5209777139       35.1770303535  W2        28309           0.0000000000
     80284     26762  TIP3      OH2           -21.5564266405       49.3161677139       21.6745803535  W2        28311           0.0000000000
     80285     26762  TIP3      H1            -21.5143466405       49.0935577139       20.7445803535  W2        28311           0.0000000000
     80286     26762  TIP3      H2            -20.7072166405       49.7148777139       21.8645703535  W2        28311           0.0000000000
     80287     26763  TIP3      OH2           -25.9836766405       43.1919877139       22.3449103535  W2        28312           0.0000000000
     80288     26763  TIP3      H1            -26.2371966405       43.2111477139       23.2677203535  W2        28312           0.0000000000
     80289     26763  TIP3      H2            -26.2404666405       42.3205277139       22.0435303535  W2        28312           0.0000000000
     80290     26764  TIP3      OH2           -30.2171766405       45.9430577139       32.7801503535  W2        28313           0.0000000000
     80291     26764  TIP3      H1            -30.8589666405       45.9027877139       33.4891603535  W2        28313           0.0000000000
     80292     26764  TIP3      H2            -30.1799766405       46.8695277139       32.5424503535  W2        28313           0.0000000000
     80293     26765  TIP3      OH2           -30.2202666405       46.1640677139       27.6921503535  W2        28314           0.0000000000
     80294     26765  TIP3      H1            -31.1129766405       45.8236777139       27.6335303535  W2        28314           0.0000000000
     80295     26765  TIP3      H2            -29.7696066405       45.7871577139       26.9364703535  W2        28314           0.0000000000
     80296     26766  TIP3      OH2           -24.6847166405       46.5800977139       26.5092303535  W2        28315           0.0000000000
     80297     26766  TIP3      H1            -25.0936866405       47.3949577139       26.2177103535  W2        28315           0.0000000000
     80298     26766  TIP3      H2            -23.9640966405       46.4401077139       25.8949403535  W2        28315           0.0000000000
     80299     26767  TIP3      OH2           -23.6799466405       46.0261377139       29.3232003535  W2        28317           0.0000000000
     80300     26767  TIP3      H1            -23.8754966405       46.6318177139       28.6082603535  W2        28317           0.0000000000
     80301     26767  TIP3      H2            -23.4986866405       45.1926577139       28.8888303535  W2        28317           0.0000000000
     80302     26768  TIP3      OH2           -32.4671266405       46.2634077139       34.6473503535  W2        28318           0.0000000000
     80303     26768  TIP3      H1            -32.5051866405       46.6635677139       35.5160603535  W2        28318           0.0000000000
     80304     26768  TIP3      H2            -32.9580166405       45.4466477139       34.7376403535  W2        28318           0.0000000000
     80305     26769  TIP3      OH2           -29.1013866405       43.6376377139       21.4459503535  W2        28319           0.0000000000
     80306     26769  TIP3      H1            -29.5323166405       43.1926477139       22.1756903535  W2        28319           0.0000000000
     80307     26769  TIP3      H2            -29.8195166405       44.0092677139       20.9337003535  W2        28319           0.0000000000
     80308     26770  TIP3      OH2           -35.8590466405       43.3795877139       28.4978203535  W2        28320           0.0000000000
     80309     26770  TIP3      H1            -35.2282766405       43.3507977139       29.2172103535  W2        28320           0.0000000000
     80310     26770  TIP3      H2            -35.4096166405       42.9544577139       27.7674103535  W2        28320           0.0000000000
     80311     26771  TIP3      OH2           -34.5848366405       44.1257877139       23.9218603535  W2        28321           0.0000000000
     80312     26771  TIP3      H1            -34.1106666405       44.7167777139       23.3369503535  W2        28321           0.0000000000
     80313     26771  TIP3      H2            -35.3021966405       44.6560777139       24.2688703535  W2        28321           0.0000000000
     80314     26772  TIP3      OH2           -24.4160266405       47.6642677139       33.9944403535  W2        28322           0.0000000000
     80315     26772  TIP3      H1            -24.0925466405       47.0332377139       33.3514903535  W2        28322           0.0000000000
     80316     26772  TIP3      H2            -24.8560966405       47.1294877139       34.6551803535  W2        28322           0.0000000000
     80317     26773  TIP3      OH2           -27.6387366405       43.5918177139       28.7785603535  W2        28323           0.0000000000
     80318     26773  TIP3      H1            -28.5496266405       43.6484977139       29.0671603535  W2        28323           0.0000000000
     80319     26773  TIP3      H2            -27.1334466405       43.5313677139       29.5892803535  W2        28323           0.0000000000
     80320     26774  TIP3      OH2           -32.8103966405       45.2204477139       27.6053203535  W2        28324           0.0000000000
     80321     26774  TIP3      H1            -33.6995966405       45.3199977139       27.2652803535  W2        28324           0.0000000000
     80322     26774  TIP3      H2            -32.5139066405       44.3787477139       27.2591103535  W2        28324           0.0000000000
     80323     26775  TIP3      OH2           -29.1572166405       45.2207077139       25.2617803535  W2        28325           0.0000000000
     80324     26775  TIP3      H1            -28.2256666405       45.3497077139       25.4400903535  W2        28325           0.0000000000
     80325     26775  TIP3      H2            -29.3721866405       45.8901377139       24.6122503535  W2        28325           0.0000000000
     80326     26776  TIP3      OH2           -23.2335466405       42.8264477139       32.0427403535  W2        28326           0.0000000000
     80327     26776  TIP3      H1            -23.9103866405       42.9577577139       32.7067103535  W2        28326           0.0000000000
     80328     26776  TIP3      H2            -23.7190566405       42.6713977139       31.2325103535  W2        28326           0.0000000000
     80329     26777  TIP3      OH2           -30.4831966405       46.4149277139       22.8283903535  W2        28327           0.0000000000
     80330     26777  TIP3      H1            -31.0256866405       46.0353077139       22.1371503535  W2        28327           0.0000000000
     80331     26777  TIP3      H2            -29.6497066405       46.6093977139       22.3998003535  W2        28327           0.0000000000
     80332     26778  TIP3      OH2           -26.3187666405       46.3791177139       30.6655203535  W2        28329           0.0000000000
     80333     26778  TIP3      H1            -25.7544266405       45.8327777139       30.1184803535  W2        28329           0.0000000000
     80334     26778  TIP3      H2            -26.4664266405       45.8573077139       31.4542803535  W2        28329           0.0000000000
     80335     26779  TIP3      OH2           -31.3167966405       42.5157277139       27.0840003535  W2        28330           0.0000000000
     80336     26779  TIP3      H1            -31.6338466405       41.6132577139       27.0485403535  W2        28330           0.0000000000
     80337     26779  TIP3      H2            -30.5353866405       42.5174677139       26.5311603535  W2        28330           0.0000000000
     80338     26780  TIP3      OH2           -27.6921766405       44.7677277139       33.0795603535  W2        28331           0.0000000000
     80339     26780  TIP3      H1            -28.5276466405       45.2216777139       33.1898003535  W2        28331           0.0000000000
     80340     26780  TIP3      H2            -27.1681166405       45.0435777139       33.8315503535  W2        28331           0.0000000000
     80341     26781  TIP3      OH2           -27.1479166405       50.9804977139       24.7642003535  W2        28332           0.0000000000
     80342     26781  TIP3      H1            -27.8928166405       50.4730277139       24.4419903535  W2        28332           0.0000000000
     80343     26781  TIP3      H2            -27.2821966405       51.0292977139       25.7106803535  W2        28332           0.0000000000
     80344     26782  TIP3      OH2           -19.9980266405       50.1133177139       33.5509603535  W2        28333           0.0000000000
     80345     26782  TIP3      H1            -19.3561466405       50.5699477139       33.0071803535  W2        28333           0.0000000000
     80346     26782  TIP3      H2            -20.8283366405       50.2265577139       33.0883703535  W2        28333           0.0000000000
     80347     26783  TIP3      OH2           -23.2502366405       43.7944877139       22.9634603535  W2        28334           0.0000000000
     80348     26783  TIP3      H1            -24.1888166405       43.9060477139       22.8123403535  W2        28334           0.0000000000
     80349     26783  TIP3      H2            -22.9530266405       44.6511777139       23.2700303535  W2        28334           0.0000000000
     80350     26784  TIP3      OH2           -22.5318866405       45.6617577139       24.6242003535  W2        28336           0.0000000000
     80351     26784  TIP3      H1            -21.6399866405       45.5242577139       24.9433203535  W2        28336           0.0000000000
     80352     26784  TIP3      H2            -22.4755266405       46.4523677139       24.0875503535  W2        28336           0.0000000000
     80353     26785  TIP3      OH2           -32.0230866405       50.2754977139       30.5339903535  W2        28337           0.0000000000
     80354     26785  TIP3      H1            -31.2783666405       50.2730677139       29.9326403535  W2        28337           0.0000000000
     80355     26785  TIP3      H2            -31.9454266405       49.4518777139       31.0155003535  W2        28337           0.0000000000
     80356     26786  TIP3      OH2           -25.0225066405       52.4389277139       23.7896603535  W2        28338           0.0000000000
     80357     26786  TIP3      H1            -25.3176666405       53.2657177139       24.1711403535  W2        28338           0.0000000000
     80358     26786  TIP3      H2            -25.7255066405       51.8196177139       23.9858003535  W2        28338           0.0000000000
     80359     26787  TIP3      OH2           -17.6470166405       45.8711677139       24.3188703535  W2        28342           0.0000000000
     80360     26787  TIP3      H1            -18.2013866405       45.4749677139       23.6466203535  W2        28342           0.0000000000
     80361     26787  TIP3      H2            -17.5466566405       46.7816877139       24.0412003535  W2        28342           0.0000000000
     80362     26788  TIP3      OH2           -19.3518466405       54.6572077139       24.7840803535  W2        28344           0.0000000000
     80363     26788  TIP3      H1            -19.7247366405       53.8315877139       25.0931403535  W2        28344           0.0000000000
     80364     26788  TIP3      H2            -19.0744966405       54.4741477139       23.8864203535  W2        28344           0.0000000000
     80365     26789  TIP3      OH2           -22.1914566405       49.4651577139       31.8052703535  W2        28345           0.0000000000
     80366     26789  TIP3      H1            -23.1197666405       49.2333477139       31.7782003535  W2        28345           0.0000000000
     80367     26789  TIP3      H2            -21.7403466405       48.6881377139       31.4751503535  W2        28345           0.0000000000
     80368     26790  TIP3      OH2           -29.6481466405       53.7933177139       27.9381403535  W2        28346           0.0000000000
     80369     26790  TIP3      H1            -29.1209266405       54.5667577139       27.7380203535  W2        28346           0.0000000000
     80370     26790  TIP3      H2            -30.5282966405       54.0182377139       27.6365403535  W2        28346           0.0000000000
     80371     26791  TIP3      OH2           -33.8933766405       48.6557277139       22.5253803535  W2        28347           0.0000000000
     80372     26791  TIP3      H1            -33.2773866405       49.2824477139       22.9048603535  W2        28347           0.0000000000
     80373     26791  TIP3      H2            -34.7551166405       48.9717077139       22.7970303535  W2        28347           0.0000000000
     80374     26792  TIP3      OH2           -28.2209166405       51.4563077139       27.5145703535  W2        28348           0.0000000000
     80375     26792  TIP3      H1            -28.4619166405       52.3817477139       27.5561003535  W2        28348           0.0000000000
     80376     26792  TIP3      H2            -28.9615566405       50.9974377139       27.9109603535  W2        28348           0.0000000000
     80377     26793  TIP3      OH2           -24.1621766405       51.7047377139       33.5302403535  W2        28349           0.0000000000
     80378     26793  TIP3      H1            -24.5880466405       51.4769077139       34.3566403535  W2        28349           0.0000000000
     80379     26793  TIP3      H2            -23.5815966405       50.9659177139       33.3477703535  W2        28349           0.0000000000
     80380     26794  TIP3      OH2           -21.9592866405       52.6337877139       22.6041403535  W2        28350           0.0000000000
     80381     26794  TIP3      H1            -21.6059766405       52.2537677139       23.4084903535  W2        28350           0.0000000000
     80382     26794  TIP3      H2            -22.9079366405       52.5402677139       22.6910703535  W2        28350           0.0000000000
     80383     26795  TIP3      OH2           -33.3811666405       43.4894577139       35.4069803535  W2        28351           0.0000000000
     80384     26795  TIP3      H1            -34.2739366405       43.8279977139       35.3393803535  W2        28351           0.0000000000
     80385     26795  TIP3      H2            -33.4798866405       42.6340677139       35.8250603535  W2        28351           0.0000000000
     80386     26796  TIP3      OH2           -21.0933566405       51.3059877139       24.8309303535  W2        28352           0.0000000000
     80387     26796  TIP3      H1            -21.3705966405       50.5779177139       25.3870403535  W2        28352           0.0000000000
     80388     26796  TIP3      H2            -20.1660566405       51.4251877139       25.0361903535  W2        28352           0.0000000000
     80389     26797  TIP3      OH2           -27.8685066405       53.7453977139       21.0511403535  W2        28353           0.0000000000
     80390     26797  TIP3      H1            -27.6295266405       52.9972077139       20.5040303535  W2        28353           0.0000000000
     80391     26797  TIP3      H2            -28.1373766405       53.3575677139       21.8839203535  W2        28353           0.0000000000
     80392     26798  TIP3      OH2           -28.9314466405       53.3157777139       23.5074003535  W2        28354           0.0000000000
     80393     26798  TIP3      H1            -28.7846466405       52.7957577139       24.2974903535  W2        28354           0.0000000000
     80394     26798  TIP3      H2            -28.9342766405       54.2225377139       23.8139903535  W2        28354           0.0000000000
     80395     26799  TIP3      OH2           -32.4783366405       50.5681077139       24.0179403535  W2        28355           0.0000000000
     80396     26799  TIP3      H1            -33.1644066405       50.9203577139       24.5849103535  W2        28355           0.0000000000
     80397     26799  TIP3      H2            -31.9555466405       51.3310677139       23.7713703535  W2        28355           0.0000000000
     80398     26800  TIP3      OH2           -24.6468266405       43.2304877139       34.2968403535  W2        28356           0.0000000000
     80399     26800  TIP3      H1            -23.9480366405       43.3043577139       34.9468103535  W2        28356           0.0000000000
     80400     26800  TIP3      H2            -25.0276866405       42.3659877139       34.4511303535  W2        28356           0.0000000000
     80401     26801  TIP3      OH2           -23.8623366405       42.8826577139       25.3940703535  W2        28357           0.0000000000
     80402     26801  TIP3      H1            -23.6425066405       43.3541977139       24.5906103535  W2        28357           0.0000000000
     80403     26801  TIP3      H2            -23.3039366405       43.2769177139       26.0641303535  W2        28357           0.0000000000
     80404     26802  TIP3      OH2           -26.6623466405       44.6105377139       26.2289103535  W2        28358           0.0000000000
     80405     26802  TIP3      H1            -25.8500866405       45.1148577139       26.2750803535  W2        28358           0.0000000000
     80406     26802  TIP3      H2            -26.9070466405       44.4655077139       27.1428703535  W2        28358           0.0000000000
     80407     26803  TIP3      OH2           -26.1267066405       45.5968077139       35.4135703535  W2        28359           0.0000000000
     80408     26803  TIP3      H1            -26.0076766405       46.1703477139       36.1706103535  W2        28359           0.0000000000
     80409     26803  TIP3      H2            -25.4712466405       44.9087477139       35.5283503535  W2        28359           0.0000000000
     80410     26804  TIP3      OH2           -25.7786766405       41.6918377139       27.1670203535  W2        28360           0.0000000000
     80411     26804  TIP3      H1            -26.1253266405       42.3088977139       27.8114503535  W2        28360           0.0000000000
     80412     26804  TIP3      H2            -25.1199866405       42.1924077139       26.6855703535  W2        28360           0.0000000000
     80413     26805  TIP3      OH2           -30.1209766405       42.7547777139       23.8542703535  W2        28361           0.0000000000
     80414     26805  TIP3      H1            -30.2044966405       43.6430877139       24.2009103535  W2        28361           0.0000000000
     80415     26805  TIP3      H2            -29.2309466405       42.4894477139       24.0859503535  W2        28361           0.0000000000
     80416     26806  TIP3      OH2           -21.3200266405       47.2539377139       30.3442703535  W2        28363           0.0000000000
     80417     26806  TIP3      H1            -22.1175866405       46.8389577139       30.0157703535  W2        28363           0.0000000000
     80418     26806  TIP3      H2            -20.8749166405       46.5633077139       30.8353203535  W2        28363           0.0000000000
     80419     26807  TIP3      OH2           -31.8624466405       53.1819977139       22.9147203535  W2        28364           0.0000000000
     80420     26807  TIP3      H1            -31.2702966405       53.8814777139       23.1909603535  W2        28364           0.0000000000
     80421     26807  TIP3      H2            -31.4031466405       52.7489477139       22.1951803535  W2        28364           0.0000000000
     80422     26808  TIP3      OH2           -33.5465266405       45.8462977139       22.0306603535  W2        28365           0.0000000000
     80423     26808  TIP3      H1            -33.5912666405       46.7856077139       22.2093603535  W2        28365           0.0000000000
     80424     26808  TIP3      H2            -34.4342066405       45.6107877139       21.7608703535  W2        28365           0.0000000000
     80425     26809  TIP3      OH2           -32.7383266405       40.6279577139       30.7037603535  W2        28366           0.0000000000
     80426     26809  TIP3      H1            -32.9673466405       40.6872077139       29.7762603535  W2        28366           0.0000000000
     80427     26809  TIP3      H2            -33.1809866405       39.8365077139       31.0101703535  W2        28366           0.0000000000
     80428     26810  TIP3      OH2           -33.8079966405       54.5686677139       26.8643403535  W2        28367           0.0000000000
     80429     26810  TIP3      H1            -34.6401366405       55.0409377139       26.8914803535  W2        28367           0.0000000000
     80430     26810  TIP3      H2            -33.2621666405       55.0784277139       26.2656503535  W2        28367           0.0000000000
     80431     26811  TIP3      OH2           -30.2713066405       51.3350177139       21.2810303535  W2        28370           0.0000000000
     80432     26811  TIP3      H1            -30.2068966405       50.5409777139       21.8116703535  W2        28370           0.0000000000
     80433     26811  TIP3      H2            -29.6183866405       51.2162977139       20.5912303535  W2        28370           0.0000000000
     80434     26812  TIP3      OH2           -24.9189666405       52.3821877139       21.0168303535  W2        28372           0.0000000000
     80435     26812  TIP3      H1            -25.1875566405       52.5623977139       21.9177203535  W2        28372           0.0000000000
     80436     26812  TIP3      H2            -25.1254066405       51.4568077139       20.8854103535  W2        28372           0.0000000000
     80437     26813  TIP3      OH2           -29.1219266405       49.3076377139       23.5868303535  W2        28375           0.0000000000
     80438     26813  TIP3      H1            -29.5817266405       48.8234677139       24.2726803535  W2        28375           0.0000000000
     80439     26813  TIP3      H2            -28.8670566405       48.6391777139       22.9508803535  W2        28375           0.0000000000
     80440     26814  TIP3      OH2           -28.0508866405       47.5508177139       21.8491503535  W2        28377           0.0000000000
     80441     26814  TIP3      H1            -28.2313866405       47.3959377139       20.9219803535  W2        28377           0.0000000000
     80442     26814  TIP3      H2            -27.1008366405       47.6586877139       21.8939403535  W2        28377           0.0000000000
     80443     26815  TIP3      OH2           -18.6610566405       49.9052377139       21.2949603535  W2        28379           0.0000000000
     80444     26815  TIP3      H1            -18.9345766405       49.4807877139       20.4817903535  W2        28379           0.0000000000
     80445     26815  TIP3      H2            -18.6216466405       50.8366877139       21.0780003535  W2        28379           0.0000000000
     80446     26816  TIP3      OH2           -29.0810566405       42.9250077139       34.5178403535  W2        28381           0.0000000000
     80447     26816  TIP3      H1            -28.5453066405       43.3766777139       33.8657703535  W2        28381           0.0000000000
     80448     26816  TIP3      H2            -29.9330966405       42.8169877139       34.0952503535  W2        28381           0.0000000000
     80449     26817  TIP3      OH2           -27.4992166405       48.3646277139       34.7573603535  W2        28382           0.0000000000
     80450     26817  TIP3      H1            -26.7487366405       48.2083777139       34.1841403535  W2        28382           0.0000000000
     80451     26817  TIP3      H2            -27.8383866405       49.2162877139       34.4819103535  W2        28382           0.0000000000
     80452     26818  TIP3      OH2           -28.2755066405       40.3815777139       34.9492003535  W2        28386           0.0000000000
     80453     26818  TIP3      H1            -28.3735466405       41.3278977139       34.8438203535  W2        28386           0.0000000000
     80454     26818  TIP3      H2            -29.0178866405       40.0089577139       34.4735503535  W2        28386           0.0000000000
     80455     26819  TIP3      OH2           -34.5852266405       52.8775677139       22.3333203535  W2        28393           0.0000000000
     80456     26819  TIP3      H1            -33.6713066405       52.9564577139       22.6067103535  W2        28393           0.0000000000
     80457     26819  TIP3      H2            -34.5779166405       52.1905277139       21.6668803535  W2        28393           0.0000000000
     80458     26820  TIP3      OH2           -18.2027766405       50.7740477139       25.2700003535  W2        28395           0.0000000000
     80459     26820  TIP3      H1            -17.3526366405       51.1951377139       25.3971603535  W2        28395           0.0000000000
     80460     26820  TIP3      H2            -18.1972666405       50.0340577139       25.8771403535  W2        28395           0.0000000000
     80461     26821  TIP3      OH2           -17.8082166405       48.8277877139       27.0935703535  W2        28396           0.0000000000
     80462     26821  TIP3      H1            -18.5347566405       48.3480477139       27.4913303535  W2        28396           0.0000000000
     80463     26821  TIP3      H2            -17.2268866405       49.0332577139       27.8257303535  W2        28396           0.0000000000
     80464     26822  TIP3      OH2           -18.0490966405       51.6125377139       32.0413303535  W2        28397           0.0000000000
     80465     26822  TIP3      H1            -17.2156766405       51.2345377139       31.7606903535  W2        28397           0.0000000000
     80466     26822  TIP3      H2            -17.9370666405       52.5556577139       31.9222403535  W2        28397           0.0000000000
     80467     26823  TIP3      OH2           -19.5628666405       54.4902877139       34.3481703535  W2        28398           0.0000000000
     80468     26823  TIP3      H1            -20.2103366405       54.8154377139       34.9736903535  W2        28398           0.0000000000
     80469     26823  TIP3      H2            -20.0804666405       54.0500577139       33.6740003535  W2        28398           0.0000000000
     80470     26824  TIP3      OH2           -17.5399066405       48.7286377139       23.4847003535  W2        28399           0.0000000000
     80471     26824  TIP3      H1            -18.0617966405       49.0850477139       22.7657903535  W2        28399           0.0000000000
     80472     26824  TIP3      H2            -17.5729866405       49.4034177139       24.1627903535  W2        28399           0.0000000000
     80473     26825  TIP3      OH2           -19.1910066405       45.9681977139       22.0354103535  W2        28400           0.0000000000
     80474     26825  TIP3      H1            -19.0945666405       46.6348977139       21.3553803535  W2        28400           0.0000000000
     80475     26825  TIP3      H2            -19.3310466405       45.1528277139       21.5539603535  W2        28400           0.0000000000
     80476     26826  TIP3      OH2           -20.0215366405       47.3484377139       27.6564403535  W2        28401           0.0000000000
     80477     26826  TIP3      H1            -20.1716566405       46.4032977139       27.6362203535  W2        28401           0.0000000000
     80478     26826  TIP3      H2            -20.3750866405       47.6295777139       28.5003503535  W2        28401           0.0000000000
     80479     26827  TIP3      OH2           -34.9862966405       49.4266577139       31.6668203535  W2        28402           0.0000000000
     80480     26827  TIP3      H1            -34.8020066405       49.3448277139       30.7311103535  W2        28402           0.0000000000
     80481     26827  TIP3      H2            -34.1370066405       49.3023577139       32.0904603535  W2        28402           0.0000000000
     80482     26828  TIP3      OH2           -19.9436266405       43.3761777139       21.1529603535  W2        28405           0.0000000000
     80483     26828  TIP3      H1            -19.3330466405       43.0048577139       21.7897803535  W2        28405           0.0000000000
     80484     26828  TIP3      H2            -20.7804766405       42.9548677139       21.3489603535  W2        28405           0.0000000000
     80485     26829  TIP3      OH2           -20.3110566405       44.9310177139       26.1189503535  W2        28406           0.0000000000
     80486     26829  TIP3      H1            -20.0313466405       44.0240577139       26.2431203535  W2        28406           0.0000000000
     80487     26829  TIP3      H2            -19.5518866405       45.3651677139       25.7298703535  W2        28406           0.0000000000
     80488     26830  TIP3      OH2           -19.6992266405       45.5127577139       31.5548403535  W2        28407           0.0000000000
     80489     26830  TIP3      H1            -18.7664266405       45.7247477139       31.5204403535  W2        28407           0.0000000000
     80490     26830  TIP3      H2            -19.9344766405       45.6139677139       32.4771403535  W2        28407           0.0000000000
     80491     26831  TIP3      OH2           -19.6700366405       46.2492877139       34.3307803535  W2        28408           0.0000000000
     80492     26831  TIP3      H1            -20.5129066405       46.5173277139       34.6967603535  W2        28408           0.0000000000
     80493     26831  TIP3      H2            -19.2276066405       47.0714777139       34.1198903535  W2        28408           0.0000000000
     80494     26832  TIP3      OH2           -19.6975766405       42.1939477139       26.1671503535  W2        28411           0.0000000000
     80495     26832  TIP3      H1            -19.5150766405       41.7450977139       26.9926503535  W2        28411           0.0000000000
     80496     26832  TIP3      H2            -20.2972866405       41.6093877139       25.7036103535  W2        28411           0.0000000000
     80497     26833  TIP3      OH2           -34.1675666405       43.0093177139       30.6989903535  W2        28412           0.0000000000
     80498     26833  TIP3      H1            -33.7224066405       42.2175677139       31.0009603535  W2        28412           0.0000000000
     80499     26833  TIP3      H2            -33.7012666405       43.7258377139       31.1295503535  W2        28412           0.0000000000
     80500     26834  TIP3      OH2           -35.8635366405       46.0086177139       31.7680103535  W2        28413           0.0000000000
     80501     26834  TIP3      H1            -35.3715566405       45.7876677139       30.9772103535  W2        28413           0.0000000000
     80502     26834  TIP3      H2            -35.5014466405       46.8489577139       32.0489603535  W2        28413           0.0000000000
     80503     26835  TIP3      OH2           -17.8309566405       42.2617577139       22.6951803535  W2        28415           0.0000000000
     80504     26835  TIP3      H1            -17.4186966405       41.5403277139       22.2199803535  W2        28415           0.0000000000
     80505     26835  TIP3      H2            -17.1493066405       42.9312177139       22.7536103535  W2        28415           0.0000000000
     80506     26836  TIP3      OH2           -35.5498866405       42.2665277139       25.8222503535  W2        28416           0.0000000000
     80507     26836  TIP3      H1            -36.4750466405       42.4751877139       25.6928003535  W2        28416           0.0000000000
     80508     26836  TIP3      H2            -35.0958966405       42.7506077139       25.1324803535  W2        28416           0.0000000000
     80509     26837  TIP3      OH2           -35.5863466405       41.0044277139       34.1665003535  W2        28417           0.0000000000
     80510     26837  TIP3      H1            -36.2512966405       40.7584577139       34.8095903535  W2        28417           0.0000000000
     80511     26837  TIP3      H2            -36.0292166405       41.6264677139       33.5893003535  W2        28417           0.0000000000
     80512     26838  TIP3      OH2           -25.4367166405       41.8774577139       30.1753103535  W2        28420           0.0000000000
     80513     26838  TIP3      H1            -26.1110366405       41.2480177139       30.4308903535  W2        28420           0.0000000000
     80514     26838  TIP3      H2            -24.8727966405       41.3933477139       29.5721003535  W2        28420           0.0000000000
     80515     26839  TIP3      OH2           -20.2939966405       39.9848577139       30.2880203535  W2        28421           0.0000000000
     80516     26839  TIP3      H1            -19.6902366405       40.5323977139       29.7861203535  W2        28421           0.0000000000
     80517     26839  TIP3      H2            -21.1637966405       40.3038977139       30.0474303535  W2        28421           0.0000000000
     80518     26840  TIP3      OH2           -18.5669566405       41.1237277139       28.6211103535  W2        28422           0.0000000000
     80519     26840  TIP3      H1            -17.9552066405       40.6092977139       28.0944703535  W2        28422           0.0000000000
     80520     26840  TIP3      H2            -18.1846166405       42.0009377139       28.6445503535  W2        28422           0.0000000000
     80521     26841  TIP3      OH2           -33.1099666405       40.5114877139       27.9973003535  W2        28423           0.0000000000
     80522     26841  TIP3      H1            -33.8869866405       40.2769777139       27.4898903535  W2        28423           0.0000000000
     80523     26841  TIP3      H2            -32.5796066405       39.7146977139       28.0061003535  W2        28423           0.0000000000
     80524     26842  TIP3      OH2           -34.2736266405       40.3092977139       23.8009103535  W2        28424           0.0000000000
     80525     26842  TIP3      H1            -33.8345566405       40.9203477139       23.2092603535  W2        28424           0.0000000000
     80526     26842  TIP3      H2            -34.9073866405       40.8477077139       24.2749103535  W2        28424           0.0000000000
     80527     26843  TIP3      OH2           -28.5307066405       40.4381977139       27.8106103535  W2        28425           0.0000000000
     80528     26843  TIP3      H1            -27.6563666405       40.8266277139       27.7810403535  W2        28425           0.0000000000
     80529     26843  TIP3      H2            -28.6666266405       40.2229777139       28.7333303535  W2        28425           0.0000000000
     80530     26844  TIP3      OH2           -22.9738666405       40.4681777139       29.4597803535  W2        28426           0.0000000000
     80531     26844  TIP3      H1            -22.8977066405       40.5633377139       28.5103803535  W2        28426           0.0000000000
     80532     26844  TIP3      H2            -23.2489466405       39.5604677139       29.5886903535  W2        28426           0.0000000000
     80533     26845  TIP3      OH2           -21.6206066405       40.4939577139       25.1522803535  W2        28427           0.0000000000
     80534     26845  TIP3      H1            -22.3234966405       41.1088777139       24.9424203535  W2        28427           0.0000000000
     80535     26845  TIP3      H2            -22.0654666405       39.6566277139       25.2833703535  W2        28427           0.0000000000
     80536     26846  TIP3      OH2           -32.4127166405       42.2254477139       22.2433203535  W2        28428           0.0000000000
     80537     26846  TIP3      H1            -31.9213766405       41.5956877139       21.7158703535  W2        28428           0.0000000000
     80538     26846  TIP3      H2            -31.7890866405       42.5213877139       22.9064403535  W2        28428           0.0000000000
     80539     26847  TIP3      OH2           -27.3867066405       42.5185977139       24.7003703535  W2        28429           0.0000000000
     80540     26847  TIP3      H1            -27.2085766405       41.8719177139       25.3832303535  W2        28429           0.0000000000
     80541     26847  TIP3      H2            -27.4400866405       43.3523677139       25.1674803535  W2        28429           0.0000000000
     80542     26848  TIP3      OH2            -5.1757066405       49.6677177139       27.9560503535  W2        28433           0.0000000000
     80543     26848  TIP3      H1             -5.0865966405       50.6115377139       27.8237603535  W2        28433           0.0000000000
     80544     26848  TIP3      H2             -5.8139466405       49.3923577139       27.2979903535  W2        28433           0.0000000000
     80545     26849  TIP3      OH2            -6.2425766405       48.9227877139       31.3748703535  W2        28434           0.0000000000
     80546     26849  TIP3      H1             -6.2808266405       48.2764177139       32.0798303535  W2        28434           0.0000000000
     80547     26849  TIP3      H2             -6.5649266405       48.4562277139       30.6037403535  W2        28434           0.0000000000
     80548     26850  TIP3      OH2           -13.8740766405       48.5369977139       32.9678603535  W2        28435           0.0000000000
     80549     26850  TIP3      H1            -13.8328666405       47.9113277139       33.6911003535  W2        28435           0.0000000000
     80550     26850  TIP3      H2            -13.1713066405       49.1608577139       33.1499003535  W2        28435           0.0000000000
     80551     26851  TIP3      OH2            -2.5365566405       51.8618277139       29.6763803535  W2        28436           0.0000000000
     80552     26851  TIP3      H1             -2.9772866405       51.1414277139       30.1269403535  W2        28436           0.0000000000
     80553     26851  TIP3      H2             -2.5495866405       52.5825477139       30.3061503535  W2        28436           0.0000000000
     80554     26852  TIP3      OH2           -12.9507666405       52.9868877139       31.5027703535  W2        28437           0.0000000000
     80555     26852  TIP3      H1            -13.3202466405       52.1849377139       31.1332003535  W2        28437           0.0000000000
     80556     26852  TIP3      H2            -12.0096566405       52.8183777139       31.5491103535  W2        28437           0.0000000000
     80557     26853  TIP3      OH2           -16.3407166405       46.6471477139       26.8956503535  W2        28438           0.0000000000
     80558     26853  TIP3      H1            -16.7883766405       47.4930177139       26.8773003535  W2        28438           0.0000000000
     80559     26853  TIP3      H2            -16.9015966405       46.0675677139       26.3801603535  W2        28438           0.0000000000
     80560     26854  TIP3      OH2           -15.6301066405       48.8091077139       29.0214503535  W2        28439           0.0000000000
     80561     26854  TIP3      H1            -15.4167566405       48.0392677139       29.5487503535  W2        28439           0.0000000000
     80562     26854  TIP3      H2            -14.8923466405       48.8987777139       28.4182103535  W2        28439           0.0000000000
     80563     26855  TIP3      OH2            -7.8531366405       51.3549277139       31.7809703535  W2        28440           0.0000000000
     80564     26855  TIP3      H1             -7.5493466405       50.6690677139       31.1863803535  W2        28440           0.0000000000
     80565     26855  TIP3      H2             -7.1317366405       51.4737977139       32.3987703535  W2        28440           0.0000000000
     80566     26856  TIP3      OH2             0.8098433595       42.9564577139       32.6415903535  W2        28441           0.0000000000
     80567     26856  TIP3      H1              0.8590633595       43.5665777139       33.3775003535  W2        28441           0.0000000000
     80568     26856  TIP3      H2              1.2353533595       43.4175477139       31.9187003535  W2        28441           0.0000000000
     80569     26857  TIP3      OH2            -4.7124366405       45.7491677139       32.1084503535  W2        28442           0.0000000000
     80570     26857  TIP3      H1             -4.5698466405       44.8028677139       32.1286103535  W2        28442           0.0000000000
     80571     26857  TIP3      H2             -4.8185366405       45.9561477139       31.1799403535  W2        28442           0.0000000000
     80572     26858  TIP3      OH2           -11.5576066405       43.8508077139       29.3809303535  W2        28443           0.0000000000
     80573     26858  TIP3      H1            -11.5144966405       44.7106577139       28.9625603535  W2        28443           0.0000000000
     80574     26858  TIP3      H2            -12.0151966405       43.2982777139       28.7472503535  W2        28443           0.0000000000
     80575     26859  TIP3      OH2            -3.8353366405       43.9813677139       27.7817603535  W2        28444           0.0000000000
     80576     26859  TIP3      H1             -3.1889066405       43.6526877139       28.4065203535  W2        28444           0.0000000000
     80577     26859  TIP3      H2             -3.3253966405       44.4992677139       27.1589003535  W2        28444           0.0000000000
     80578     26860  TIP3      OH2           -14.9374566405       46.2473877139       30.1430703535  W2        28445           0.0000000000
     80579     26860  TIP3      H1            -14.2837966405       45.6975577139       30.5750803535  W2        28445           0.0000000000
     80580     26860  TIP3      H2            -14.9135266405       45.9732877139       29.2262703535  W2        28445           0.0000000000
     80581     26861  TIP3      OH2            -9.7810066405       47.7975177139       29.3582203535  W2        28446           0.0000000000
     80582     26861  TIP3      H1             -9.1649066405       47.2710577139       29.8676203535  W2        28446           0.0000000000
     80583     26861  TIP3      H2            -10.3671266405       47.1573877139       28.9545803535  W2        28446           0.0000000000
     80584     26862  TIP3      OH2             1.2013033595       44.4343777139       34.8775703535  W2        28447           0.0000000000
     80585     26862  TIP3      H1              0.5127633595       45.0924477139       34.7822303535  W2        28447           0.0000000000
     80586     26862  TIP3      H2              1.2167633595       44.2371677139       35.8141103535  W2        28447           0.0000000000
     80587     26863  TIP3      OH2           -12.7474166405       42.7686477139       33.4550103535  W2        28448           0.0000000000
     80588     26863  TIP3      H1            -12.9662466405       43.2987077139       32.6886103535  W2        28448           0.0000000000
     80589     26863  TIP3      H2            -13.4153266405       42.9951977139       34.1021503535  W2        28448           0.0000000000
     80590     26864  TIP3      OH2            -5.3784366405       52.2687577139       26.9989203535  W2        28449           0.0000000000
     80591     26864  TIP3      H1             -5.6739266405       51.9459877139       26.1476103535  W2        28449           0.0000000000
     80592     26864  TIP3      H2             -5.7026566405       53.1684277139       27.0401803535  W2        28449           0.0000000000
     80593     26865  TIP3      OH2           -10.1782766405       50.4442177139       33.7423803535  W2        28450           0.0000000000
     80594     26865  TIP3      H1            -10.9183666405       51.0423677139       33.8459003535  W2        28450           0.0000000000
     80595     26865  TIP3      H2             -9.4643266405       50.9981777139       33.4267403535  W2        28450           0.0000000000
     80596     26866  TIP3      OH2            -2.0714966405       43.2722977139       29.7623503535  W2        28451           0.0000000000
     80597     26866  TIP3      H1             -2.2866966405       42.5066377139       30.2949503535  W2        28451           0.0000000000
     80598     26866  TIP3      H2             -1.4157566405       43.7447577139       30.2752003535  W2        28451           0.0000000000
     80599     26867  TIP3      OH2           -13.1536866405       44.6608277139       31.4072303535  W2        28452           0.0000000000
     80600     26867  TIP3      H1            -12.5400566405       45.2935877139       31.7804703535  W2        28452           0.0000000000
     80601     26867  TIP3      H2            -12.6416166405       44.1883277139       30.7509203535  W2        28452           0.0000000000
     80602     26868  TIP3      OH2           -11.7708466405       52.4085177139       34.5295303535  W2        28453           0.0000000000
     80603     26868  TIP3      H1            -11.7760866405       53.2878677139       34.1514603535  W2        28453           0.0000000000
     80604     26868  TIP3      H2            -12.6244366405       52.3249277139       34.9545203535  W2        28453           0.0000000000
     80605     26869  TIP3      OH2           -15.6497566405       52.0793077139       25.3114603535  W2        28454           0.0000000000
     80606     26869  TIP3      H1            -15.9216666405       52.3084077139       24.4227503535  W2        28454           0.0000000000
     80607     26869  TIP3      H2            -15.6041866405       52.9171877139       25.7719903535  W2        28454           0.0000000000
     80608     26870  TIP3      OH2            -2.0247866405       53.7008977139       32.0243103535  W2        28455           0.0000000000
     80609     26870  TIP3      H1             -2.9664166405       53.7592877139       32.1860003535  W2        28455           0.0000000000
     80610     26870  TIP3      H2             -1.7481766405       54.6069477139       31.8872803535  W2        28455           0.0000000000
     80611     26871  TIP3      OH2            -1.7240866405       41.9874277139       33.4417003535  W2        28456           0.0000000000
     80612     26871  TIP3      H1             -2.4601666405       42.5981377139       33.4038303535  W2        28456           0.0000000000
     80613     26871  TIP3      H2             -1.0406866405       42.4023277139       32.9153403535  W2        28456           0.0000000000
     80614     26872  TIP3      OH2            -8.7209466405       40.0741577139       30.9075003535  W2        28457           0.0000000000
     80615     26872  TIP3      H1             -8.8385266405       39.1257577139       30.8533303535  W2        28457           0.0000000000
     80616     26872  TIP3      H2             -9.5759366405       40.4067677139       31.1806103535  W2        28457           0.0000000000
     80617     26873  TIP3      OH2            -2.6130166405       53.3830977139       27.1581303535  W2        28458           0.0000000000
     80618     26873  TIP3      H1             -2.8705366405       52.6931077139       26.5467203535  W2        28458           0.0000000000
     80619     26873  TIP3      H2             -2.5419366405       52.9402177139       28.0037203535  W2        28458           0.0000000000
     80620     26874  TIP3      OH2            -6.4544566405       48.9117177139       25.4080803535  W2        28460           0.0000000000
     80621     26874  TIP3      H1             -7.1659066405       49.4466877139       25.0561303535  W2        28460           0.0000000000
     80622     26874  TIP3      H2             -5.7634966405       48.9669277139       24.7479703535  W2        28460           0.0000000000
     80623     26875  TIP3      OH2            -6.4005366405       47.3691477139       22.4465803535  W2        28461           0.0000000000
     80624     26875  TIP3      H1             -5.6995466405       47.3918377139       23.0979803535  W2        28461           0.0000000000
     80625     26875  TIP3      H2             -6.0982466405       46.7411177139       21.7905103535  W2        28461           0.0000000000
     80626     26876  TIP3      OH2             0.9149333595       48.2895677139       33.7015203535  W2        28462           0.0000000000
     80627     26876  TIP3      H1              0.2623433595       48.9841277139       33.7906103535  W2        28462           0.0000000000
     80628     26876  TIP3      H2              1.3799633595       48.4996577139       32.8916803535  W2        28462           0.0000000000
     80629     26877  TIP3      OH2            -3.0486866405       49.1210477139       26.3596703535  W2        28463           0.0000000000
     80630     26877  TIP3      H1             -3.7805866405       49.3494177139       26.9327303535  W2        28463           0.0000000000
     80631     26877  TIP3      H2             -2.6014666405       48.4073177139       26.8144203535  W2        28463           0.0000000000
     80632     26878  TIP3      OH2            -3.1513366405       47.2953077139       35.4273703535  W2        28464           0.0000000000
     80633     26878  TIP3      H1             -3.0714266405       48.0587477139       35.9992203535  W2        28464           0.0000000000
     80634     26878  TIP3      H2             -3.7525666405       47.5745477139       34.7368803535  W2        28464           0.0000000000
     80635     26879  TIP3      OH2           -11.4033166405       49.7516677139       28.2421703535  W2        28465           0.0000000000
     80636     26879  TIP3      H1            -11.7337966405       49.3810077139       27.4238703535  W2        28465           0.0000000000
     80637     26879  TIP3      H2            -10.8149066405       49.0810677139       28.5890003535  W2        28465           0.0000000000
     80638     26880  TIP3      OH2           -10.0365666405       53.1797277139       30.9233903535  W2        28466           0.0000000000
     80639     26880  TIP3      H1            -10.1314366405       52.6010377139       30.1668503535  W2        28466           0.0000000000
     80640     26880  TIP3      H2             -9.3072066405       52.8082977139       31.4196703535  W2        28466           0.0000000000
     80641     26881  TIP3      OH2           -11.0367666405       48.5202277139       31.8756703535  W2        28467           0.0000000000
     80642     26881  TIP3      H1            -10.4715166405       48.6416477139       31.1127903535  W2        28467           0.0000000000
     80643     26881  TIP3      H2            -10.7178766405       49.1577277139       32.5145203535  W2        28467           0.0000000000
     80644     26882  TIP3      OH2            -4.7275466405       54.0234177139       32.6097203535  W2        28468           0.0000000000
     80645     26882  TIP3      H1             -4.9678866405       54.6857277139       33.2576403535  W2        28468           0.0000000000
     80646     26882  TIP3      H2             -4.9257266405       53.1889377139       33.0346803535  W2        28468           0.0000000000
     80647     26883  TIP3      OH2            -4.1777366405       48.2833377139       24.0447903535  W2        28470           0.0000000000
     80648     26883  TIP3      H1             -3.5981866405       48.4333677139       24.7916803535  W2        28470           0.0000000000
     80649     26883  TIP3      H2             -3.7637366405       48.7540777139       23.3214303535  W2        28470           0.0000000000
     80650     26884  TIP3      OH2            -0.4788966405       40.0333777139       23.8577603535  W2        28473           0.0000000000
     80651     26884  TIP3      H1             -1.3788266405       40.1722777139       24.1528203535  W2        28473           0.0000000000
     80652     26884  TIP3      H2             -0.2270566405       40.8648377139       23.4559303535  W2        28473           0.0000000000
     80653     26885  TIP3      OH2           -12.4130466405       48.8210977139       25.8314503535  W2        28474           0.0000000000
     80654     26885  TIP3      H1            -12.7049166405       49.5892677139       25.3405803535  W2        28474           0.0000000000
     80655     26885  TIP3      H2            -13.0875266405       48.1617177139       25.6685903535  W2        28474           0.0000000000
     80656     26886  TIP3      OH2             0.7102433595       54.3996177139       22.2341503535  W2        28475           0.0000000000
     80657     26886  TIP3      H1              0.7835933595       55.3386377139       22.4046803535  W2        28475           0.0000000000
     80658     26886  TIP3      H2              1.6157533595       54.0944777139       22.1778803535  W2        28475           0.0000000000
     80659     26887  TIP3      OH2           -16.3200366405       51.1840177139       34.6464303535  W2        28476           0.0000000000
     80660     26887  TIP3      H1            -16.8211966405       51.1559577139       33.8314003535  W2        28476           0.0000000000
     80661     26887  TIP3      H2            -16.3146666405       50.2783377139       34.9561603535  W2        28476           0.0000000000
     80662     26888  TIP3      OH2           -16.5697666405       53.9643977139       31.5304503535  W2        28477           0.0000000000
     80663     26888  TIP3      H1            -15.6237066405       53.8200977139       31.5114003535  W2        28477           0.0000000000
     80664     26888  TIP3      H2            -16.6821366405       54.7486777139       32.0675703535  W2        28477           0.0000000000
     80665     26889  TIP3      OH2           -11.4521866405       40.9776077139       31.6851303535  W2        28482           0.0000000000
     80666     26889  TIP3      H1            -12.3138166405       40.8904277139       31.2774203535  W2        28482           0.0000000000
     80667     26889  TIP3      H2            -11.4746166405       41.8336177139       32.1128903535  W2        28482           0.0000000000
     80668     26890  TIP3      OH2            -6.7894066405       40.6996477139       35.0598303535  W2        28483           0.0000000000
     80669     26890  TIP3      H1             -6.3690966405       40.2843577139       35.8128903535  W2        28483           0.0000000000
     80670     26890  TIP3      H2             -7.7224466405       40.5209777139       35.1770303535  W2        28483           0.0000000000
     80671     26891  TIP3      OH2            -2.7004266405       49.3161677139       21.6745803535  W2        28485           0.0000000000
     80672     26891  TIP3      H1             -2.6583466405       49.0935577139       20.7445803535  W2        28485           0.0000000000
     80673     26891  TIP3      H2             -1.8512166405       49.7148777139       21.8645703535  W2        28485           0.0000000000
     80674     26892  TIP3      OH2            -7.1276766405       43.1919877139       22.3449103535  W2        28486           0.0000000000
     80675     26892  TIP3      H1             -7.3811966405       43.2111477139       23.2677203535  W2        28486           0.0000000000
     80676     26892  TIP3      H2             -7.3844666405       42.3205277139       22.0435303535  W2        28486           0.0000000000
     80677     26893  TIP3      OH2           -11.3611766405       45.9430577139       32.7801503535  W2        28487           0.0000000000
     80678     26893  TIP3      H1            -12.0029666405       45.9027877139       33.4891603535  W2        28487           0.0000000000
     80679     26893  TIP3      H2            -11.3239766405       46.8695277139       32.5424503535  W2        28487           0.0000000000
     80680     26894  TIP3      OH2           -11.3642666405       46.1640677139       27.6921503535  W2        28488           0.0000000000
     80681     26894  TIP3      H1            -12.2569766405       45.8236777139       27.6335303535  W2        28488           0.0000000000
     80682     26894  TIP3      H2            -10.9136066405       45.7871577139       26.9364703535  W2        28488           0.0000000000
     80683     26895  TIP3      OH2            -5.8287166405       46.5800977139       26.5092303535  W2        28489           0.0000000000
     80684     26895  TIP3      H1             -6.2376866405       47.3949577139       26.2177103535  W2        28489           0.0000000000
     80685     26895  TIP3      H2             -5.1080966405       46.4401077139       25.8949403535  W2        28489           0.0000000000
     80686     26896  TIP3      OH2            -4.8239466405       46.0261377139       29.3232003535  W2        28491           0.0000000000
     80687     26896  TIP3      H1             -5.0194966405       46.6318177139       28.6082603535  W2        28491           0.0000000000
     80688     26896  TIP3      H2             -4.6426866405       45.1926577139       28.8888303535  W2        28491           0.0000000000
     80689     26897  TIP3      OH2           -13.6111266405       46.2634077139       34.6473503535  W2        28492           0.0000000000
     80690     26897  TIP3      H1            -13.6491866405       46.6635677139       35.5160603535  W2        28492           0.0000000000
     80691     26897  TIP3      H2            -14.1020166405       45.4466477139       34.7376403535  W2        28492           0.0000000000
     80692     26898  TIP3      OH2           -10.2453866405       43.6376377139       21.4459503535  W2        28493           0.0000000000
     80693     26898  TIP3      H1            -10.6763166405       43.1926477139       22.1756903535  W2        28493           0.0000000000
     80694     26898  TIP3      H2            -10.9635166405       44.0092677139       20.9337003535  W2        28493           0.0000000000
     80695     26899  TIP3      OH2           -17.0030466405       43.3795877139       28.4978203535  W2        28494           0.0000000000
     80696     26899  TIP3      H1            -16.3722766405       43.3507977139       29.2172103535  W2        28494           0.0000000000
     80697     26899  TIP3      H2            -16.5536166405       42.9544577139       27.7674103535  W2        28494           0.0000000000
     80698     26900  TIP3      OH2           -15.7288366405       44.1257877139       23.9218603535  W2        28495           0.0000000000
     80699     26900  TIP3      H1            -15.2546666405       44.7167777139       23.3369503535  W2        28495           0.0000000000
     80700     26900  TIP3      H2            -16.4461966405       44.6560777139       24.2688703535  W2        28495           0.0000000000
     80701     26901  TIP3      OH2            -5.5600266405       47.6642677139       33.9944403535  W2        28496           0.0000000000
     80702     26901  TIP3      H1             -5.2365466405       47.0332377139       33.3514903535  W2        28496           0.0000000000
     80703     26901  TIP3      H2             -6.0000966405       47.1294877139       34.6551803535  W2        28496           0.0000000000
     80704     26902  TIP3      OH2            -8.7827366405       43.5918177139       28.7785603535  W2        28497           0.0000000000
     80705     26902  TIP3      H1             -9.6936266405       43.6484977139       29.0671603535  W2        28497           0.0000000000
     80706     26902  TIP3      H2             -8.2774466405       43.5313677139       29.5892803535  W2        28497           0.0000000000
     80707     26903  TIP3      OH2           -13.9543966405       45.2204477139       27.6053203535  W2        28498           0.0000000000
     80708     26903  TIP3      H1            -14.8435966405       45.3199977139       27.2652803535  W2        28498           0.0000000000
     80709     26903  TIP3      H2            -13.6579066405       44.3787477139       27.2591103535  W2        28498           0.0000000000
     80710     26904  TIP3      OH2           -10.3012166405       45.2207077139       25.2617803535  W2        28499           0.0000000000
     80711     26904  TIP3      H1             -9.3696666405       45.3497077139       25.4400903535  W2        28499           0.0000000000
     80712     26904  TIP3      H2            -10.5161866405       45.8901377139       24.6122503535  W2        28499           0.0000000000
     80713     26905  TIP3      OH2            -4.3775466405       42.8264477139       32.0427403535  W2        28500           0.0000000000
     80714     26905  TIP3      H1             -5.0543866405       42.9577577139       32.7067103535  W2        28500           0.0000000000
     80715     26905  TIP3      H2             -4.8630566405       42.6713977139       31.2325103535  W2        28500           0.0000000000
     80716     26906  TIP3      OH2           -11.6271966405       46.4149277139       22.8283903535  W2        28501           0.0000000000
     80717     26906  TIP3      H1            -12.1696866405       46.0353077139       22.1371503535  W2        28501           0.0000000000
     80718     26906  TIP3      H2            -10.7937066405       46.6093977139       22.3998003535  W2        28501           0.0000000000
     80719     26907  TIP3      OH2            -7.4627666405       46.3791177139       30.6655203535  W2        28503           0.0000000000
     80720     26907  TIP3      H1             -6.8984266405       45.8327777139       30.1184803535  W2        28503           0.0000000000
     80721     26907  TIP3      H2             -7.6104266405       45.8573077139       31.4542803535  W2        28503           0.0000000000
     80722     26908  TIP3      OH2           -12.4607966405       42.5157277139       27.0840003535  W2        28504           0.0000000000
     80723     26908  TIP3      H1            -12.7778466405       41.6132577139       27.0485403535  W2        28504           0.0000000000
     80724     26908  TIP3      H2            -11.6793866405       42.5174677139       26.5311603535  W2        28504           0.0000000000
     80725     26909  TIP3      OH2            -8.8361766405       44.7677277139       33.0795603535  W2        28505           0.0000000000
     80726     26909  TIP3      H1             -9.6716466405       45.2216777139       33.1898003535  W2        28505           0.0000000000
     80727     26909  TIP3      H2             -8.3121166405       45.0435777139       33.8315503535  W2        28505           0.0000000000
     80728     26910  TIP3      OH2            -8.2919166405       50.9804977139       24.7642003535  W2        28506           0.0000000000
     80729     26910  TIP3      H1             -9.0368166405       50.4730277139       24.4419903535  W2        28506           0.0000000000
     80730     26910  TIP3      H2             -8.4261966405       51.0292977139       25.7106803535  W2        28506           0.0000000000
     80731     26911  TIP3      OH2            -1.1420266405       50.1133177139       33.5509603535  W2        28507           0.0000000000
     80732     26911  TIP3      H1             -0.5001466405       50.5699477139       33.0071803535  W2        28507           0.0000000000
     80733     26911  TIP3      H2             -1.9723366405       50.2265577139       33.0883703535  W2        28507           0.0000000000
     80734     26912  TIP3      OH2            -4.3942366405       43.7944877139       22.9634603535  W2        28508           0.0000000000
     80735     26912  TIP3      H1             -5.3328166405       43.9060477139       22.8123403535  W2        28508           0.0000000000
     80736     26912  TIP3      H2             -4.0970266405       44.6511777139       23.2700303535  W2        28508           0.0000000000
     80737     26913  TIP3      OH2            -3.6758866405       45.6617577139       24.6242003535  W2        28510           0.0000000000
     80738     26913  TIP3      H1             -2.7839866405       45.5242577139       24.9433203535  W2        28510           0.0000000000
     80739     26913  TIP3      H2             -3.6195266405       46.4523677139       24.0875503535  W2        28510           0.0000000000
     80740     26914  TIP3      OH2           -13.1670866405       50.2754977139       30.5339903535  W2        28511           0.0000000000
     80741     26914  TIP3      H1            -12.4223666405       50.2730677139       29.9326403535  W2        28511           0.0000000000
     80742     26914  TIP3      H2            -13.0894266405       49.4518777139       31.0155003535  W2        28511           0.0000000000
     80743     26915  TIP3      OH2            -6.1665066405       52.4389277139       23.7896603535  W2        28512           0.0000000000
     80744     26915  TIP3      H1             -6.4616666405       53.2657177139       24.1711403535  W2        28512           0.0000000000
     80745     26915  TIP3      H2             -6.8695066405       51.8196177139       23.9858003535  W2        28512           0.0000000000
     80746     26916  TIP3      OH2             1.2089833595       45.8711677139       24.3188703535  W2        28516           0.0000000000
     80747     26916  TIP3      H1              0.6546133595       45.4749677139       23.6466203535  W2        28516           0.0000000000
     80748     26916  TIP3      H2              1.3093433595       46.7816877139       24.0412003535  W2        28516           0.0000000000
     80749     26917  TIP3      OH2            -0.4958466405       54.6572077139       24.7840803535  W2        28518           0.0000000000
     80750     26917  TIP3      H1             -0.8687366405       53.8315877139       25.0931403535  W2        28518           0.0000000000
     80751     26917  TIP3      H2             -0.2184966405       54.4741477139       23.8864203535  W2        28518           0.0000000000
     80752     26918  TIP3      OH2            -3.3354566405       49.4651577139       31.8052703535  W2        28519           0.0000000000
     80753     26918  TIP3      H1             -4.2637666405       49.2333477139       31.7782003535  W2        28519           0.0000000000
     80754     26918  TIP3      H2             -2.8843466405       48.6881377139       31.4751503535  W2        28519           0.0000000000
     80755     26919  TIP3      OH2           -10.7921466405       53.7933177139       27.9381403535  W2        28520           0.0000000000
     80756     26919  TIP3      H1            -10.2649266405       54.5667577139       27.7380203535  W2        28520           0.0000000000
     80757     26919  TIP3      H2            -11.6722966405       54.0182377139       27.6365403535  W2        28520           0.0000000000
     80758     26920  TIP3      OH2           -15.0373766405       48.6557277139       22.5253803535  W2        28521           0.0000000000
     80759     26920  TIP3      H1            -14.4213866405       49.2824477139       22.9048603535  W2        28521           0.0000000000
     80760     26920  TIP3      H2            -15.8991166405       48.9717077139       22.7970303535  W2        28521           0.0000000000
     80761     26921  TIP3      OH2            -9.3649166405       51.4563077139       27.5145703535  W2        28522           0.0000000000
     80762     26921  TIP3      H1             -9.6059166405       52.3817477139       27.5561003535  W2        28522           0.0000000000
     80763     26921  TIP3      H2            -10.1055566405       50.9974377139       27.9109603535  W2        28522           0.0000000000
     80764     26922  TIP3      OH2            -5.3061766405       51.7047377139       33.5302403535  W2        28523           0.0000000000
     80765     26922  TIP3      H1             -5.7320466405       51.4769077139       34.3566403535  W2        28523           0.0000000000
     80766     26922  TIP3      H2             -4.7255966405       50.9659177139       33.3477703535  W2        28523           0.0000000000
     80767     26923  TIP3      OH2            -3.1032866405       52.6337877139       22.6041403535  W2        28524           0.0000000000
     80768     26923  TIP3      H1             -2.7499766405       52.2537677139       23.4084903535  W2        28524           0.0000000000
     80769     26923  TIP3      H2             -4.0519366405       52.5402677139       22.6910703535  W2        28524           0.0000000000
     80770     26924  TIP3      OH2           -14.5251666405       43.4894577139       35.4069803535  W2        28525           0.0000000000
     80771     26924  TIP3      H1            -15.4179366405       43.8279977139       35.3393803535  W2        28525           0.0000000000
     80772     26924  TIP3      H2            -14.6238866405       42.6340677139       35.8250603535  W2        28525           0.0000000000
     80773     26925  TIP3      OH2            -2.2373566405       51.3059877139       24.8309303535  W2        28526           0.0000000000
     80774     26925  TIP3      H1             -2.5145966405       50.5779177139       25.3870403535  W2        28526           0.0000000000
     80775     26925  TIP3      H2             -1.3100566405       51.4251877139       25.0361903535  W2        28526           0.0000000000
     80776     26926  TIP3      OH2            -9.0125066405       53.7453977139       21.0511403535  W2        28527           0.0000000000
     80777     26926  TIP3      H1             -8.7735266405       52.9972077139       20.5040303535  W2        28527           0.0000000000
     80778     26926  TIP3      H2             -9.2813766405       53.3575677139       21.8839203535  W2        28527           0.0000000000
     80779     26927  TIP3      OH2           -10.0754466405       53.3157777139       23.5074003535  W2        28528           0.0000000000
     80780     26927  TIP3      H1             -9.9286466405       52.7957577139       24.2974903535  W2        28528           0.0000000000
     80781     26927  TIP3      H2            -10.0782766405       54.2225377139       23.8139903535  W2        28528           0.0000000000
     80782     26928  TIP3      OH2           -13.6223366405       50.5681077139       24.0179403535  W2        28529           0.0000000000
     80783     26928  TIP3      H1            -14.3084066405       50.9203577139       24.5849103535  W2        28529           0.0000000000
     80784     26928  TIP3      H2            -13.0995466405       51.3310677139       23.7713703535  W2        28529           0.0000000000
     80785     26929  TIP3      OH2            -5.7908266405       43.2304877139       34.2968403535  W2        28530           0.0000000000
     80786     26929  TIP3      H1             -5.0920366405       43.3043577139       34.9468103535  W2        28530           0.0000000000
     80787     26929  TIP3      H2             -6.1716866405       42.3659877139       34.4511303535  W2        28530           0.0000000000
     80788     26930  TIP3      OH2            -5.0063366405       42.8826577139       25.3940703535  W2        28531           0.0000000000
     80789     26930  TIP3      H1             -4.7865066405       43.3541977139       24.5906103535  W2        28531           0.0000000000
     80790     26930  TIP3      H2             -4.4479366405       43.2769177139       26.0641303535  W2        28531           0.0000000000
     80791     26931  TIP3      OH2            -7.8063466405       44.6105377139       26.2289103535  W2        28532           0.0000000000
     80792     26931  TIP3      H1             -6.9940866405       45.1148577139       26.2750803535  W2        28532           0.0000000000
     80793     26931  TIP3      H2             -8.0510466405       44.4655077139       27.1428703535  W2        28532           0.0000000000
     80794     26932  TIP3      OH2            -7.2707066405       45.5968077139       35.4135703535  W2        28533           0.0000000000
     80795     26932  TIP3      H1             -7.1516766405       46.1703477139       36.1706103535  W2        28533           0.0000000000
     80796     26932  TIP3      H2             -6.6152466405       44.9087477139       35.5283503535  W2        28533           0.0000000000
     80797     26933  TIP3      OH2            -6.9226766405       41.6918377139       27.1670203535  W2        28534           0.0000000000
     80798     26933  TIP3      H1             -7.2693266405       42.3088977139       27.8114503535  W2        28534           0.0000000000
     80799     26933  TIP3      H2             -6.2639866405       42.1924077139       26.6855703535  W2        28534           0.0000000000
     80800     26934  TIP3      OH2           -11.2649766405       42.7547777139       23.8542703535  W2        28535           0.0000000000
     80801     26934  TIP3      H1            -11.3484966405       43.6430877139       24.2009103535  W2        28535           0.0000000000
     80802     26934  TIP3      H2            -10.3749466405       42.4894477139       24.0859503535  W2        28535           0.0000000000
     80803     26935  TIP3      OH2            -2.4640266405       47.2539377139       30.3442703535  W2        28537           0.0000000000
     80804     26935  TIP3      H1             -3.2615866405       46.8389577139       30.0157703535  W2        28537           0.0000000000
     80805     26935  TIP3      H2             -2.0189166405       46.5633077139       30.8353203535  W2        28537           0.0000000000
     80806     26936  TIP3      OH2           -13.0064466405       53.1819977139       22.9147203535  W2        28538           0.0000000000
     80807     26936  TIP3      H1            -12.4142966405       53.8814777139       23.1909603535  W2        28538           0.0000000000
     80808     26936  TIP3      H2            -12.5471466405       52.7489477139       22.1951803535  W2        28538           0.0000000000
     80809     26937  TIP3      OH2           -14.6905266405       45.8462977139       22.0306603535  W2        28539           0.0000000000
     80810     26937  TIP3      H1            -14.7352666405       46.7856077139       22.2093603535  W2        28539           0.0000000000
     80811     26937  TIP3      H2            -15.5782066405       45.6107877139       21.7608703535  W2        28539           0.0000000000
     80812     26938  TIP3      OH2           -13.8823266405       40.6279577139       30.7037603535  W2        28540           0.0000000000
     80813     26938  TIP3      H1            -14.1113466405       40.6872077139       29.7762603535  W2        28540           0.0000000000
     80814     26938  TIP3      H2            -14.3249866405       39.8365077139       31.0101703535  W2        28540           0.0000000000
     80815     26939  TIP3      OH2           -14.9519966405       54.5686677139       26.8643403535  W2        28541           0.0000000000
     80816     26939  TIP3      H1            -15.7841366405       55.0409377139       26.8914803535  W2        28541           0.0000000000
     80817     26939  TIP3      H2            -14.4061666405       55.0784277139       26.2656503535  W2        28541           0.0000000000
     80818     26940  TIP3      OH2           -11.4153066405       51.3350177139       21.2810303535  W2        28544           0.0000000000
     80819     26940  TIP3      H1            -11.3508966405       50.5409777139       21.8116703535  W2        28544           0.0000000000
     80820     26940  TIP3      H2            -10.7623866405       51.2162977139       20.5912303535  W2        28544           0.0000000000
     80821     26941  TIP3      OH2            -6.0629666405       52.3821877139       21.0168303535  W2        28546           0.0000000000
     80822     26941  TIP3      H1             -6.3315566405       52.5623977139       21.9177203535  W2        28546           0.0000000000
     80823     26941  TIP3      H2             -6.2694066405       51.4568077139       20.8854103535  W2        28546           0.0000000000
     80824     26942  TIP3      OH2           -10.2659266405       49.3076377139       23.5868303535  W2        28549           0.0000000000
     80825     26942  TIP3      H1            -10.7257266405       48.8234677139       24.2726803535  W2        28549           0.0000000000
     80826     26942  TIP3      H2            -10.0110566405       48.6391777139       22.9508803535  W2        28549           0.0000000000
     80827     26943  TIP3      OH2            -9.1948866405       47.5508177139       21.8491503535  W2        28551           0.0000000000
     80828     26943  TIP3      H1             -9.3753866405       47.3959377139       20.9219803535  W2        28551           0.0000000000
     80829     26943  TIP3      H2             -8.2448366405       47.6586877139       21.8939403535  W2        28551           0.0000000000
     80830     26944  TIP3      OH2             0.1949433595       49.9052377139       21.2949603535  W2        28553           0.0000000000
     80831     26944  TIP3      H1             -0.0785766405       49.4807877139       20.4817903535  W2        28553           0.0000000000
     80832     26944  TIP3      H2              0.2343533595       50.8366877139       21.0780003535  W2        28553           0.0000000000
     80833     26945  TIP3      OH2           -10.2250566405       42.9250077139       34.5178403535  W2        28555           0.0000000000
     80834     26945  TIP3      H1             -9.6893066405       43.3766777139       33.8657703535  W2        28555           0.0000000000
     80835     26945  TIP3      H2            -11.0770966405       42.8169877139       34.0952503535  W2        28555           0.0000000000
     80836     26946  TIP3      OH2            -8.6432166405       48.3646277139       34.7573603535  W2        28556           0.0000000000
     80837     26946  TIP3      H1             -7.8927366405       48.2083777139       34.1841403535  W2        28556           0.0000000000
     80838     26946  TIP3      H2             -8.9823866405       49.2162877139       34.4819103535  W2        28556           0.0000000000
     80839     26947  TIP3      OH2            -9.4195066405       40.3815777139       34.9492003535  W2        28560           0.0000000000
     80840     26947  TIP3      H1             -9.5175466405       41.3278977139       34.8438203535  W2        28560           0.0000000000
     80841     26947  TIP3      H2            -10.1618866405       40.0089577139       34.4735503535  W2        28560           0.0000000000
     80842     26948  TIP3      OH2           -15.7292266405       52.8775677139       22.3333203535  W2        28567           0.0000000000
     80843     26948  TIP3      H1            -14.8153066405       52.9564577139       22.6067103535  W2        28567           0.0000000000
     80844     26948  TIP3      H2            -15.7219166405       52.1905277139       21.6668803535  W2        28567           0.0000000000
     80845     26949  TIP3      OH2             0.6532233595       50.7740477139       25.2700003535  W2        28569           0.0000000000
     80846     26949  TIP3      H1              1.5033633595       51.1951377139       25.3971603535  W2        28569           0.0000000000
     80847     26949  TIP3      H2              0.6587333595       50.0340577139       25.8771403535  W2        28569           0.0000000000
     80848     26950  TIP3      OH2             1.0477833595       48.8277877139       27.0935703535  W2        28570           0.0000000000
     80849     26950  TIP3      H1              0.3212433595       48.3480477139       27.4913303535  W2        28570           0.0000000000
     80850     26950  TIP3      H2              1.6291133595       49.0332577139       27.8257303535  W2        28570           0.0000000000
     80851     26951  TIP3      OH2             0.8069033595       51.6125377139       32.0413303535  W2        28571           0.0000000000
     80852     26951  TIP3      H1              1.6403233595       51.2345377139       31.7606903535  W2        28571           0.0000000000
     80853     26951  TIP3      H2              0.9189333595       52.5556577139       31.9222403535  W2        28571           0.0000000000
     80854     26952  TIP3      OH2            -0.7068666405       54.4902877139       34.3481703535  W2        28572           0.0000000000
     80855     26952  TIP3      H1             -1.3543366405       54.8154377139       34.9736903535  W2        28572           0.0000000000
     80856     26952  TIP3      H2             -1.2244666405       54.0500577139       33.6740003535  W2        28572           0.0000000000
     80857     26953  TIP3      OH2             1.3160933595       48.7286377139       23.4847003535  W2        28573           0.0000000000
     80858     26953  TIP3      H1              0.7942033595       49.0850477139       22.7657903535  W2        28573           0.0000000000
     80859     26953  TIP3      H2              1.2830133595       49.4034177139       24.1627903535  W2        28573           0.0000000000
     80860     26954  TIP3      OH2            -0.3350066405       45.9681977139       22.0354103535  W2        28574           0.0000000000
     80861     26954  TIP3      H1             -0.2385666405       46.6348977139       21.3553803535  W2        28574           0.0000000000
     80862     26954  TIP3      H2             -0.4750466405       45.1528277139       21.5539603535  W2        28574           0.0000000000
     80863     26955  TIP3      OH2            -1.1655366405       47.3484377139       27.6564403535  W2        28575           0.0000000000
     80864     26955  TIP3      H1             -1.3156566405       46.4032977139       27.6362203535  W2        28575           0.0000000000
     80865     26955  TIP3      H2             -1.5190866405       47.6295777139       28.5003503535  W2        28575           0.0000000000
     80866     26956  TIP3      OH2           -16.1302966405       49.4266577139       31.6668203535  W2        28576           0.0000000000
     80867     26956  TIP3      H1            -15.9460066405       49.3448277139       30.7311103535  W2        28576           0.0000000000
     80868     26956  TIP3      H2            -15.2810066405       49.3023577139       32.0904603535  W2        28576           0.0000000000
     80869     26957  TIP3      OH2            -1.0876266405       43.3761777139       21.1529603535  W2        28579           0.0000000000
     80870     26957  TIP3      H1             -0.4770466405       43.0048577139       21.7897803535  W2        28579           0.0000000000
     80871     26957  TIP3      H2             -1.9244766405       42.9548677139       21.3489603535  W2        28579           0.0000000000
     80872     26958  TIP3      OH2            -1.4550566405       44.9310177139       26.1189503535  W2        28580           0.0000000000
     80873     26958  TIP3      H1             -1.1753466405       44.0240577139       26.2431203535  W2        28580           0.0000000000
     80874     26958  TIP3      H2             -0.6958866405       45.3651677139       25.7298703535  W2        28580           0.0000000000
     80875     26959  TIP3      OH2            -0.8432266405       45.5127577139       31.5548403535  W2        28581           0.0000000000
     80876     26959  TIP3      H1              0.0895733595       45.7247477139       31.5204403535  W2        28581           0.0000000000
     80877     26959  TIP3      H2             -1.0784766405       45.6139677139       32.4771403535  W2        28581           0.0000000000
     80878     26960  TIP3      OH2            -0.8140366405       46.2492877139       34.3307803535  W2        28582           0.0000000000
     80879     26960  TIP3      H1             -1.6569066405       46.5173277139       34.6967603535  W2        28582           0.0000000000
     80880     26960  TIP3      H2             -0.3716066405       47.0714777139       34.1198903535  W2        28582           0.0000000000
     80881     26961  TIP3      OH2            -0.8415766405       42.1939477139       26.1671503535  W2        28585           0.0000000000
     80882     26961  TIP3      H1             -0.6590766405       41.7450977139       26.9926503535  W2        28585           0.0000000000
     80883     26961  TIP3      H2             -1.4412866405       41.6093877139       25.7036103535  W2        28585           0.0000000000
     80884     26962  TIP3      OH2           -15.3115666405       43.0093177139       30.6989903535  W2        28586           0.0000000000
     80885     26962  TIP3      H1            -14.8664066405       42.2175677139       31.0009603535  W2        28586           0.0000000000
     80886     26962  TIP3      H2            -14.8452666405       43.7258377139       31.1295503535  W2        28586           0.0000000000
     80887     26963  TIP3      OH2           -17.0075366405       46.0086177139       31.7680103535  W2        28587           0.0000000000
     80888     26963  TIP3      H1            -16.5155566405       45.7876677139       30.9772103535  W2        28587           0.0000000000
     80889     26963  TIP3      H2            -16.6454466405       46.8489577139       32.0489603535  W2        28587           0.0000000000
     80890     26964  TIP3      OH2             1.0250433595       42.2617577139       22.6951803535  W2        28589           0.0000000000
     80891     26964  TIP3      H1              1.4373033595       41.5403277139       22.2199803535  W2        28589           0.0000000000
     80892     26964  TIP3      H2              1.7066933595       42.9312177139       22.7536103535  W2        28589           0.0000000000
     80893     26965  TIP3      OH2           -16.6938866405       42.2665277139       25.8222503535  W2        28590           0.0000000000
     80894     26965  TIP3      H1            -17.6190466405       42.4751877139       25.6928003535  W2        28590           0.0000000000
     80895     26965  TIP3      H2            -16.2398966405       42.7506077139       25.1324803535  W2        28590           0.0000000000
     80896     26966  TIP3      OH2           -16.7303466405       41.0044277139       34.1665003535  W2        28591           0.0000000000
     80897     26966  TIP3      H1            -17.3952966405       40.7584577139       34.8095903535  W2        28591           0.0000000000
     80898     26966  TIP3      H2            -17.1732166405       41.6264677139       33.5893003535  W2        28591           0.0000000000
     80899     26967  TIP3      OH2            -6.5807166405       41.8774577139       30.1753103535  W2        28594           0.0000000000
     80900     26967  TIP3      H1             -7.2550366405       41.2480177139       30.4308903535  W2        28594           0.0000000000
     80901     26967  TIP3      H2             -6.0167966405       41.3933477139       29.5721003535  W2        28594           0.0000000000
     80902     26968  TIP3      OH2            -1.4379966405       39.9848577139       30.2880203535  W2        28595           0.0000000000
     80903     26968  TIP3      H1             -0.8342366405       40.5323977139       29.7861203535  W2        28595           0.0000000000
     80904     26968  TIP3      H2             -2.3077966405       40.3038977139       30.0474303535  W2        28595           0.0000000000
     80905     26969  TIP3      OH2             0.2890433595       41.1237277139       28.6211103535  W2        28596           0.0000000000
     80906     26969  TIP3      H1              0.9007933595       40.6092977139       28.0944703535  W2        28596           0.0000000000
     80907     26969  TIP3      H2              0.6713833595       42.0009377139       28.6445503535  W2        28596           0.0000000000
     80908     26970  TIP3      OH2           -14.2539666405       40.5114877139       27.9973003535  W2        28597           0.0000000000
     80909     26970  TIP3      H1            -15.0309866405       40.2769777139       27.4898903535  W2        28597           0.0000000000
     80910     26970  TIP3      H2            -13.7236066405       39.7146977139       28.0061003535  W2        28597           0.0000000000
     80911     26971  TIP3      OH2           -15.4176266405       40.3092977139       23.8009103535  W2        28598           0.0000000000
     80912     26971  TIP3      H1            -14.9785566405       40.9203477139       23.2092603535  W2        28598           0.0000000000
     80913     26971  TIP3      H2            -16.0513866405       40.8477077139       24.2749103535  W2        28598           0.0000000000
     80914     26972  TIP3      OH2            -9.6747066405       40.4381977139       27.8106103535  W2        28599           0.0000000000
     80915     26972  TIP3      H1             -8.8003666405       40.8266277139       27.7810403535  W2        28599           0.0000000000
     80916     26972  TIP3      H2             -9.8106266405       40.2229777139       28.7333303535  W2        28599           0.0000000000
     80917     26973  TIP3      OH2            -4.1178666405       40.4681777139       29.4597803535  W2        28600           0.0000000000
     80918     26973  TIP3      H1             -4.0417066405       40.5633377139       28.5103803535  W2        28600           0.0000000000
     80919     26973  TIP3      H2             -4.3929466405       39.5604677139       29.5886903535  W2        28600           0.0000000000
     80920     26974  TIP3      OH2            -2.7646066405       40.4939577139       25.1522803535  W2        28601           0.0000000000
     80921     26974  TIP3      H1             -3.4674966405       41.1088777139       24.9424203535  W2        28601           0.0000000000
     80922     26974  TIP3      H2             -3.2094666405       39.6566277139       25.2833703535  W2        28601           0.0000000000
     80923     26975  TIP3      OH2           -13.5567166405       42.2254477139       22.2433203535  W2        28602           0.0000000000
     80924     26975  TIP3      H1            -13.0653766405       41.5956877139       21.7158703535  W2        28602           0.0000000000
     80925     26975  TIP3      H2            -12.9330866405       42.5213877139       22.9064403535  W2        28602           0.0000000000
     80926     26976  TIP3      OH2            -8.5307066405       42.5185977139       24.7003703535  W2        28603           0.0000000000
     80927     26976  TIP3      H1             -8.3525766405       41.8719177139       25.3832303535  W2        28603           0.0000000000
     80928     26976  TIP3      H2             -8.5840866405       43.3523677139       25.1674803535  W2        28603           0.0000000000
     80929     26977  TIP3      OH2            13.6802933595       49.6677177139       27.9560503535  W2        28607           0.0000000000
     80930     26977  TIP3      H1             13.7694033595       50.6115377139       27.8237603535  W2        28607           0.0000000000
     80931     26977  TIP3      H2             13.0420533595       49.3923577139       27.2979903535  W2        28607           0.0000000000
     80932     26978  TIP3      OH2            12.6134233595       48.9227877139       31.3748703535  W2        28608           0.0000000000
     80933     26978  TIP3      H1             12.5751733595       48.2764177139       32.0798303535  W2        28608           0.0000000000
     80934     26978  TIP3      H2             12.2910733595       48.4562277139       30.6037403535  W2        28608           0.0000000000
     80935     26979  TIP3      OH2             4.9819233595       48.5369977139       32.9678603535  W2        28609           0.0000000000
     80936     26979  TIP3      H1              5.0231333595       47.9113277139       33.6911003535  W2        28609           0.0000000000
     80937     26979  TIP3      H2              5.6846933595       49.1608577139       33.1499003535  W2        28609           0.0000000000
     80938     26980  TIP3      OH2            16.3194433595       51.8618277139       29.6763803535  W2        28610           0.0000000000
     80939     26980  TIP3      H1             15.8787133595       51.1414277139       30.1269403535  W2        28610           0.0000000000
     80940     26980  TIP3      H2             16.3064133595       52.5825477139       30.3061503535  W2        28610           0.0000000000
     80941     26981  TIP3      OH2             5.9052333595       52.9868877139       31.5027703535  W2        28611           0.0000000000
     80942     26981  TIP3      H1              5.5357533595       52.1849377139       31.1332003535  W2        28611           0.0000000000
     80943     26981  TIP3      H2              6.8463433595       52.8183777139       31.5491103535  W2        28611           0.0000000000
     80944     26982  TIP3      OH2             2.5152833595       46.6471477139       26.8956503535  W2        28612           0.0000000000
     80945     26982  TIP3      H1              2.0676233595       47.4930177139       26.8773003535  W2        28612           0.0000000000
     80946     26982  TIP3      H2              1.9544033595       46.0675677139       26.3801603535  W2        28612           0.0000000000
     80947     26983  TIP3      OH2             3.2258933595       48.8091077139       29.0214503535  W2        28613           0.0000000000
     80948     26983  TIP3      H1              3.4392433595       48.0392677139       29.5487503535  W2        28613           0.0000000000
     80949     26983  TIP3      H2              3.9636533595       48.8987777139       28.4182103535  W2        28613           0.0000000000
     80950     26984  TIP3      OH2            11.0028633595       51.3549277139       31.7809703535  W2        28614           0.0000000000
     80951     26984  TIP3      H1             11.3066533595       50.6690677139       31.1863803535  W2        28614           0.0000000000
     80952     26984  TIP3      H2             11.7242633595       51.4737977139       32.3987703535  W2        28614           0.0000000000
     80953     26985  TIP3      OH2            19.6658433595       42.9564577139       32.6415903535  W2        28615           0.0000000000
     80954     26985  TIP3      H1             19.7150633595       43.5665777139       33.3775003535  W2        28615           0.0000000000
     80955     26985  TIP3      H2             20.0913533595       43.4175477139       31.9187003535  W2        28615           0.0000000000
     80956     26986  TIP3      OH2            14.1435633595       45.7491677139       32.1084503535  W2        28616           0.0000000000
     80957     26986  TIP3      H1             14.2861533595       44.8028677139       32.1286103535  W2        28616           0.0000000000
     80958     26986  TIP3      H2             14.0374633595       45.9561477139       31.1799403535  W2        28616           0.0000000000
     80959     26987  TIP3      OH2             7.2983933595       43.8508077139       29.3809303535  W2        28617           0.0000000000
     80960     26987  TIP3      H1              7.3415033595       44.7106577139       28.9625603535  W2        28617           0.0000000000
     80961     26987  TIP3      H2              6.8408033595       43.2982777139       28.7472503535  W2        28617           0.0000000000
     80962     26988  TIP3      OH2            15.0206633595       43.9813677139       27.7817603535  W2        28618           0.0000000000
     80963     26988  TIP3      H1             15.6670933595       43.6526877139       28.4065203535  W2        28618           0.0000000000
     80964     26988  TIP3      H2             15.5306033595       44.4992677139       27.1589003535  W2        28618           0.0000000000
     80965     26989  TIP3      OH2             3.9185433595       46.2473877139       30.1430703535  W2        28619           0.0000000000
     80966     26989  TIP3      H1              4.5722033595       45.6975577139       30.5750803535  W2        28619           0.0000000000
     80967     26989  TIP3      H2              3.9424733595       45.9732877139       29.2262703535  W2        28619           0.0000000000
     80968     26990  TIP3      OH2             9.0749933595       47.7975177139       29.3582203535  W2        28620           0.0000000000
     80969     26990  TIP3      H1              9.6910933595       47.2710577139       29.8676203535  W2        28620           0.0000000000
     80970     26990  TIP3      H2              8.4888733595       47.1573877139       28.9545803535  W2        28620           0.0000000000
     80971     26991  TIP3      OH2            20.0573033595       44.4343777139       34.8775703535  W2        28621           0.0000000000
     80972     26991  TIP3      H1             19.3687633595       45.0924477139       34.7822303535  W2        28621           0.0000000000
     80973     26991  TIP3      H2             20.0727633595       44.2371677139       35.8141103535  W2        28621           0.0000000000
     80974     26992  TIP3      OH2             6.1085833595       42.7686477139       33.4550103535  W2        28622           0.0000000000
     80975     26992  TIP3      H1              5.8897533595       43.2987077139       32.6886103535  W2        28622           0.0000000000
     80976     26992  TIP3      H2              5.4406733595       42.9951977139       34.1021503535  W2        28622           0.0000000000
     80977     26993  TIP3      OH2            13.4775633595       52.2687577139       26.9989203535  W2        28623           0.0000000000
     80978     26993  TIP3      H1             13.1820733595       51.9459877139       26.1476103535  W2        28623           0.0000000000
     80979     26993  TIP3      H2             13.1533433595       53.1684277139       27.0401803535  W2        28623           0.0000000000
     80980     26994  TIP3      OH2             8.6777233595       50.4442177139       33.7423803535  W2        28624           0.0000000000
     80981     26994  TIP3      H1              7.9376333595       51.0423677139       33.8459003535  W2        28624           0.0000000000
     80982     26994  TIP3      H2              9.3916733595       50.9981777139       33.4267403535  W2        28624           0.0000000000
     80983     26995  TIP3      OH2            16.7845033595       43.2722977139       29.7623503535  W2        28625           0.0000000000
     80984     26995  TIP3      H1             16.5693033595       42.5066377139       30.2949503535  W2        28625           0.0000000000
     80985     26995  TIP3      H2             17.4402433595       43.7447577139       30.2752003535  W2        28625           0.0000000000
     80986     26996  TIP3      OH2             5.7023133595       44.6608277139       31.4072303535  W2        28626           0.0000000000
     80987     26996  TIP3      H1              6.3159433595       45.2935877139       31.7804703535  W2        28626           0.0000000000
     80988     26996  TIP3      H2              6.2143833595       44.1883277139       30.7509203535  W2        28626           0.0000000000
     80989     26997  TIP3      OH2             7.0851533595       52.4085177139       34.5295303535  W2        28627           0.0000000000
     80990     26997  TIP3      H1              7.0799133595       53.2878677139       34.1514603535  W2        28627           0.0000000000
     80991     26997  TIP3      H2              6.2315633595       52.3249277139       34.9545203535  W2        28627           0.0000000000
     80992     26998  TIP3      OH2             3.2062433595       52.0793077139       25.3114603535  W2        28628           0.0000000000
     80993     26998  TIP3      H1              2.9343333595       52.3084077139       24.4227503535  W2        28628           0.0000000000
     80994     26998  TIP3      H2              3.2518133595       52.9171877139       25.7719903535  W2        28628           0.0000000000
     80995     26999  TIP3      OH2            16.8312133595       53.7008977139       32.0243103535  W2        28629           0.0000000000
     80996     26999  TIP3      H1             15.8895833595       53.7592877139       32.1860003535  W2        28629           0.0000000000
     80997     26999  TIP3      H2             17.1078233595       54.6069477139       31.8872803535  W2        28629           0.0000000000
     80998     27000  TIP3      OH2            17.1319133595       41.9874277139       33.4417003535  W2        28630           0.0000000000
     80999     27000  TIP3      H1             16.3958333595       42.5981377139       33.4038303535  W2        28630           0.0000000000
     81000     27000  TIP3      H2             17.8153133595       42.4023277139       32.9153403535  W2        28630           0.0000000000
     81001     27001  TIP3      OH2            10.1350533595       40.0741577139       30.9075003535  W2        28631           0.0000000000
     81002     27001  TIP3      H1             10.0174733595       39.1257577139       30.8533303535  W2        28631           0.0000000000
     81003     27001  TIP3      H2              9.2800633595       40.4067677139       31.1806103535  W2        28631           0.0000000000
     81004     27002  TIP3      OH2            16.2429833595       53.3830977139       27.1581303535  W2        28632           0.0000000000
     81005     27002  TIP3      H1             15.9854633595       52.6931077139       26.5467203535  W2        28632           0.0000000000
     81006     27002  TIP3      H2             16.3140633595       52.9402177139       28.0037203535  W2        28632           0.0000000000
     81007     27003  TIP3      OH2            12.4015433595       48.9117177139       25.4080803535  W2        28634           0.0000000000
     81008     27003  TIP3      H1             11.6900933595       49.4466877139       25.0561303535  W2        28634           0.0000000000
     81009     27003  TIP3      H2             13.0925033595       48.9669277139       24.7479703535  W2        28634           0.0000000000
     81010     27004  TIP3      OH2            12.4554633595       47.3691477139       22.4465803535  W2        28635           0.0000000000
     81011     27004  TIP3      H1             13.1564533595       47.3918377139       23.0979803535  W2        28635           0.0000000000
     81012     27004  TIP3      H2             12.7577533595       46.7411177139       21.7905103535  W2        28635           0.0000000000
     81013     27005  TIP3      OH2            19.7709333595       48.2895677139       33.7015203535  W2        28636           0.0000000000
     81014     27005  TIP3      H1             19.1183433595       48.9841277139       33.7906103535  W2        28636           0.0000000000
     81015     27005  TIP3      H2             20.2359633595       48.4996577139       32.8916803535  W2        28636           0.0000000000
     81016     27006  TIP3      OH2            15.8073133595       49.1210477139       26.3596703535  W2        28637           0.0000000000
     81017     27006  TIP3      H1             15.0754133595       49.3494177139       26.9327303535  W2        28637           0.0000000000
     81018     27006  TIP3      H2             16.2545333595       48.4073177139       26.8144203535  W2        28637           0.0000000000
     81019     27007  TIP3      OH2            15.7046633595       47.2953077139       35.4273703535  W2        28638           0.0000000000
     81020     27007  TIP3      H1             15.7845733595       48.0587477139       35.9992203535  W2        28638           0.0000000000
     81021     27007  TIP3      H2             15.1034333595       47.5745477139       34.7368803535  W2        28638           0.0000000000
     81022     27008  TIP3      OH2             7.4526833595       49.7516677139       28.2421703535  W2        28639           0.0000000000
     81023     27008  TIP3      H1              7.1222033595       49.3810077139       27.4238703535  W2        28639           0.0000000000
     81024     27008  TIP3      H2              8.0410933595       49.0810677139       28.5890003535  W2        28639           0.0000000000
     81025     27009  TIP3      OH2             8.8194333595       53.1797277139       30.9233903535  W2        28640           0.0000000000
     81026     27009  TIP3      H1              8.7245633595       52.6010377139       30.1668503535  W2        28640           0.0000000000
     81027     27009  TIP3      H2              9.5487933595       52.8082977139       31.4196703535  W2        28640           0.0000000000
     81028     27010  TIP3      OH2             7.8192333595       48.5202277139       31.8756703535  W2        28641           0.0000000000
     81029     27010  TIP3      H1              8.3844833595       48.6416477139       31.1127903535  W2        28641           0.0000000000
     81030     27010  TIP3      H2              8.1381233595       49.1577277139       32.5145203535  W2        28641           0.0000000000
     81031     27011  TIP3      OH2            14.1284533595       54.0234177139       32.6097203535  W2        28642           0.0000000000
     81032     27011  TIP3      H1             13.8881133595       54.6857277139       33.2576403535  W2        28642           0.0000000000
     81033     27011  TIP3      H2             13.9302733595       53.1889377139       33.0346803535  W2        28642           0.0000000000
     81034     27012  TIP3      OH2            14.6782633595       48.2833377139       24.0447903535  W2        28644           0.0000000000
     81035     27012  TIP3      H1             15.2578133595       48.4333677139       24.7916803535  W2        28644           0.0000000000
     81036     27012  TIP3      H2             15.0922633595       48.7540777139       23.3214303535  W2        28644           0.0000000000
     81037     27013  TIP3      OH2            18.3771033595       40.0333777139       23.8577603535  W2        28647           0.0000000000
     81038     27013  TIP3      H1             17.4771733595       40.1722777139       24.1528203535  W2        28647           0.0000000000
     81039     27013  TIP3      H2             18.6289433595       40.8648377139       23.4559303535  W2        28647           0.0000000000
     81040     27014  TIP3      OH2             6.4429533595       48.8210977139       25.8314503535  W2        28648           0.0000000000
     81041     27014  TIP3      H1              6.1510833595       49.5892677139       25.3405803535  W2        28648           0.0000000000
     81042     27014  TIP3      H2              5.7684733595       48.1617177139       25.6685903535  W2        28648           0.0000000000
     81043     27015  TIP3      OH2            19.5662433595       54.3996177139       22.2341503535  W2        28649           0.0000000000
     81044     27015  TIP3      H1             19.6395933595       55.3386377139       22.4046803535  W2        28649           0.0000000000
     81045     27015  TIP3      H2             20.4717533595       54.0944777139       22.1778803535  W2        28649           0.0000000000
     81046     27016  TIP3      OH2             2.5359633595       51.1840177139       34.6464303535  W2        28650           0.0000000000
     81047     27016  TIP3      H1              2.0348033595       51.1559577139       33.8314003535  W2        28650           0.0000000000
     81048     27016  TIP3      H2              2.5413333595       50.2783377139       34.9561603535  W2        28650           0.0000000000
     81049     27017  TIP3      OH2             2.2862333595       53.9643977139       31.5304503535  W2        28651           0.0000000000
     81050     27017  TIP3      H1              3.2322933595       53.8200977139       31.5114003535  W2        28651           0.0000000000
     81051     27017  TIP3      H2              2.1738633595       54.7486777139       32.0675703535  W2        28651           0.0000000000
     81052     27018  TIP3      OH2             7.4038133595       40.9776077139       31.6851303535  W2        28656           0.0000000000
     81053     27018  TIP3      H1              6.5421833595       40.8904277139       31.2774203535  W2        28656           0.0000000000
     81054     27018  TIP3      H2              7.3813833595       41.8336177139       32.1128903535  W2        28656           0.0000000000
     81055     27019  TIP3      OH2            12.0665933595       40.6996477139       35.0598303535  W2        28657           0.0000000000
     81056     27019  TIP3      H1             12.4869033595       40.2843577139       35.8128903535  W2        28657           0.0000000000
     81057     27019  TIP3      H2             11.1335533595       40.5209777139       35.1770303535  W2        28657           0.0000000000
     81058     27020  TIP3      OH2            16.1555733595       49.3161677139       21.6745803535  W2        28659           0.0000000000
     81059     27020  TIP3      H1             16.1976533595       49.0935577139       20.7445803535  W2        28659           0.0000000000
     81060     27020  TIP3      H2             17.0047833595       49.7148777139       21.8645703535  W2        28659           0.0000000000
     81061     27021  TIP3      OH2            11.7283233595       43.1919877139       22.3449103535  W2        28660           0.0000000000
     81062     27021  TIP3      H1             11.4748033595       43.2111477139       23.2677203535  W2        28660           0.0000000000
     81063     27021  TIP3      H2             11.4715333595       42.3205277139       22.0435303535  W2        28660           0.0000000000
     81064     27022  TIP3      OH2             7.4948233595       45.9430577139       32.7801503535  W2        28661           0.0000000000
     81065     27022  TIP3      H1              6.8530333595       45.9027877139       33.4891603535  W2        28661           0.0000000000
     81066     27022  TIP3      H2              7.5320233595       46.8695277139       32.5424503535  W2        28661           0.0000000000
     81067     27023  TIP3      OH2             7.4917333595       46.1640677139       27.6921503535  W2        28662           0.0000000000
     81068     27023  TIP3      H1              6.5990233595       45.8236777139       27.6335303535  W2        28662           0.0000000000
     81069     27023  TIP3      H2              7.9423933595       45.7871577139       26.9364703535  W2        28662           0.0000000000
     81070     27024  TIP3      OH2            13.0272833595       46.5800977139       26.5092303535  W2        28663           0.0000000000
     81071     27024  TIP3      H1             12.6183133595       47.3949577139       26.2177103535  W2        28663           0.0000000000
     81072     27024  TIP3      H2             13.7479033595       46.4401077139       25.8949403535  W2        28663           0.0000000000
     81073     27025  TIP3      OH2            14.0320533595       46.0261377139       29.3232003535  W2        28665           0.0000000000
     81074     27025  TIP3      H1             13.8365033595       46.6318177139       28.6082603535  W2        28665           0.0000000000
     81075     27025  TIP3      H2             14.2133133595       45.1926577139       28.8888303535  W2        28665           0.0000000000
     81076     27026  TIP3      OH2             5.2448733595       46.2634077139       34.6473503535  W2        28666           0.0000000000
     81077     27026  TIP3      H1              5.2068133595       46.6635677139       35.5160603535  W2        28666           0.0000000000
     81078     27026  TIP3      H2              4.7539833595       45.4466477139       34.7376403535  W2        28666           0.0000000000
     81079     27027  TIP3      OH2             8.6106133595       43.6376377139       21.4459503535  W2        28667           0.0000000000
     81080     27027  TIP3      H1              8.1796833595       43.1926477139       22.1756903535  W2        28667           0.0000000000
     81081     27027  TIP3      H2              7.8924833595       44.0092677139       20.9337003535  W2        28667           0.0000000000
     81082     27028  TIP3      OH2             1.8529533595       43.3795877139       28.4978203535  W2        28668           0.0000000000
     81083     27028  TIP3      H1              2.4837233595       43.3507977139       29.2172103535  W2        28668           0.0000000000
     81084     27028  TIP3      H2              2.3023833595       42.9544577139       27.7674103535  W2        28668           0.0000000000
     81085     27029  TIP3      OH2             3.1271633595       44.1257877139       23.9218603535  W2        28669           0.0000000000
     81086     27029  TIP3      H1              3.6013333595       44.7167777139       23.3369503535  W2        28669           0.0000000000
     81087     27029  TIP3      H2              2.4098033595       44.6560777139       24.2688703535  W2        28669           0.0000000000
     81088     27030  TIP3      OH2            13.2959733595       47.6642677139       33.9944403535  W2        28670           0.0000000000
     81089     27030  TIP3      H1             13.6194533595       47.0332377139       33.3514903535  W2        28670           0.0000000000
     81090     27030  TIP3      H2             12.8559033595       47.1294877139       34.6551803535  W2        28670           0.0000000000
     81091     27031  TIP3      OH2            10.0732633595       43.5918177139       28.7785603535  W2        28671           0.0000000000
     81092     27031  TIP3      H1              9.1623733595       43.6484977139       29.0671603535  W2        28671           0.0000000000
     81093     27031  TIP3      H2             10.5785533595       43.5313677139       29.5892803535  W2        28671           0.0000000000
     81094     27032  TIP3      OH2             4.9016033595       45.2204477139       27.6053203535  W2        28672           0.0000000000
     81095     27032  TIP3      H1              4.0124033595       45.3199977139       27.2652803535  W2        28672           0.0000000000
     81096     27032  TIP3      H2              5.1980933595       44.3787477139       27.2591103535  W2        28672           0.0000000000
     81097     27033  TIP3      OH2             8.5547833595       45.2207077139       25.2617803535  W2        28673           0.0000000000
     81098     27033  TIP3      H1              9.4863333595       45.3497077139       25.4400903535  W2        28673           0.0000000000
     81099     27033  TIP3      H2              8.3398133595       45.8901377139       24.6122503535  W2        28673           0.0000000000
     81100     27034  TIP3      OH2            14.4784533595       42.8264477139       32.0427403535  W2        28674           0.0000000000
     81101     27034  TIP3      H1             13.8016133595       42.9577577139       32.7067103535  W2        28674           0.0000000000
     81102     27034  TIP3      H2             13.9929433595       42.6713977139       31.2325103535  W2        28674           0.0000000000
     81103     27035  TIP3      OH2             7.2288033595       46.4149277139       22.8283903535  W2        28675           0.0000000000
     81104     27035  TIP3      H1              6.6863133595       46.0353077139       22.1371503535  W2        28675           0.0000000000
     81105     27035  TIP3      H2              8.0622933595       46.6093977139       22.3998003535  W2        28675           0.0000000000
     81106     27036  TIP3      OH2            11.3932333595       46.3791177139       30.6655203535  W2        28677           0.0000000000
     81107     27036  TIP3      H1             11.9575733595       45.8327777139       30.1184803535  W2        28677           0.0000000000
     81108     27036  TIP3      H2             11.2455733595       45.8573077139       31.4542803535  W2        28677           0.0000000000
     81109     27037  TIP3      OH2             6.3952033595       42.5157277139       27.0840003535  W2        28678           0.0000000000
     81110     27037  TIP3      H1              6.0781533595       41.6132577139       27.0485403535  W2        28678           0.0000000000
     81111     27037  TIP3      H2              7.1766133595       42.5174677139       26.5311603535  W2        28678           0.0000000000
     81112     27038  TIP3      OH2            10.0198233595       44.7677277139       33.0795603535  W2        28679           0.0000000000
     81113     27038  TIP3      H1              9.1843533595       45.2216777139       33.1898003535  W2        28679           0.0000000000
     81114     27038  TIP3      H2             10.5438833595       45.0435777139       33.8315503535  W2        28679           0.0000000000
     81115     27039  TIP3      OH2            10.5640833595       50.9804977139       24.7642003535  W2        28680           0.0000000000
     81116     27039  TIP3      H1              9.8191833595       50.4730277139       24.4419903535  W2        28680           0.0000000000
     81117     27039  TIP3      H2             10.4298033595       51.0292977139       25.7106803535  W2        28680           0.0000000000
     81118     27040  TIP3      OH2            17.7139733595       50.1133177139       33.5509603535  W2        28681           0.0000000000
     81119     27040  TIP3      H1             18.3558533595       50.5699477139       33.0071803535  W2        28681           0.0000000000
     81120     27040  TIP3      H2             16.8836633595       50.2265577139       33.0883703535  W2        28681           0.0000000000
     81121     27041  TIP3      OH2            14.4617633595       43.7944877139       22.9634603535  W2        28682           0.0000000000
     81122     27041  TIP3      H1             13.5231833595       43.9060477139       22.8123403535  W2        28682           0.0000000000
     81123     27041  TIP3      H2             14.7589733595       44.6511777139       23.2700303535  W2        28682           0.0000000000
     81124     27042  TIP3      OH2            15.1801133595       45.6617577139       24.6242003535  W2        28684           0.0000000000
     81125     27042  TIP3      H1             16.0720133595       45.5242577139       24.9433203535  W2        28684           0.0000000000
     81126     27042  TIP3      H2             15.2364733595       46.4523677139       24.0875503535  W2        28684           0.0000000000
     81127     27043  TIP3      OH2             5.6889133595       50.2754977139       30.5339903535  W2        28685           0.0000000000
     81128     27043  TIP3      H1              6.4336333595       50.2730677139       29.9326403535  W2        28685           0.0000000000
     81129     27043  TIP3      H2              5.7665733595       49.4518777139       31.0155003535  W2        28685           0.0000000000
     81130     27044  TIP3      OH2            12.6894933595       52.4389277139       23.7896603535  W2        28686           0.0000000000
     81131     27044  TIP3      H1             12.3943333595       53.2657177139       24.1711403535  W2        28686           0.0000000000
     81132     27044  TIP3      H2             11.9864933595       51.8196177139       23.9858003535  W2        28686           0.0000000000
     81133     27045  TIP3      OH2            20.0649833595       45.8711677139       24.3188703535  W2        28690           0.0000000000
     81134     27045  TIP3      H1             19.5106133595       45.4749677139       23.6466203535  W2        28690           0.0000000000
     81135     27045  TIP3      H2             20.1653433595       46.7816877139       24.0412003535  W2        28690           0.0000000000
     81136     27046  TIP3      OH2            18.3601533595       54.6572077139       24.7840803535  W2        28692           0.0000000000
     81137     27046  TIP3      H1             17.9872633595       53.8315877139       25.0931403535  W2        28692           0.0000000000
     81138     27046  TIP3      H2             18.6375033595       54.4741477139       23.8864203535  W2        28692           0.0000000000
     81139     27047  TIP3      OH2            15.5205433595       49.4651577139       31.8052703535  W2        28693           0.0000000000
     81140     27047  TIP3      H1             14.5922333595       49.2333477139       31.7782003535  W2        28693           0.0000000000
     81141     27047  TIP3      H2             15.9716533595       48.6881377139       31.4751503535  W2        28693           0.0000000000
     81142     27048  TIP3      OH2             8.0638533595       53.7933177139       27.9381403535  W2        28694           0.0000000000
     81143     27048  TIP3      H1              8.5910733595       54.5667577139       27.7380203535  W2        28694           0.0000000000
     81144     27048  TIP3      H2              7.1837033595       54.0182377139       27.6365403535  W2        28694           0.0000000000
     81145     27049  TIP3      OH2             3.8186233595       48.6557277139       22.5253803535  W2        28695           0.0000000000
     81146     27049  TIP3      H1              4.4346133595       49.2824477139       22.9048603535  W2        28695           0.0000000000
     81147     27049  TIP3      H2              2.9568833595       48.9717077139       22.7970303535  W2        28695           0.0000000000
     81148     27050  TIP3      OH2             9.4910833595       51.4563077139       27.5145703535  W2        28696           0.0000000000
     81149     27050  TIP3      H1              9.2500833595       52.3817477139       27.5561003535  W2        28696           0.0000000000
     81150     27050  TIP3      H2              8.7504433595       50.9974377139       27.9109603535  W2        28696           0.0000000000
     81151     27051  TIP3      OH2            13.5498233595       51.7047377139       33.5302403535  W2        28697           0.0000000000
     81152     27051  TIP3      H1             13.1239533595       51.4769077139       34.3566403535  W2        28697           0.0000000000
     81153     27051  TIP3      H2             14.1304033595       50.9659177139       33.3477703535  W2        28697           0.0000000000
     81154     27052  TIP3      OH2            15.7527133595       52.6337877139       22.6041403535  W2        28698           0.0000000000
     81155     27052  TIP3      H1             16.1060233595       52.2537677139       23.4084903535  W2        28698           0.0000000000
     81156     27052  TIP3      H2             14.8040633595       52.5402677139       22.6910703535  W2        28698           0.0000000000
     81157     27053  TIP3      OH2             4.3308333595       43.4894577139       35.4069803535  W2        28699           0.0000000000
     81158     27053  TIP3      H1              3.4380633595       43.8279977139       35.3393803535  W2        28699           0.0000000000
     81159     27053  TIP3      H2              4.2321133595       42.6340677139       35.8250603535  W2        28699           0.0000000000
     81160     27054  TIP3      OH2            16.6186433595       51.3059877139       24.8309303535  W2        28700           0.0000000000
     81161     27054  TIP3      H1             16.3414033595       50.5779177139       25.3870403535  W2        28700           0.0000000000
     81162     27054  TIP3      H2             17.5459433595       51.4251877139       25.0361903535  W2        28700           0.0000000000
     81163     27055  TIP3      OH2             9.8434933595       53.7453977139       21.0511403535  W2        28701           0.0000000000
     81164     27055  TIP3      H1             10.0824733595       52.9972077139       20.5040303535  W2        28701           0.0000000000
     81165     27055  TIP3      H2              9.5746233595       53.3575677139       21.8839203535  W2        28701           0.0000000000
     81166     27056  TIP3      OH2             8.7805533595       53.3157777139       23.5074003535  W2        28702           0.0000000000
     81167     27056  TIP3      H1              8.9273533595       52.7957577139       24.2974903535  W2        28702           0.0000000000
     81168     27056  TIP3      H2              8.7777233595       54.2225377139       23.8139903535  W2        28702           0.0000000000
     81169     27057  TIP3      OH2             5.2336633595       50.5681077139       24.0179403535  W2        28703           0.0000000000
     81170     27057  TIP3      H1              4.5475933595       50.9203577139       24.5849103535  W2        28703           0.0000000000
     81171     27057  TIP3      H2              5.7564533595       51.3310677139       23.7713703535  W2        28703           0.0000000000
     81172     27058  TIP3      OH2            13.0651733595       43.2304877139       34.2968403535  W2        28704           0.0000000000
     81173     27058  TIP3      H1             13.7639633595       43.3043577139       34.9468103535  W2        28704           0.0000000000
     81174     27058  TIP3      H2             12.6843133595       42.3659877139       34.4511303535  W2        28704           0.0000000000
     81175     27059  TIP3      OH2            13.8496633595       42.8826577139       25.3940703535  W2        28705           0.0000000000
     81176     27059  TIP3      H1             14.0694933595       43.3541977139       24.5906103535  W2        28705           0.0000000000
     81177     27059  TIP3      H2             14.4080633595       43.2769177139       26.0641303535  W2        28705           0.0000000000
     81178     27060  TIP3      OH2            11.0496533595       44.6105377139       26.2289103535  W2        28706           0.0000000000
     81179     27060  TIP3      H1             11.8619133595       45.1148577139       26.2750803535  W2        28706           0.0000000000
     81180     27060  TIP3      H2             10.8049533595       44.4655077139       27.1428703535  W2        28706           0.0000000000
     81181     27061  TIP3      OH2            11.5852933595       45.5968077139       35.4135703535  W2        28707           0.0000000000
     81182     27061  TIP3      H1             11.7043233595       46.1703477139       36.1706103535  W2        28707           0.0000000000
     81183     27061  TIP3      H2             12.2407533595       44.9087477139       35.5283503535  W2        28707           0.0000000000
     81184     27062  TIP3      OH2            11.9333233595       41.6918377139       27.1670203535  W2        28708           0.0000000000
     81185     27062  TIP3      H1             11.5866733595       42.3088977139       27.8114503535  W2        28708           0.0000000000
     81186     27062  TIP3      H2             12.5920133595       42.1924077139       26.6855703535  W2        28708           0.0000000000
     81187     27063  TIP3      OH2             7.5910233595       42.7547777139       23.8542703535  W2        28709           0.0000000000
     81188     27063  TIP3      H1              7.5075033595       43.6430877139       24.2009103535  W2        28709           0.0000000000
     81189     27063  TIP3      H2              8.4810533595       42.4894477139       24.0859503535  W2        28709           0.0000000000
     81190     27064  TIP3      OH2            16.3919733595       47.2539377139       30.3442703535  W2        28711           0.0000000000
     81191     27064  TIP3      H1             15.5944133595       46.8389577139       30.0157703535  W2        28711           0.0000000000
     81192     27064  TIP3      H2             16.8370833595       46.5633077139       30.8353203535  W2        28711           0.0000000000
     81193     27065  TIP3      OH2             5.8495533595       53.1819977139       22.9147203535  W2        28712           0.0000000000
     81194     27065  TIP3      H1              6.4417033595       53.8814777139       23.1909603535  W2        28712           0.0000000000
     81195     27065  TIP3      H2              6.3088533595       52.7489477139       22.1951803535  W2        28712           0.0000000000
     81196     27066  TIP3      OH2             4.1654733595       45.8462977139       22.0306603535  W2        28713           0.0000000000
     81197     27066  TIP3      H1              4.1207333595       46.7856077139       22.2093603535  W2        28713           0.0000000000
     81198     27066  TIP3      H2              3.2777933595       45.6107877139       21.7608703535  W2        28713           0.0000000000
     81199     27067  TIP3      OH2             4.9736733595       40.6279577139       30.7037603535  W2        28714           0.0000000000
     81200     27067  TIP3      H1              4.7446533595       40.6872077139       29.7762603535  W2        28714           0.0000000000
     81201     27067  TIP3      H2              4.5310133595       39.8365077139       31.0101703535  W2        28714           0.0000000000
     81202     27068  TIP3      OH2             3.9040033595       54.5686677139       26.8643403535  W2        28715           0.0000000000
     81203     27068  TIP3      H1              3.0718633595       55.0409377139       26.8914803535  W2        28715           0.0000000000
     81204     27068  TIP3      H2              4.4498333595       55.0784277139       26.2656503535  W2        28715           0.0000000000
     81205     27069  TIP3      OH2             7.4406933595       51.3350177139       21.2810303535  W2        28718           0.0000000000
     81206     27069  TIP3      H1              7.5051033595       50.5409777139       21.8116703535  W2        28718           0.0000000000
     81207     27069  TIP3      H2              8.0936133595       51.2162977139       20.5912303535  W2        28718           0.0000000000
     81208     27070  TIP3      OH2            12.7930333595       52.3821877139       21.0168303535  W2        28720           0.0000000000
     81209     27070  TIP3      H1             12.5244433595       52.5623977139       21.9177203535  W2        28720           0.0000000000
     81210     27070  TIP3      H2             12.5865933595       51.4568077139       20.8854103535  W2        28720           0.0000000000
     81211     27071  TIP3      OH2             8.5900733595       49.3076377139       23.5868303535  W2        28723           0.0000000000
     81212     27071  TIP3      H1              8.1302733595       48.8234677139       24.2726803535  W2        28723           0.0000000000
     81213     27071  TIP3      H2              8.8449433595       48.6391777139       22.9508803535  W2        28723           0.0000000000
     81214     27072  TIP3      OH2             9.6611133595       47.5508177139       21.8491503535  W2        28725           0.0000000000
     81215     27072  TIP3      H1              9.4806133595       47.3959377139       20.9219803535  W2        28725           0.0000000000
     81216     27072  TIP3      H2             10.6111633595       47.6586877139       21.8939403535  W2        28725           0.0000000000
     81217     27073  TIP3      OH2            19.0509433595       49.9052377139       21.2949603535  W2        28727           0.0000000000
     81218     27073  TIP3      H1             18.7774233595       49.4807877139       20.4817903535  W2        28727           0.0000000000
     81219     27073  TIP3      H2             19.0903533595       50.8366877139       21.0780003535  W2        28727           0.0000000000
     81220     27074  TIP3      OH2             8.6309433595       42.9250077139       34.5178403535  W2        28729           0.0000000000
     81221     27074  TIP3      H1              9.1666933595       43.3766777139       33.8657703535  W2        28729           0.0000000000
     81222     27074  TIP3      H2              7.7789033595       42.8169877139       34.0952503535  W2        28729           0.0000000000
     81223     27075  TIP3      OH2            10.2127833595       48.3646277139       34.7573603535  W2        28730           0.0000000000
     81224     27075  TIP3      H1             10.9632633595       48.2083777139       34.1841403535  W2        28730           0.0000000000
     81225     27075  TIP3      H2              9.8736133595       49.2162877139       34.4819103535  W2        28730           0.0000000000
     81226     27076  TIP3      OH2             9.4364933595       40.3815777139       34.9492003535  W2        28734           0.0000000000
     81227     27076  TIP3      H1              9.3384533595       41.3278977139       34.8438203535  W2        28734           0.0000000000
     81228     27076  TIP3      H2              8.6941133595       40.0089577139       34.4735503535  W2        28734           0.0000000000
     81229     27077  TIP3      OH2             3.1267733595       52.8775677139       22.3333203535  W2        28741           0.0000000000
     81230     27077  TIP3      H1              4.0406933595       52.9564577139       22.6067103535  W2        28741           0.0000000000
     81231     27077  TIP3      H2              3.1340833595       52.1905277139       21.6668803535  W2        28741           0.0000000000
     81232     27078  TIP3      OH2            19.5092233595       50.7740477139       25.2700003535  W2        28743           0.0000000000
     81233     27078  TIP3      H1             20.3593633595       51.1951377139       25.3971603535  W2        28743           0.0000000000
     81234     27078  TIP3      H2             19.5147333595       50.0340577139       25.8771403535  W2        28743           0.0000000000
     81235     27079  TIP3      OH2            19.9037833595       48.8277877139       27.0935703535  W2        28744           0.0000000000
     81236     27079  TIP3      H1             19.1772433595       48.3480477139       27.4913303535  W2        28744           0.0000000000
     81237     27079  TIP3      H2             20.4851133595       49.0332577139       27.8257303535  W2        28744           0.0000000000
     81238     27080  TIP3      OH2            19.6629033595       51.6125377139       32.0413303535  W2        28745           0.0000000000
     81239     27080  TIP3      H1             20.4963233595       51.2345377139       31.7606903535  W2        28745           0.0000000000
     81240     27080  TIP3      H2             19.7749333595       52.5556577139       31.9222403535  W2        28745           0.0000000000
     81241     27081  TIP3      OH2            18.1491333595       54.4902877139       34.3481703535  W2        28746           0.0000000000
     81242     27081  TIP3      H1             17.5016633595       54.8154377139       34.9736903535  W2        28746           0.0000000000
     81243     27081  TIP3      H2             17.6315333595       54.0500577139       33.6740003535  W2        28746           0.0000000000
     81244     27082  TIP3      OH2            20.1720933595       48.7286377139       23.4847003535  W2        28747           0.0000000000
     81245     27082  TIP3      H1             19.6502033595       49.0850477139       22.7657903535  W2        28747           0.0000000000
     81246     27082  TIP3      H2             20.1390133595       49.4034177139       24.1627903535  W2        28747           0.0000000000
     81247     27083  TIP3      OH2            18.5209933595       45.9681977139       22.0354103535  W2        28748           0.0000000000
     81248     27083  TIP3      H1             18.6174333595       46.6348977139       21.3553803535  W2        28748           0.0000000000
     81249     27083  TIP3      H2             18.3809533595       45.1528277139       21.5539603535  W2        28748           0.0000000000
     81250     27084  TIP3      OH2            17.6904633595       47.3484377139       27.6564403535  W2        28749           0.0000000000
     81251     27084  TIP3      H1             17.5403433595       46.4032977139       27.6362203535  W2        28749           0.0000000000
     81252     27084  TIP3      H2             17.3369133595       47.6295777139       28.5003503535  W2        28749           0.0000000000
     81253     27085  TIP3      OH2             2.7257033595       49.4266577139       31.6668203535  W2        28750           0.0000000000
     81254     27085  TIP3      H1              2.9099933595       49.3448277139       30.7311103535  W2        28750           0.0000000000
     81255     27085  TIP3      H2              3.5749933595       49.3023577139       32.0904603535  W2        28750           0.0000000000
     81256     27086  TIP3      OH2            17.7683733595       43.3761777139       21.1529603535  W2        28753           0.0000000000
     81257     27086  TIP3      H1             18.3789533595       43.0048577139       21.7897803535  W2        28753           0.0000000000
     81258     27086  TIP3      H2             16.9315233595       42.9548677139       21.3489603535  W2        28753           0.0000000000
     81259     27087  TIP3      OH2            17.4009433595       44.9310177139       26.1189503535  W2        28754           0.0000000000
     81260     27087  TIP3      H1             17.6806533595       44.0240577139       26.2431203535  W2        28754           0.0000000000
     81261     27087  TIP3      H2             18.1601133595       45.3651677139       25.7298703535  W2        28754           0.0000000000
     81262     27088  TIP3      OH2            18.0127733595       45.5127577139       31.5548403535  W2        28755           0.0000000000
     81263     27088  TIP3      H1             18.9455733595       45.7247477139       31.5204403535  W2        28755           0.0000000000
     81264     27088  TIP3      H2             17.7775233595       45.6139677139       32.4771403535  W2        28755           0.0000000000
     81265     27089  TIP3      OH2            18.0419633595       46.2492877139       34.3307803535  W2        28756           0.0000000000
     81266     27089  TIP3      H1             17.1990933595       46.5173277139       34.6967603535  W2        28756           0.0000000000
     81267     27089  TIP3      H2             18.4843933595       47.0714777139       34.1198903535  W2        28756           0.0000000000
     81268     27090  TIP3      OH2            18.0144233595       42.1939477139       26.1671503535  W2        28759           0.0000000000
     81269     27090  TIP3      H1             18.1969233595       41.7450977139       26.9926503535  W2        28759           0.0000000000
     81270     27090  TIP3      H2             17.4147133595       41.6093877139       25.7036103535  W2        28759           0.0000000000
     81271     27091  TIP3      OH2             3.5444333595       43.0093177139       30.6989903535  W2        28760           0.0000000000
     81272     27091  TIP3      H1              3.9895933595       42.2175677139       31.0009603535  W2        28760           0.0000000000
     81273     27091  TIP3      H2              4.0107333595       43.7258377139       31.1295503535  W2        28760           0.0000000000
     81274     27092  TIP3      OH2             1.8484633595       46.0086177139       31.7680103535  W2        28761           0.0000000000
     81275     27092  TIP3      H1              2.3404433595       45.7876677139       30.9772103535  W2        28761           0.0000000000
     81276     27092  TIP3      H2              2.2105533595       46.8489577139       32.0489603535  W2        28761           0.0000000000
     81277     27093  TIP3      OH2            19.8810433595       42.2617577139       22.6951803535  W2        28763           0.0000000000
     81278     27093  TIP3      H1             20.2933033595       41.5403277139       22.2199803535  W2        28763           0.0000000000
     81279     27093  TIP3      H2             20.5626933595       42.9312177139       22.7536103535  W2        28763           0.0000000000
     81280     27094  TIP3      OH2             2.1621133595       42.2665277139       25.8222503535  W2        28764           0.0000000000
     81281     27094  TIP3      H1              1.2369533595       42.4751877139       25.6928003535  W2        28764           0.0000000000
     81282     27094  TIP3      H2              2.6161033595       42.7506077139       25.1324803535  W2        28764           0.0000000000
     81283     27095  TIP3      OH2             2.1256533595       41.0044277139       34.1665003535  W2        28765           0.0000000000
     81284     27095  TIP3      H1              1.4607033595       40.7584577139       34.8095903535  W2        28765           0.0000000000
     81285     27095  TIP3      H2              1.6827833595       41.6264677139       33.5893003535  W2        28765           0.0000000000
     81286     27096  TIP3      OH2            12.2752833595       41.8774577139       30.1753103535  W2        28768           0.0000000000
     81287     27096  TIP3      H1             11.6009633595       41.2480177139       30.4308903535  W2        28768           0.0000000000
     81288     27096  TIP3      H2             12.8392033595       41.3933477139       29.5721003535  W2        28768           0.0000000000
     81289     27097  TIP3      OH2            17.4180033595       39.9848577139       30.2880203535  W2        28769           0.0000000000
     81290     27097  TIP3      H1             18.0217633595       40.5323977139       29.7861203535  W2        28769           0.0000000000
     81291     27097  TIP3      H2             16.5482033595       40.3038977139       30.0474303535  W2        28769           0.0000000000
     81292     27098  TIP3      OH2            19.1450433595       41.1237277139       28.6211103535  W2        28770           0.0000000000
     81293     27098  TIP3      H1             19.7567933595       40.6092977139       28.0944703535  W2        28770           0.0000000000
     81294     27098  TIP3      H2             19.5273833595       42.0009377139       28.6445503535  W2        28770           0.0000000000
     81295     27099  TIP3      OH2             4.6020333595       40.5114877139       27.9973003535  W2        28771           0.0000000000
     81296     27099  TIP3      H1              3.8250133595       40.2769777139       27.4898903535  W2        28771           0.0000000000
     81297     27099  TIP3      H2              5.1323933595       39.7146977139       28.0061003535  W2        28771           0.0000000000
     81298     27100  TIP3      OH2             3.4383733595       40.3092977139       23.8009103535  W2        28772           0.0000000000
     81299     27100  TIP3      H1              3.8774433595       40.9203477139       23.2092603535  W2        28772           0.0000000000
     81300     27100  TIP3      H2              2.8046133595       40.8477077139       24.2749103535  W2        28772           0.0000000000
     81301     27101  TIP3      OH2             9.1812933595       40.4381977139       27.8106103535  W2        28773           0.0000000000
     81302     27101  TIP3      H1             10.0556333595       40.8266277139       27.7810403535  W2        28773           0.0000000000
     81303     27101  TIP3      H2              9.0453733595       40.2229777139       28.7333303535  W2        28773           0.0000000000
     81304     27102  TIP3      OH2            14.7381333595       40.4681777139       29.4597803535  W2        28774           0.0000000000
     81305     27102  TIP3      H1             14.8142933595       40.5633377139       28.5103803535  W2        28774           0.0000000000
     81306     27102  TIP3      H2             14.4630533595       39.5604677139       29.5886903535  W2        28774           0.0000000000
     81307     27103  TIP3      OH2            16.0913933595       40.4939577139       25.1522803535  W2        28775           0.0000000000
     81308     27103  TIP3      H1             15.3885033595       41.1088777139       24.9424203535  W2        28775           0.0000000000
     81309     27103  TIP3      H2             15.6465333595       39.6566277139       25.2833703535  W2        28775           0.0000000000
     81310     27104  TIP3      OH2             5.2992833595       42.2254477139       22.2433203535  W2        28776           0.0000000000
     81311     27104  TIP3      H1              5.7906233595       41.5956877139       21.7158703535  W2        28776           0.0000000000
     81312     27104  TIP3      H2              5.9229133595       42.5213877139       22.9064403535  W2        28776           0.0000000000
     81313     27105  TIP3      OH2            10.3252933595       42.5185977139       24.7003703535  W2        28777           0.0000000000
     81314     27105  TIP3      H1             10.5034233595       41.8719177139       25.3832303535  W2        28777           0.0000000000
     81315     27105  TIP3      H2             10.2719133595       43.3523677139       25.1674803535  W2        28777           0.0000000000
     81316     27106  TIP3      OH2            32.5362933595       49.6677177139       27.9560503535  W2        28781           0.0000000000
     81317     27106  TIP3      H1             32.6254033595       50.6115377139       27.8237603535  W2        28781           0.0000000000
     81318     27106  TIP3      H2             31.8980533595       49.3923577139       27.2979903535  W2        28781           0.0000000000
     81319     27107  TIP3      OH2            31.4694233595       48.9227877139       31.3748703535  W2        28782           0.0000000000
     81320     27107  TIP3      H1             31.4311733595       48.2764177139       32.0798303535  W2        28782           0.0000000000
     81321     27107  TIP3      H2             31.1470733595       48.4562277139       30.6037403535  W2        28782           0.0000000000
     81322     27108  TIP3      OH2            23.8379233595       48.5369977139       32.9678603535  W2        28783           0.0000000000
     81323     27108  TIP3      H1             23.8791333595       47.9113277139       33.6911003535  W2        28783           0.0000000000
     81324     27108  TIP3      H2             24.5406933595       49.1608577139       33.1499003535  W2        28783           0.0000000000
     81325     27109  TIP3      OH2            35.1754433595       51.8618277139       29.6763803535  W2        28784           0.0000000000
     81326     27109  TIP3      H1             34.7347133595       51.1414277139       30.1269403535  W2        28784           0.0000000000
     81327     27109  TIP3      H2             35.1624133595       52.5825477139       30.3061503535  W2        28784           0.0000000000
     81328     27110  TIP3      OH2            24.7612333595       52.9868877139       31.5027703535  W2        28785           0.0000000000
     81329     27110  TIP3      H1             24.3917533595       52.1849377139       31.1332003535  W2        28785           0.0000000000
     81330     27110  TIP3      H2             25.7023433595       52.8183777139       31.5491103535  W2        28785           0.0000000000
     81331     27111  TIP3      OH2            21.3712833595       46.6471477139       26.8956503535  W2        28786           0.0000000000
     81332     27111  TIP3      H1             20.9236233595       47.4930177139       26.8773003535  W2        28786           0.0000000000
     81333     27111  TIP3      H2             20.8104033595       46.0675677139       26.3801603535  W2        28786           0.0000000000
     81334     27112  TIP3      OH2            22.0818933595       48.8091077139       29.0214503535  W2        28787           0.0000000000
     81335     27112  TIP3      H1             22.2952433595       48.0392677139       29.5487503535  W2        28787           0.0000000000
     81336     27112  TIP3      H2             22.8196533595       48.8987777139       28.4182103535  W2        28787           0.0000000000
     81337     27113  TIP3      OH2            29.8588633595       51.3549277139       31.7809703535  W2        28788           0.0000000000
     81338     27113  TIP3      H1             30.1626533595       50.6690677139       31.1863803535  W2        28788           0.0000000000
     81339     27113  TIP3      H2             30.5802633595       51.4737977139       32.3987703535  W2        28788           0.0000000000
     81340     27114  TIP3      OH2            38.5218433595       42.9564577139       32.6415903535  W2        28789           0.0000000000
     81341     27114  TIP3      H1             38.5710633595       43.5665777139       33.3775003535  W2        28789           0.0000000000
     81342     27114  TIP3      H2             38.9473533595       43.4175477139       31.9187003535  W2        28789           0.0000000000
     81343     27115  TIP3      OH2            32.9995633595       45.7491677139       32.1084503535  W2        28790           0.0000000000
     81344     27115  TIP3      H1             33.1421533595       44.8028677139       32.1286103535  W2        28790           0.0000000000
     81345     27115  TIP3      H2             32.8934633595       45.9561477139       31.1799403535  W2        28790           0.0000000000
     81346     27116  TIP3      OH2            26.1543933595       43.8508077139       29.3809303535  W2        28791           0.0000000000
     81347     27116  TIP3      H1             26.1975033595       44.7106577139       28.9625603535  W2        28791           0.0000000000
     81348     27116  TIP3      H2             25.6968033595       43.2982777139       28.7472503535  W2        28791           0.0000000000
     81349     27117  TIP3      OH2            33.8766633595       43.9813677139       27.7817603535  W2        28792           0.0000000000
     81350     27117  TIP3      H1             34.5230933595       43.6526877139       28.4065203535  W2        28792           0.0000000000
     81351     27117  TIP3      H2             34.3866033595       44.4992677139       27.1589003535  W2        28792           0.0000000000
     81352     27118  TIP3      OH2            22.7745433595       46.2473877139       30.1430703535  W2        28793           0.0000000000
     81353     27118  TIP3      H1             23.4282033595       45.6975577139       30.5750803535  W2        28793           0.0000000000
     81354     27118  TIP3      H2             22.7984733595       45.9732877139       29.2262703535  W2        28793           0.0000000000
     81355     27119  TIP3      OH2            27.9309933595       47.7975177139       29.3582203535  W2        28794           0.0000000000
     81356     27119  TIP3      H1             28.5470933595       47.2710577139       29.8676203535  W2        28794           0.0000000000
     81357     27119  TIP3      H2             27.3448733595       47.1573877139       28.9545803535  W2        28794           0.0000000000
     81358     27120  TIP3      OH2            38.9133033595       44.4343777139       34.8775703535  W2        28795           0.0000000000
     81359     27120  TIP3      H1             38.2247633595       45.0924477139       34.7822303535  W2        28795           0.0000000000
     81360     27120  TIP3      H2             38.9287633595       44.2371677139       35.8141103535  W2        28795           0.0000000000
     81361     27121  TIP3      OH2            24.9645833595       42.7686477139       33.4550103535  W2        28796           0.0000000000
     81362     27121  TIP3      H1             24.7457533595       43.2987077139       32.6886103535  W2        28796           0.0000000000
     81363     27121  TIP3      H2             24.2966733595       42.9951977139       34.1021503535  W2        28796           0.0000000000
     81364     27122  TIP3      OH2            32.3335633595       52.2687577139       26.9989203535  W2        28797           0.0000000000
     81365     27122  TIP3      H1             32.0380733595       51.9459877139       26.1476103535  W2        28797           0.0000000000
     81366     27122  TIP3      H2             32.0093433595       53.1684277139       27.0401803535  W2        28797           0.0000000000
     81367     27123  TIP3      OH2            27.5337233595       50.4442177139       33.7423803535  W2        28798           0.0000000000
     81368     27123  TIP3      H1             26.7936333595       51.0423677139       33.8459003535  W2        28798           0.0000000000
     81369     27123  TIP3      H2             28.2476733595       50.9981777139       33.4267403535  W2        28798           0.0000000000
     81370     27124  TIP3      OH2            35.6405033595       43.2722977139       29.7623503535  W2        28799           0.0000000000
     81371     27124  TIP3      H1             35.4253033595       42.5066377139       30.2949503535  W2        28799           0.0000000000
     81372     27124  TIP3      H2             36.2962433595       43.7447577139       30.2752003535  W2        28799           0.0000000000
     81373     27125  TIP3      OH2            24.5583133595       44.6608277139       31.4072303535  W2        28800           0.0000000000
     81374     27125  TIP3      H1             25.1719433595       45.2935877139       31.7804703535  W2        28800           0.0000000000
     81375     27125  TIP3      H2             25.0703833595       44.1883277139       30.7509203535  W2        28800           0.0000000000
     81376     27126  TIP3      OH2            25.9411533595       52.4085177139       34.5295303535  W2        28801           0.0000000000
     81377     27126  TIP3      H1             25.9359133595       53.2878677139       34.1514603535  W2        28801           0.0000000000
     81378     27126  TIP3      H2             25.0875633595       52.3249277139       34.9545203535  W2        28801           0.0000000000
     81379     27127  TIP3      OH2            22.0622433595       52.0793077139       25.3114603535  W2        28802           0.0000000000
     81380     27127  TIP3      H1             21.7903333595       52.3084077139       24.4227503535  W2        28802           0.0000000000
     81381     27127  TIP3      H2             22.1078133595       52.9171877139       25.7719903535  W2        28802           0.0000000000
     81382     27128  TIP3      OH2            35.6872133595       53.7008977139       32.0243103535  W2        28803           0.0000000000
     81383     27128  TIP3      H1             34.7455833595       53.7592877139       32.1860003535  W2        28803           0.0000000000
     81384     27128  TIP3      H2             35.9638233595       54.6069477139       31.8872803535  W2        28803           0.0000000000
     81385     27129  TIP3      OH2            35.9879133595       41.9874277139       33.4417003535  W2        28804           0.0000000000
     81386     27129  TIP3      H1             35.2518333595       42.5981377139       33.4038303535  W2        28804           0.0000000000
     81387     27129  TIP3      H2             36.6713133595       42.4023277139       32.9153403535  W2        28804           0.0000000000
     81388     27130  TIP3      OH2            28.9910533595       40.0741577139       30.9075003535  W2        28805           0.0000000000
     81389     27130  TIP3      H1             28.8734733595       39.1257577139       30.8533303535  W2        28805           0.0000000000
     81390     27130  TIP3      H2             28.1360633595       40.4067677139       31.1806103535  W2        28805           0.0000000000
     81391     27131  TIP3      OH2            35.0989833595       53.3830977139       27.1581303535  W2        28806           0.0000000000
     81392     27131  TIP3      H1             34.8414633595       52.6931077139       26.5467203535  W2        28806           0.0000000000
     81393     27131  TIP3      H2             35.1700633595       52.9402177139       28.0037203535  W2        28806           0.0000000000
     81394     27132  TIP3      OH2            31.2575433595       48.9117177139       25.4080803535  W2        28808           0.0000000000
     81395     27132  TIP3      H1             30.5460933595       49.4466877139       25.0561303535  W2        28808           0.0000000000
     81396     27132  TIP3      H2             31.9485033595       48.9669277139       24.7479703535  W2        28808           0.0000000000
     81397     27133  TIP3      OH2            31.3114633595       47.3691477139       22.4465803535  W2        28809           0.0000000000
     81398     27133  TIP3      H1             32.0124533595       47.3918377139       23.0979803535  W2        28809           0.0000000000
     81399     27133  TIP3      H2             31.6137533595       46.7411177139       21.7905103535  W2        28809           0.0000000000
     81400     27134  TIP3      OH2            38.6269333595       48.2895677139       33.7015203535  W2        28810           0.0000000000
     81401     27134  TIP3      H1             37.9743433595       48.9841277139       33.7906103535  W2        28810           0.0000000000
     81402     27134  TIP3      H2             39.0919633595       48.4996577139       32.8916803535  W2        28810           0.0000000000
     81403     27135  TIP3      OH2            34.6633133595       49.1210477139       26.3596703535  W2        28811           0.0000000000
     81404     27135  TIP3      H1             33.9314133595       49.3494177139       26.9327303535  W2        28811           0.0000000000
     81405     27135  TIP3      H2             35.1105333595       48.4073177139       26.8144203535  W2        28811           0.0000000000
     81406     27136  TIP3      OH2            34.5606633595       47.2953077139       35.4273703535  W2        28812           0.0000000000
     81407     27136  TIP3      H1             34.6405733595       48.0587477139       35.9992203535  W2        28812           0.0000000000
     81408     27136  TIP3      H2             33.9594333595       47.5745477139       34.7368803535  W2        28812           0.0000000000
     81409     27137  TIP3      OH2            26.3086833595       49.7516677139       28.2421703535  W2        28813           0.0000000000
     81410     27137  TIP3      H1             25.9782033595       49.3810077139       27.4238703535  W2        28813           0.0000000000
     81411     27137  TIP3      H2             26.8970933595       49.0810677139       28.5890003535  W2        28813           0.0000000000
     81412     27138  TIP3      OH2            27.6754333595       53.1797277139       30.9233903535  W2        28814           0.0000000000
     81413     27138  TIP3      H1             27.5805633595       52.6010377139       30.1668503535  W2        28814           0.0000000000
     81414     27138  TIP3      H2             28.4047933595       52.8082977139       31.4196703535  W2        28814           0.0000000000
     81415     27139  TIP3      OH2            26.6752333595       48.5202277139       31.8756703535  W2        28815           0.0000000000
     81416     27139  TIP3      H1             27.2404833595       48.6416477139       31.1127903535  W2        28815           0.0000000000
     81417     27139  TIP3      H2             26.9941233595       49.1577277139       32.5145203535  W2        28815           0.0000000000
     81418     27140  TIP3      OH2            32.9844533595       54.0234177139       32.6097203535  W2        28816           0.0000000000
     81419     27140  TIP3      H1             32.7441133595       54.6857277139       33.2576403535  W2        28816           0.0000000000
     81420     27140  TIP3      H2             32.7862733595       53.1889377139       33.0346803535  W2        28816           0.0000000000
     81421     27141  TIP3      OH2            33.5342633595       48.2833377139       24.0447903535  W2        28818           0.0000000000
     81422     27141  TIP3      H1             34.1138133595       48.4333677139       24.7916803535  W2        28818           0.0000000000
     81423     27141  TIP3      H2             33.9482633595       48.7540777139       23.3214303535  W2        28818           0.0000000000
     81424     27142  TIP3      OH2            37.2331033595       40.0333777139       23.8577603535  W2        28821           0.0000000000
     81425     27142  TIP3      H1             36.3331733595       40.1722777139       24.1528203535  W2        28821           0.0000000000
     81426     27142  TIP3      H2             37.4849433595       40.8648377139       23.4559303535  W2        28821           0.0000000000
     81427     27143  TIP3      OH2            25.2989533595       48.8210977139       25.8314503535  W2        28822           0.0000000000
     81428     27143  TIP3      H1             25.0070833595       49.5892677139       25.3405803535  W2        28822           0.0000000000
     81429     27143  TIP3      H2             24.6244733595       48.1617177139       25.6685903535  W2        28822           0.0000000000
     81430     27144  TIP3      OH2            38.4222433595       54.3996177139       22.2341503535  W2        28823           0.0000000000
     81431     27144  TIP3      H1             38.4955933595       55.3386377139       22.4046803535  W2        28823           0.0000000000
     81432     27144  TIP3      H2             39.3277533595       54.0944777139       22.1778803535  W2        28823           0.0000000000
     81433     27145  TIP3      OH2            21.3919633595       51.1840177139       34.6464303535  W2        28824           0.0000000000
     81434     27145  TIP3      H1             20.8908033595       51.1559577139       33.8314003535  W2        28824           0.0000000000
     81435     27145  TIP3      H2             21.3973333595       50.2783377139       34.9561603535  W2        28824           0.0000000000
     81436     27146  TIP3      OH2            21.1422333595       53.9643977139       31.5304503535  W2        28825           0.0000000000
     81437     27146  TIP3      H1             22.0882933595       53.8200977139       31.5114003535  W2        28825           0.0000000000
     81438     27146  TIP3      H2             21.0298633595       54.7486777139       32.0675703535  W2        28825           0.0000000000
     81439     27147  TIP3      OH2            26.2598133595       40.9776077139       31.6851303535  W2        28830           0.0000000000
     81440     27147  TIP3      H1             25.3981833595       40.8904277139       31.2774203535  W2        28830           0.0000000000
     81441     27147  TIP3      H2             26.2373833595       41.8336177139       32.1128903535  W2        28830           0.0000000000
     81442     27148  TIP3      OH2            30.9225933595       40.6996477139       35.0598303535  W2        28831           0.0000000000
     81443     27148  TIP3      H1             31.3429033595       40.2843577139       35.8128903535  W2        28831           0.0000000000
     81444     27148  TIP3      H2             29.9895533595       40.5209777139       35.1770303535  W2        28831           0.0000000000
     81445     27149  TIP3      OH2            35.0115733595       49.3161677139       21.6745803535  W2        28833           0.0000000000
     81446     27149  TIP3      H1             35.0536533595       49.0935577139       20.7445803535  W2        28833           0.0000000000
     81447     27149  TIP3      H2             35.8607833595       49.7148777139       21.8645703535  W2        28833           0.0000000000
     81448     27150  TIP3      OH2            30.5843233595       43.1919877139       22.3449103535  W2        28834           0.0000000000
     81449     27150  TIP3      H1             30.3308033595       43.2111477139       23.2677203535  W2        28834           0.0000000000
     81450     27150  TIP3      H2             30.3275333595       42.3205277139       22.0435303535  W2        28834           0.0000000000
     81451     27151  TIP3      OH2            26.3508233595       45.9430577139       32.7801503535  W2        28835           0.0000000000
     81452     27151  TIP3      H1             25.7090333595       45.9027877139       33.4891603535  W2        28835           0.0000000000
     81453     27151  TIP3      H2             26.3880233595       46.8695277139       32.5424503535  W2        28835           0.0000000000
     81454     27152  TIP3      OH2            26.3477333595       46.1640677139       27.6921503535  W2        28836           0.0000000000
     81455     27152  TIP3      H1             25.4550233595       45.8236777139       27.6335303535  W2        28836           0.0000000000
     81456     27152  TIP3      H2             26.7983933595       45.7871577139       26.9364703535  W2        28836           0.0000000000
     81457     27153  TIP3      OH2            31.8832833595       46.5800977139       26.5092303535  W2        28837           0.0000000000
     81458     27153  TIP3      H1             31.4743133595       47.3949577139       26.2177103535  W2        28837           0.0000000000
     81459     27153  TIP3      H2             32.6039033595       46.4401077139       25.8949403535  W2        28837           0.0000000000
     81460     27154  TIP3      OH2            32.8880533595       46.0261377139       29.3232003535  W2        28839           0.0000000000
     81461     27154  TIP3      H1             32.6925033595       46.6318177139       28.6082603535  W2        28839           0.0000000000
     81462     27154  TIP3      H2             33.0693133595       45.1926577139       28.8888303535  W2        28839           0.0000000000
     81463     27155  TIP3      OH2            24.1008733595       46.2634077139       34.6473503535  W2        28840           0.0000000000
     81464     27155  TIP3      H1             24.0628133595       46.6635677139       35.5160603535  W2        28840           0.0000000000
     81465     27155  TIP3      H2             23.6099833595       45.4466477139       34.7376403535  W2        28840           0.0000000000
     81466     27156  TIP3      OH2            27.4666133595       43.6376377139       21.4459503535  W2        28841           0.0000000000
     81467     27156  TIP3      H1             27.0356833595       43.1926477139       22.1756903535  W2        28841           0.0000000000
     81468     27156  TIP3      H2             26.7484833595       44.0092677139       20.9337003535  W2        28841           0.0000000000
     81469     27157  TIP3      OH2            20.7089533595       43.3795877139       28.4978203535  W2        28842           0.0000000000
     81470     27157  TIP3      H1             21.3397233595       43.3507977139       29.2172103535  W2        28842           0.0000000000
     81471     27157  TIP3      H2             21.1583833595       42.9544577139       27.7674103535  W2        28842           0.0000000000
     81472     27158  TIP3      OH2            21.9831633595       44.1257877139       23.9218603535  W2        28843           0.0000000000
     81473     27158  TIP3      H1             22.4573333595       44.7167777139       23.3369503535  W2        28843           0.0000000000
     81474     27158  TIP3      H2             21.2658033595       44.6560777139       24.2688703535  W2        28843           0.0000000000
     81475     27159  TIP3      OH2            32.1519733595       47.6642677139       33.9944403535  W2        28844           0.0000000000
     81476     27159  TIP3      H1             32.4754533595       47.0332377139       33.3514903535  W2        28844           0.0000000000
     81477     27159  TIP3      H2             31.7119033595       47.1294877139       34.6551803535  W2        28844           0.0000000000
     81478     27160  TIP3      OH2            28.9292633595       43.5918177139       28.7785603535  W2        28845           0.0000000000
     81479     27160  TIP3      H1             28.0183733595       43.6484977139       29.0671603535  W2        28845           0.0000000000
     81480     27160  TIP3      H2             29.4345533595       43.5313677139       29.5892803535  W2        28845           0.0000000000
     81481     27161  TIP3      OH2            23.7576033595       45.2204477139       27.6053203535  W2        28846           0.0000000000
     81482     27161  TIP3      H1             22.8684033595       45.3199977139       27.2652803535  W2        28846           0.0000000000
     81483     27161  TIP3      H2             24.0540933595       44.3787477139       27.2591103535  W2        28846           0.0000000000
     81484     27162  TIP3      OH2            27.4107833595       45.2207077139       25.2617803535  W2        28847           0.0000000000
     81485     27162  TIP3      H1             28.3423333595       45.3497077139       25.4400903535  W2        28847           0.0000000000
     81486     27162  TIP3      H2             27.1958133595       45.8901377139       24.6122503535  W2        28847           0.0000000000
     81487     27163  TIP3      OH2            33.3344533595       42.8264477139       32.0427403535  W2        28848           0.0000000000
     81488     27163  TIP3      H1             32.6576133595       42.9577577139       32.7067103535  W2        28848           0.0000000000
     81489     27163  TIP3      H2             32.8489433595       42.6713977139       31.2325103535  W2        28848           0.0000000000
     81490     27164  TIP3      OH2            26.0848033595       46.4149277139       22.8283903535  W2        28849           0.0000000000
     81491     27164  TIP3      H1             25.5423133595       46.0353077139       22.1371503535  W2        28849           0.0000000000
     81492     27164  TIP3      H2             26.9182933595       46.6093977139       22.3998003535  W2        28849           0.0000000000
     81493     27165  TIP3      OH2            30.2492333595       46.3791177139       30.6655203535  W2        28851           0.0000000000
     81494     27165  TIP3      H1             30.8135733595       45.8327777139       30.1184803535  W2        28851           0.0000000000
     81495     27165  TIP3      H2             30.1015733595       45.8573077139       31.4542803535  W2        28851           0.0000000000
     81496     27166  TIP3      OH2            25.2512033595       42.5157277139       27.0840003535  W2        28852           0.0000000000
     81497     27166  TIP3      H1             24.9341533595       41.6132577139       27.0485403535  W2        28852           0.0000000000
     81498     27166  TIP3      H2             26.0326133595       42.5174677139       26.5311603535  W2        28852           0.0000000000
     81499     27167  TIP3      OH2            28.8758233595       44.7677277139       33.0795603535  W2        28853           0.0000000000
     81500     27167  TIP3      H1             28.0403533595       45.2216777139       33.1898003535  W2        28853           0.0000000000
     81501     27167  TIP3      H2             29.3998833595       45.0435777139       33.8315503535  W2        28853           0.0000000000
     81502     27168  TIP3      OH2            29.4200833595       50.9804977139       24.7642003535  W2        28854           0.0000000000
     81503     27168  TIP3      H1             28.6751833595       50.4730277139       24.4419903535  W2        28854           0.0000000000
     81504     27168  TIP3      H2             29.2858033595       51.0292977139       25.7106803535  W2        28854           0.0000000000
     81505     27169  TIP3      OH2            36.5699733595       50.1133177139       33.5509603535  W2        28855           0.0000000000
     81506     27169  TIP3      H1             37.2118533595       50.5699477139       33.0071803535  W2        28855           0.0000000000
     81507     27169  TIP3      H2             35.7396633595       50.2265577139       33.0883703535  W2        28855           0.0000000000
     81508     27170  TIP3      OH2            33.3177633595       43.7944877139       22.9634603535  W2        28856           0.0000000000
     81509     27170  TIP3      H1             32.3791833595       43.9060477139       22.8123403535  W2        28856           0.0000000000
     81510     27170  TIP3      H2             33.6149733595       44.6511777139       23.2700303535  W2        28856           0.0000000000
     81511     27171  TIP3      OH2            34.0361133595       45.6617577139       24.6242003535  W2        28858           0.0000000000
     81512     27171  TIP3      H1             34.9280133595       45.5242577139       24.9433203535  W2        28858           0.0000000000
     81513     27171  TIP3      H2             34.0924733595       46.4523677139       24.0875503535  W2        28858           0.0000000000
     81514     27172  TIP3      OH2            24.5449133595       50.2754977139       30.5339903535  W2        28859           0.0000000000
     81515     27172  TIP3      H1             25.2896333595       50.2730677139       29.9326403535  W2        28859           0.0000000000
     81516     27172  TIP3      H2             24.6225733595       49.4518777139       31.0155003535  W2        28859           0.0000000000
     81517     27173  TIP3      OH2            31.5454933595       52.4389277139       23.7896603535  W2        28860           0.0000000000
     81518     27173  TIP3      H1             31.2503333595       53.2657177139       24.1711403535  W2        28860           0.0000000000
     81519     27173  TIP3      H2             30.8424933595       51.8196177139       23.9858003535  W2        28860           0.0000000000
     81520     27174  TIP3      OH2            38.9209833595       45.8711677139       24.3188703535  W2        28864           0.0000000000
     81521     27174  TIP3      H1             38.3666133595       45.4749677139       23.6466203535  W2        28864           0.0000000000
     81522     27174  TIP3      H2             39.0213433595       46.7816877139       24.0412003535  W2        28864           0.0000000000
     81523     27175  TIP3      OH2            37.2161533595       54.6572077139       24.7840803535  W2        28866           0.0000000000
     81524     27175  TIP3      H1             36.8432633595       53.8315877139       25.0931403535  W2        28866           0.0000000000
     81525     27175  TIP3      H2             37.4935033595       54.4741477139       23.8864203535  W2        28866           0.0000000000
     81526     27176  TIP3      OH2            34.3765433595       49.4651577139       31.8052703535  W2        28867           0.0000000000
     81527     27176  TIP3      H1             33.4482333595       49.2333477139       31.7782003535  W2        28867           0.0000000000
     81528     27176  TIP3      H2             34.8276533595       48.6881377139       31.4751503535  W2        28867           0.0000000000
     81529     27177  TIP3      OH2            26.9198533595       53.7933177139       27.9381403535  W2        28868           0.0000000000
     81530     27177  TIP3      H1             27.4470733595       54.5667577139       27.7380203535  W2        28868           0.0000000000
     81531     27177  TIP3      H2             26.0397033595       54.0182377139       27.6365403535  W2        28868           0.0000000000
     81532     27178  TIP3      OH2            22.6746233595       48.6557277139       22.5253803535  W2        28869           0.0000000000
     81533     27178  TIP3      H1             23.2906133595       49.2824477139       22.9048603535  W2        28869           0.0000000000
     81534     27178  TIP3      H2             21.8128833595       48.9717077139       22.7970303535  W2        28869           0.0000000000
     81535     27179  TIP3      OH2            28.3470833595       51.4563077139       27.5145703535  W2        28870           0.0000000000
     81536     27179  TIP3      H1             28.1060833595       52.3817477139       27.5561003535  W2        28870           0.0000000000
     81537     27179  TIP3      H2             27.6064433595       50.9974377139       27.9109603535  W2        28870           0.0000000000
     81538     27180  TIP3      OH2            32.4058233595       51.7047377139       33.5302403535  W2        28871           0.0000000000
     81539     27180  TIP3      H1             31.9799533595       51.4769077139       34.3566403535  W2        28871           0.0000000000
     81540     27180  TIP3      H2             32.9864033595       50.9659177139       33.3477703535  W2        28871           0.0000000000
     81541     27181  TIP3      OH2            34.6087133595       52.6337877139       22.6041403535  W2        28872           0.0000000000
     81542     27181  TIP3      H1             34.9620233595       52.2537677139       23.4084903535  W2        28872           0.0000000000
     81543     27181  TIP3      H2             33.6600633595       52.5402677139       22.6910703535  W2        28872           0.0000000000
     81544     27182  TIP3      OH2            23.1868333595       43.4894577139       35.4069803535  W2        28873           0.0000000000
     81545     27182  TIP3      H1             22.2940633595       43.8279977139       35.3393803535  W2        28873           0.0000000000
     81546     27182  TIP3      H2             23.0881133595       42.6340677139       35.8250603535  W2        28873           0.0000000000
     81547     27183  TIP3      OH2            35.4746433595       51.3059877139       24.8309303535  W2        28874           0.0000000000
     81548     27183  TIP3      H1             35.1974033595       50.5779177139       25.3870403535  W2        28874           0.0000000000
     81549     27183  TIP3      H2             36.4019433595       51.4251877139       25.0361903535  W2        28874           0.0000000000
     81550     27184  TIP3      OH2            28.6994933595       53.7453977139       21.0511403535  W2        28875           0.0000000000
     81551     27184  TIP3      H1             28.9384733595       52.9972077139       20.5040303535  W2        28875           0.0000000000
     81552     27184  TIP3      H2             28.4306233595       53.3575677139       21.8839203535  W2        28875           0.0000000000
     81553     27185  TIP3      OH2            27.6365533595       53.3157777139       23.5074003535  W2        28876           0.0000000000
     81554     27185  TIP3      H1             27.7833533595       52.7957577139       24.2974903535  W2        28876           0.0000000000
     81555     27185  TIP3      H2             27.6337233595       54.2225377139       23.8139903535  W2        28876           0.0000000000
     81556     27186  TIP3      OH2            24.0896633595       50.5681077139       24.0179403535  W2        28877           0.0000000000
     81557     27186  TIP3      H1             23.4035933595       50.9203577139       24.5849103535  W2        28877           0.0000000000
     81558     27186  TIP3      H2             24.6124533595       51.3310677139       23.7713703535  W2        28877           0.0000000000
     81559     27187  TIP3      OH2            31.9211733595       43.2304877139       34.2968403535  W2        28878           0.0000000000
     81560     27187  TIP3      H1             32.6199633595       43.3043577139       34.9468103535  W2        28878           0.0000000000
     81561     27187  TIP3      H2             31.5403133595       42.3659877139       34.4511303535  W2        28878           0.0000000000
     81562     27188  TIP3      OH2            32.7056633595       42.8826577139       25.3940703535  W2        28879           0.0000000000
     81563     27188  TIP3      H1             32.9254933595       43.3541977139       24.5906103535  W2        28879           0.0000000000
     81564     27188  TIP3      H2             33.2640633595       43.2769177139       26.0641303535  W2        28879           0.0000000000
     81565     27189  TIP3      OH2            29.9056533595       44.6105377139       26.2289103535  W2        28880           0.0000000000
     81566     27189  TIP3      H1             30.7179133595       45.1148577139       26.2750803535  W2        28880           0.0000000000
     81567     27189  TIP3      H2             29.6609533595       44.4655077139       27.1428703535  W2        28880           0.0000000000
     81568     27190  TIP3      OH2            30.4412933595       45.5968077139       35.4135703535  W2        28881           0.0000000000
     81569     27190  TIP3      H1             30.5603233595       46.1703477139       36.1706103535  W2        28881           0.0000000000
     81570     27190  TIP3      H2             31.0967533595       44.9087477139       35.5283503535  W2        28881           0.0000000000
     81571     27191  TIP3      OH2            30.7893233595       41.6918377139       27.1670203535  W2        28882           0.0000000000
     81572     27191  TIP3      H1             30.4426733595       42.3088977139       27.8114503535  W2        28882           0.0000000000
     81573     27191  TIP3      H2             31.4480133595       42.1924077139       26.6855703535  W2        28882           0.0000000000
     81574     27192  TIP3      OH2            26.4470233595       42.7547777139       23.8542703535  W2        28883           0.0000000000
     81575     27192  TIP3      H1             26.3635033595       43.6430877139       24.2009103535  W2        28883           0.0000000000
     81576     27192  TIP3      H2             27.3370533595       42.4894477139       24.0859503535  W2        28883           0.0000000000
     81577     27193  TIP3      OH2            35.2479733595       47.2539377139       30.3442703535  W2        28885           0.0000000000
     81578     27193  TIP3      H1             34.4504133595       46.8389577139       30.0157703535  W2        28885           0.0000000000
     81579     27193  TIP3      H2             35.6930833595       46.5633077139       30.8353203535  W2        28885           0.0000000000
     81580     27194  TIP3      OH2            24.7055533595       53.1819977139       22.9147203535  W2        28886           0.0000000000
     81581     27194  TIP3      H1             25.2977033595       53.8814777139       23.1909603535  W2        28886           0.0000000000
     81582     27194  TIP3      H2             25.1648533595       52.7489477139       22.1951803535  W2        28886           0.0000000000
     81583     27195  TIP3      OH2            23.0214733595       45.8462977139       22.0306603535  W2        28887           0.0000000000
     81584     27195  TIP3      H1             22.9767333595       46.7856077139       22.2093603535  W2        28887           0.0000000000
     81585     27195  TIP3      H2             22.1337933595       45.6107877139       21.7608703535  W2        28887           0.0000000000
     81586     27196  TIP3      OH2            23.8296733595       40.6279577139       30.7037603535  W2        28888           0.0000000000
     81587     27196  TIP3      H1             23.6006533595       40.6872077139       29.7762603535  W2        28888           0.0000000000
     81588     27196  TIP3      H2             23.3870133595       39.8365077139       31.0101703535  W2        28888           0.0000000000
     81589     27197  TIP3      OH2            22.7600033595       54.5686677139       26.8643403535  W2        28889           0.0000000000
     81590     27197  TIP3      H1             21.9278633595       55.0409377139       26.8914803535  W2        28889           0.0000000000
     81591     27197  TIP3      H2             23.3058333595       55.0784277139       26.2656503535  W2        28889           0.0000000000
     81592     27198  TIP3      OH2            26.2966933595       51.3350177139       21.2810303535  W2        28892           0.0000000000
     81593     27198  TIP3      H1             26.3611033595       50.5409777139       21.8116703535  W2        28892           0.0000000000
     81594     27198  TIP3      H2             26.9496133595       51.2162977139       20.5912303535  W2        28892           0.0000000000
     81595     27199  TIP3      OH2            31.6490333595       52.3821877139       21.0168303535  W2        28894           0.0000000000
     81596     27199  TIP3      H1             31.3804433595       52.5623977139       21.9177203535  W2        28894           0.0000000000
     81597     27199  TIP3      H2             31.4425933595       51.4568077139       20.8854103535  W2        28894           0.0000000000
     81598     27200  TIP3      OH2            27.4460733595       49.3076377139       23.5868303535  W2        28897           0.0000000000
     81599     27200  TIP3      H1             26.9862733595       48.8234677139       24.2726803535  W2        28897           0.0000000000
     81600     27200  TIP3      H2             27.7009433595       48.6391777139       22.9508803535  W2        28897           0.0000000000
     81601     27201  TIP3      OH2            28.5171133595       47.5508177139       21.8491503535  W2        28899           0.0000000000
     81602     27201  TIP3      H1             28.3366133595       47.3959377139       20.9219803535  W2        28899           0.0000000000
     81603     27201  TIP3      H2             29.4671633595       47.6586877139       21.8939403535  W2        28899           0.0000000000
     81604     27202  TIP3      OH2            37.9069433595       49.9052377139       21.2949603535  W2        28901           0.0000000000
     81605     27202  TIP3      H1             37.6334233595       49.4807877139       20.4817903535  W2        28901           0.0000000000
     81606     27202  TIP3      H2             37.9463533595       50.8366877139       21.0780003535  W2        28901           0.0000000000
     81607     27203  TIP3      OH2            27.4869433595       42.9250077139       34.5178403535  W2        28903           0.0000000000
     81608     27203  TIP3      H1             28.0226933595       43.3766777139       33.8657703535  W2        28903           0.0000000000
     81609     27203  TIP3      H2             26.6349033595       42.8169877139       34.0952503535  W2        28903           0.0000000000
     81610     27204  TIP3      OH2            29.0687833595       48.3646277139       34.7573603535  W2        28904           0.0000000000
     81611     27204  TIP3      H1             29.8192633595       48.2083777139       34.1841403535  W2        28904           0.0000000000
     81612     27204  TIP3      H2             28.7296133595       49.2162877139       34.4819103535  W2        28904           0.0000000000
     81613     27205  TIP3      OH2            28.2924933595       40.3815777139       34.9492003535  W2        28908           0.0000000000
     81614     27205  TIP3      H1             28.1944533595       41.3278977139       34.8438203535  W2        28908           0.0000000000
     81615     27205  TIP3      H2             27.5501133595       40.0089577139       34.4735503535  W2        28908           0.0000000000
     81616     27206  TIP3      OH2            21.9827733595       52.8775677139       22.3333203535  W2        28915           0.0000000000
     81617     27206  TIP3      H1             22.8966933595       52.9564577139       22.6067103535  W2        28915           0.0000000000
     81618     27206  TIP3      H2             21.9900833595       52.1905277139       21.6668803535  W2        28915           0.0000000000
     81619     27207  TIP3      OH2            38.3652233595       50.7740477139       25.2700003535  W2        28917           0.0000000000
     81620     27207  TIP3      H1             39.2153633595       51.1951377139       25.3971603535  W2        28917           0.0000000000
     81621     27207  TIP3      H2             38.3707333595       50.0340577139       25.8771403535  W2        28917           0.0000000000
     81622     27208  TIP3      OH2            38.7597833595       48.8277877139       27.0935703535  W2        28918           0.0000000000
     81623     27208  TIP3      H1             38.0332433595       48.3480477139       27.4913303535  W2        28918           0.0000000000
     81624     27208  TIP3      H2             39.3411133595       49.0332577139       27.8257303535  W2        28918           0.0000000000
     81625     27209  TIP3      OH2            38.5189033595       51.6125377139       32.0413303535  W2        28919           0.0000000000
     81626     27209  TIP3      H1             39.3523233595       51.2345377139       31.7606903535  W2        28919           0.0000000000
     81627     27209  TIP3      H2             38.6309333595       52.5556577139       31.9222403535  W2        28919           0.0000000000
     81628     27210  TIP3      OH2            37.0051333595       54.4902877139       34.3481703535  W2        28920           0.0000000000
     81629     27210  TIP3      H1             36.3576633595       54.8154377139       34.9736903535  W2        28920           0.0000000000
     81630     27210  TIP3      H2             36.4875333595       54.0500577139       33.6740003535  W2        28920           0.0000000000
     81631     27211  TIP3      OH2            39.0280933595       48.7286377139       23.4847003535  W2        28921           0.0000000000
     81632     27211  TIP3      H1             38.5062033595       49.0850477139       22.7657903535  W2        28921           0.0000000000
     81633     27211  TIP3      H2             38.9950133595       49.4034177139       24.1627903535  W2        28921           0.0000000000
     81634     27212  TIP3      OH2            37.3769933595       45.9681977139       22.0354103535  W2        28922           0.0000000000
     81635     27212  TIP3      H1             37.4734333595       46.6348977139       21.3553803535  W2        28922           0.0000000000
     81636     27212  TIP3      H2             37.2369533595       45.1528277139       21.5539603535  W2        28922           0.0000000000
     81637     27213  TIP3      OH2            36.5464633595       47.3484377139       27.6564403535  W2        28923           0.0000000000
     81638     27213  TIP3      H1             36.3963433595       46.4032977139       27.6362203535  W2        28923           0.0000000000
     81639     27213  TIP3      H2             36.1929133595       47.6295777139       28.5003503535  W2        28923           0.0000000000
     81640     27214  TIP3      OH2            21.5817033595       49.4266577139       31.6668203535  W2        28924           0.0000000000
     81641     27214  TIP3      H1             21.7659933595       49.3448277139       30.7311103535  W2        28924           0.0000000000
     81642     27214  TIP3      H2             22.4309933595       49.3023577139       32.0904603535  W2        28924           0.0000000000
     81643     27215  TIP3      OH2            36.6243733595       43.3761777139       21.1529603535  W2        28927           0.0000000000
     81644     27215  TIP3      H1             37.2349533595       43.0048577139       21.7897803535  W2        28927           0.0000000000
     81645     27215  TIP3      H2             35.7875233595       42.9548677139       21.3489603535  W2        28927           0.0000000000
     81646     27216  TIP3      OH2            36.2569433595       44.9310177139       26.1189503535  W2        28928           0.0000000000
     81647     27216  TIP3      H1             36.5366533595       44.0240577139       26.2431203535  W2        28928           0.0000000000
     81648     27216  TIP3      H2             37.0161133595       45.3651677139       25.7298703535  W2        28928           0.0000000000
     81649     27217  TIP3      OH2            36.8687733595       45.5127577139       31.5548403535  W2        28929           0.0000000000
     81650     27217  TIP3      H1             37.8015733595       45.7247477139       31.5204403535  W2        28929           0.0000000000
     81651     27217  TIP3      H2             36.6335233595       45.6139677139       32.4771403535  W2        28929           0.0000000000
     81652     27218  TIP3      OH2            36.8979633595       46.2492877139       34.3307803535  W2        28930           0.0000000000
     81653     27218  TIP3      H1             36.0550933595       46.5173277139       34.6967603535  W2        28930           0.0000000000
     81654     27218  TIP3      H2             37.3403933595       47.0714777139       34.1198903535  W2        28930           0.0000000000
     81655     27219  TIP3      OH2            36.8704233595       42.1939477139       26.1671503535  W2        28933           0.0000000000
     81656     27219  TIP3      H1             37.0529233595       41.7450977139       26.9926503535  W2        28933           0.0000000000
     81657     27219  TIP3      H2             36.2707133595       41.6093877139       25.7036103535  W2        28933           0.0000000000
     81658     27220  TIP3      OH2            22.4004333595       43.0093177139       30.6989903535  W2        28934           0.0000000000
     81659     27220  TIP3      H1             22.8455933595       42.2175677139       31.0009603535  W2        28934           0.0000000000
     81660     27220  TIP3      H2             22.8667333595       43.7258377139       31.1295503535  W2        28934           0.0000000000
     81661     27221  TIP3      OH2            20.7044633595       46.0086177139       31.7680103535  W2        28935           0.0000000000
     81662     27221  TIP3      H1             21.1964433595       45.7876677139       30.9772103535  W2        28935           0.0000000000
     81663     27221  TIP3      H2             21.0665533595       46.8489577139       32.0489603535  W2        28935           0.0000000000
     81664     27222  TIP3      OH2            38.7370433595       42.2617577139       22.6951803535  W2        28937           0.0000000000
     81665     27222  TIP3      H1             39.1493033595       41.5403277139       22.2199803535  W2        28937           0.0000000000
     81666     27222  TIP3      H2             39.4186933595       42.9312177139       22.7536103535  W2        28937           0.0000000000
     81667     27223  TIP3      OH2            21.0181133595       42.2665277139       25.8222503535  W2        28938           0.0000000000
     81668     27223  TIP3      H1             20.0929533595       42.4751877139       25.6928003535  W2        28938           0.0000000000
     81669     27223  TIP3      H2             21.4721033595       42.7506077139       25.1324803535  W2        28938           0.0000000000
     81670     27224  TIP3      OH2            20.9816533595       41.0044277139       34.1665003535  W2        28939           0.0000000000
     81671     27224  TIP3      H1             20.3167033595       40.7584577139       34.8095903535  W2        28939           0.0000000000
     81672     27224  TIP3      H2             20.5387833595       41.6264677139       33.5893003535  W2        28939           0.0000000000
     81673     27225  TIP3      OH2            31.1312833595       41.8774577139       30.1753103535  W2        28942           0.0000000000
     81674     27225  TIP3      H1             30.4569633595       41.2480177139       30.4308903535  W2        28942           0.0000000000
     81675     27225  TIP3      H2             31.6952033595       41.3933477139       29.5721003535  W2        28942           0.0000000000
     81676     27226  TIP3      OH2            36.2740033595       39.9848577139       30.2880203535  W2        28943           0.0000000000
     81677     27226  TIP3      H1             36.8777633595       40.5323977139       29.7861203535  W2        28943           0.0000000000
     81678     27226  TIP3      H2             35.4042033595       40.3038977139       30.0474303535  W2        28943           0.0000000000
     81679     27227  TIP3      OH2            38.0010433595       41.1237277139       28.6211103535  W2        28944           0.0000000000
     81680     27227  TIP3      H1             38.6127933595       40.6092977139       28.0944703535  W2        28944           0.0000000000
     81681     27227  TIP3      H2             38.3833833595       42.0009377139       28.6445503535  W2        28944           0.0000000000
     81682     27228  TIP3      OH2            23.4580333595       40.5114877139       27.9973003535  W2        28945           0.0000000000
     81683     27228  TIP3      H1             22.6810133595       40.2769777139       27.4898903535  W2        28945           0.0000000000
     81684     27228  TIP3      H2             23.9883933595       39.7146977139       28.0061003535  W2        28945           0.0000000000
     81685     27229  TIP3      OH2            22.2943733595       40.3092977139       23.8009103535  W2        28946           0.0000000000
     81686     27229  TIP3      H1             22.7334433595       40.9203477139       23.2092603535  W2        28946           0.0000000000
     81687     27229  TIP3      H2             21.6606133595       40.8477077139       24.2749103535  W2        28946           0.0000000000
     81688     27230  TIP3      OH2            28.0372933595       40.4381977139       27.8106103535  W2        28947           0.0000000000
     81689     27230  TIP3      H1             28.9116333595       40.8266277139       27.7810403535  W2        28947           0.0000000000
     81690     27230  TIP3      H2             27.9013733595       40.2229777139       28.7333303535  W2        28947           0.0000000000
     81691     27231  TIP3      OH2            33.5941333595       40.4681777139       29.4597803535  W2        28948           0.0000000000
     81692     27231  TIP3      H1             33.6702933595       40.5633377139       28.5103803535  W2        28948           0.0000000000
     81693     27231  TIP3      H2             33.3190533595       39.5604677139       29.5886903535  W2        28948           0.0000000000
     81694     27232  TIP3      OH2            34.9473933595       40.4939577139       25.1522803535  W2        28949           0.0000000000
     81695     27232  TIP3      H1             34.2445033595       41.1088777139       24.9424203535  W2        28949           0.0000000000
     81696     27232  TIP3      H2             34.5025333595       39.6566277139       25.2833703535  W2        28949           0.0000000000
     81697     27233  TIP3      OH2            24.1552833595       42.2254477139       22.2433203535  W2        28950           0.0000000000
     81698     27233  TIP3      H1             24.6466233595       41.5956877139       21.7158703535  W2        28950           0.0000000000
     81699     27233  TIP3      H2             24.7789133595       42.5213877139       22.9064403535  W2        28950           0.0000000000
     81700     27234  TIP3      OH2            29.1812933595       42.5185977139       24.7003703535  W2        28951           0.0000000000
     81701     27234  TIP3      H1             29.3594233595       41.8719177139       25.3832303535  W2        28951           0.0000000000
     81702     27234  TIP3      H2             29.1279133595       43.3523677139       25.1674803535  W2        28951           0.0000000000
     81703     27235  TIP3      OH2            51.3922933595       49.6677177139       27.9560503535  W2        28955           0.0000000000
     81704     27235  TIP3      H1             51.4814033595       50.6115377139       27.8237603535  W2        28955           0.0000000000
     81705     27235  TIP3      H2             50.7540533595       49.3923577139       27.2979903535  W2        28955           0.0000000000
     81706     27236  TIP3      OH2            50.3254233595       48.9227877139       31.3748703535  W2        28956           0.0000000000
     81707     27236  TIP3      H1             50.2871733595       48.2764177139       32.0798303535  W2        28956           0.0000000000
     81708     27236  TIP3      H2             50.0030733595       48.4562277139       30.6037403535  W2        28956           0.0000000000
     81709     27237  TIP3      OH2            42.6939233595       48.5369977139       32.9678603535  W2        28957           0.0000000000
     81710     27237  TIP3      H1             42.7351333595       47.9113277139       33.6911003535  W2        28957           0.0000000000
     81711     27237  TIP3      H2             43.3966933595       49.1608577139       33.1499003535  W2        28957           0.0000000000
     81712     27238  TIP3      OH2            54.0314433595       51.8618277139       29.6763803535  W2        28958           0.0000000000
     81713     27238  TIP3      H1             53.5907133595       51.1414277139       30.1269403535  W2        28958           0.0000000000
     81714     27238  TIP3      H2             54.0184133595       52.5825477139       30.3061503535  W2        28958           0.0000000000
     81715     27239  TIP3      OH2            43.6172333595       52.9868877139       31.5027703535  W2        28959           0.0000000000
     81716     27239  TIP3      H1             43.2477533595       52.1849377139       31.1332003535  W2        28959           0.0000000000
     81717     27239  TIP3      H2             44.5583433595       52.8183777139       31.5491103535  W2        28959           0.0000000000
     81718     27240  TIP3      OH2            40.2272833595       46.6471477139       26.8956503535  W2        28960           0.0000000000
     81719     27240  TIP3      H1             39.7796233595       47.4930177139       26.8773003535  W2        28960           0.0000000000
     81720     27240  TIP3      H2             39.6664033595       46.0675677139       26.3801603535  W2        28960           0.0000000000
     81721     27241  TIP3      OH2            40.9378933595       48.8091077139       29.0214503535  W2        28961           0.0000000000
     81722     27241  TIP3      H1             41.1512433595       48.0392677139       29.5487503535  W2        28961           0.0000000000
     81723     27241  TIP3      H2             41.6756533595       48.8987777139       28.4182103535  W2        28961           0.0000000000
     81724     27242  TIP3      OH2            48.7148633595       51.3549277139       31.7809703535  W2        28962           0.0000000000
     81725     27242  TIP3      H1             49.0186533595       50.6690677139       31.1863803535  W2        28962           0.0000000000
     81726     27242  TIP3      H2             49.4362633595       51.4737977139       32.3987703535  W2        28962           0.0000000000
     81727     27243  TIP3      OH2            51.8555633595       45.7491677139       32.1084503535  W2        28963           0.0000000000
     81728     27243  TIP3      H1             51.9981533595       44.8028677139       32.1286103535  W2        28963           0.0000000000
     81729     27243  TIP3      H2             51.7494633595       45.9561477139       31.1799403535  W2        28963           0.0000000000
     81730     27244  TIP3      OH2            45.0103933595       43.8508077139       29.3809303535  W2        28964           0.0000000000
     81731     27244  TIP3      H1             45.0535033595       44.7106577139       28.9625603535  W2        28964           0.0000000000
     81732     27244  TIP3      H2             44.5528033595       43.2982777139       28.7472503535  W2        28964           0.0000000000
     81733     27245  TIP3      OH2            52.7326633595       43.9813677139       27.7817603535  W2        28965           0.0000000000
     81734     27245  TIP3      H1             53.3790933595       43.6526877139       28.4065203535  W2        28965           0.0000000000
     81735     27245  TIP3      H2             53.2426033595       44.4992677139       27.1589003535  W2        28965           0.0000000000
     81736     27246  TIP3      OH2            41.6305433595       46.2473877139       30.1430703535  W2        28966           0.0000000000
     81737     27246  TIP3      H1             42.2842033595       45.6975577139       30.5750803535  W2        28966           0.0000000000
     81738     27246  TIP3      H2             41.6544733595       45.9732877139       29.2262703535  W2        28966           0.0000000000
     81739     27247  TIP3      OH2            46.7869933595       47.7975177139       29.3582203535  W2        28967           0.0000000000
     81740     27247  TIP3      H1             47.4030933595       47.2710577139       29.8676203535  W2        28967           0.0000000000
     81741     27247  TIP3      H2             46.2008733595       47.1573877139       28.9545803535  W2        28967           0.0000000000
     81742     27248  TIP3      OH2            43.8205833595       42.7686477139       33.4550103535  W2        28968           0.0000000000
     81743     27248  TIP3      H1             43.6017533595       43.2987077139       32.6886103535  W2        28968           0.0000000000
     81744     27248  TIP3      H2             43.1526733595       42.9951977139       34.1021503535  W2        28968           0.0000000000
     81745     27249  TIP3      OH2            51.1895633595       52.2687577139       26.9989203535  W2        28969           0.0000000000
     81746     27249  TIP3      H1             50.8940733595       51.9459877139       26.1476103535  W2        28969           0.0000000000
     81747     27249  TIP3      H2             50.8653433595       53.1684277139       27.0401803535  W2        28969           0.0000000000
     81748     27250  TIP3      OH2            46.3897233595       50.4442177139       33.7423803535  W2        28970           0.0000000000
     81749     27250  TIP3      H1             45.6496333595       51.0423677139       33.8459003535  W2        28970           0.0000000000
     81750     27250  TIP3      H2             47.1036733595       50.9981777139       33.4267403535  W2        28970           0.0000000000
     81751     27251  TIP3      OH2            54.4965033595       43.2722977139       29.7623503535  W2        28971           0.0000000000
     81752     27251  TIP3      H1             54.2813033595       42.5066377139       30.2949503535  W2        28971           0.0000000000
     81753     27251  TIP3      H2             55.1522433595       43.7447577139       30.2752003535  W2        28971           0.0000000000
     81754     27252  TIP3      OH2            43.4143133595       44.6608277139       31.4072303535  W2        28972           0.0000000000
     81755     27252  TIP3      H1             44.0279433595       45.2935877139       31.7804703535  W2        28972           0.0000000000
     81756     27252  TIP3      H2             43.9263833595       44.1883277139       30.7509203535  W2        28972           0.0000000000
     81757     27253  TIP3      OH2            44.7971533595       52.4085177139       34.5295303535  W2        28973           0.0000000000
     81758     27253  TIP3      H1             44.7919133595       53.2878677139       34.1514603535  W2        28973           0.0000000000
     81759     27253  TIP3      H2             43.9435633595       52.3249277139       34.9545203535  W2        28973           0.0000000000
     81760     27254  TIP3      OH2            40.9182433595       52.0793077139       25.3114603535  W2        28974           0.0000000000
     81761     27254  TIP3      H1             40.6463333595       52.3084077139       24.4227503535  W2        28974           0.0000000000
     81762     27254  TIP3      H2             40.9638133595       52.9171877139       25.7719903535  W2        28974           0.0000000000
     81763     27255  TIP3      OH2            54.5432133595       53.7008977139       32.0243103535  W2        28975           0.0000000000
     81764     27255  TIP3      H1             53.6015833595       53.7592877139       32.1860003535  W2        28975           0.0000000000
     81765     27255  TIP3      H2             54.8198233595       54.6069477139       31.8872803535  W2        28975           0.0000000000
     81766     27256  TIP3      OH2            47.8470533595       40.0741577139       30.9075003535  W2        28976           0.0000000000
     81767     27256  TIP3      H1             47.7294733595       39.1257577139       30.8533303535  W2        28976           0.0000000000
     81768     27256  TIP3      H2             46.9920633595       40.4067677139       31.1806103535  W2        28976           0.0000000000
     81769     27257  TIP3      OH2            53.9549833595       53.3830977139       27.1581303535  W2        28977           0.0000000000
     81770     27257  TIP3      H1             53.6974633595       52.6931077139       26.5467203535  W2        28977           0.0000000000
     81771     27257  TIP3      H2             54.0260633595       52.9402177139       28.0037203535  W2        28977           0.0000000000
     81772     27258  TIP3      OH2            50.1135433595       48.9117177139       25.4080803535  W2        28978           0.0000000000
     81773     27258  TIP3      H1             49.4020933595       49.4466877139       25.0561303535  W2        28978           0.0000000000
     81774     27258  TIP3      H2             50.8045033595       48.9669277139       24.7479703535  W2        28978           0.0000000000
     81775     27259  TIP3      OH2            50.1674633595       47.3691477139       22.4465803535  W2        28979           0.0000000000
     81776     27259  TIP3      H1             50.8684533595       47.3918377139       23.0979803535  W2        28979           0.0000000000
     81777     27259  TIP3      H2             50.4697533595       46.7411177139       21.7905103535  W2        28979           0.0000000000
     81778     27260  TIP3      OH2            53.5193133595       49.1210477139       26.3596703535  W2        28980           0.0000000000
     81779     27260  TIP3      H1             52.7874133595       49.3494177139       26.9327303535  W2        28980           0.0000000000
     81780     27260  TIP3      H2             53.9665333595       48.4073177139       26.8144203535  W2        28980           0.0000000000
     81781     27261  TIP3      OH2            53.4166633595       47.2953077139       35.4273703535  W2        28981           0.0000000000
     81782     27261  TIP3      H1             53.4965733595       48.0587477139       35.9992203535  W2        28981           0.0000000000
     81783     27261  TIP3      H2             52.8154333595       47.5745477139       34.7368803535  W2        28981           0.0000000000
     81784     27262  TIP3      OH2            45.1646833595       49.7516677139       28.2421703535  W2        28982           0.0000000000
     81785     27262  TIP3      H1             44.8342033595       49.3810077139       27.4238703535  W2        28982           0.0000000000
     81786     27262  TIP3      H2             45.7530933595       49.0810677139       28.5890003535  W2        28982           0.0000000000
     81787     27263  TIP3      OH2            46.5314333595       53.1797277139       30.9233903535  W2        28983           0.0000000000
     81788     27263  TIP3      H1             46.4365633595       52.6010377139       30.1668503535  W2        28983           0.0000000000
     81789     27263  TIP3      H2             47.2607933595       52.8082977139       31.4196703535  W2        28983           0.0000000000
     81790     27264  TIP3      OH2            45.5312333595       48.5202277139       31.8756703535  W2        28984           0.0000000000
     81791     27264  TIP3      H1             46.0964833595       48.6416477139       31.1127903535  W2        28984           0.0000000000
     81792     27264  TIP3      H2             45.8501233595       49.1577277139       32.5145203535  W2        28984           0.0000000000
     81793     27265  TIP3      OH2            51.8404533595       54.0234177139       32.6097203535  W2        28985           0.0000000000
     81794     27265  TIP3      H1             51.6001133595       54.6857277139       33.2576403535  W2        28985           0.0000000000
     81795     27265  TIP3      H2             51.6422733595       53.1889377139       33.0346803535  W2        28985           0.0000000000
     81796     27266  TIP3      OH2            52.3902633595       48.2833377139       24.0447903535  W2        28987           0.0000000000
     81797     27266  TIP3      H1             52.9698133595       48.4333677139       24.7916803535  W2        28987           0.0000000000
     81798     27266  TIP3      H2             52.8042633595       48.7540777139       23.3214303535  W2        28987           0.0000000000
     81799     27267  TIP3      OH2            44.1549533595       48.8210977139       25.8314503535  W2        28990           0.0000000000
     81800     27267  TIP3      H1             43.8630833595       49.5892677139       25.3405803535  W2        28990           0.0000000000
     81801     27267  TIP3      H2             43.4804733595       48.1617177139       25.6685903535  W2        28990           0.0000000000
     81802     27268  TIP3      OH2            40.2479633595       51.1840177139       34.6464303535  W2        28991           0.0000000000
     81803     27268  TIP3      H1             39.7468033595       51.1559577139       33.8314003535  W2        28991           0.0000000000
     81804     27268  TIP3      H2             40.2533333595       50.2783377139       34.9561603535  W2        28991           0.0000000000
     81805     27269  TIP3      OH2            39.9982333595       53.9643977139       31.5304503535  W2        28992           0.0000000000
     81806     27269  TIP3      H1             40.9442933595       53.8200977139       31.5114003535  W2        28992           0.0000000000
     81807     27269  TIP3      H2             39.8858633595       54.7486777139       32.0675703535  W2        28992           0.0000000000
     81808     27270  TIP3      OH2            45.1158133595       40.9776077139       31.6851303535  W2        28995           0.0000000000
     81809     27270  TIP3      H1             44.2541833595       40.8904277139       31.2774203535  W2        28995           0.0000000000
     81810     27270  TIP3      H2             45.0933833595       41.8336177139       32.1128903535  W2        28995           0.0000000000
     81811     27271  TIP3      OH2            49.7785933595       40.6996477139       35.0598303535  W2        28996           0.0000000000
     81812     27271  TIP3      H1             50.1989033595       40.2843577139       35.8128903535  W2        28996           0.0000000000
     81813     27271  TIP3      H2             48.8455533595       40.5209777139       35.1770303535  W2        28996           0.0000000000
     81814     27272  TIP3      OH2            53.8675733595       49.3161677139       21.6745803535  W2        28998           0.0000000000
     81815     27272  TIP3      H1             53.9096533595       49.0935577139       20.7445803535  W2        28998           0.0000000000
     81816     27272  TIP3      H2             54.7167833595       49.7148777139       21.8645703535  W2        28998           0.0000000000
     81817     27273  TIP3      OH2            49.4403233595       43.1919877139       22.3449103535  W2        28999           0.0000000000
     81818     27273  TIP3      H1             49.1868033595       43.2111477139       23.2677203535  W2        28999           0.0000000000
     81819     27273  TIP3      H2             49.1835333595       42.3205277139       22.0435303535  W2        28999           0.0000000000
     81820     27274  TIP3      OH2            45.2068233595       45.9430577139       32.7801503535  W2        29000           0.0000000000
     81821     27274  TIP3      H1             44.5650333595       45.9027877139       33.4891603535  W2        29000           0.0000000000
     81822     27274  TIP3      H2             45.2440233595       46.8695277139       32.5424503535  W2        29000           0.0000000000
     81823     27275  TIP3      OH2            45.2037333595       46.1640677139       27.6921503535  W2        29001           0.0000000000
     81824     27275  TIP3      H1             44.3110233595       45.8236777139       27.6335303535  W2        29001           0.0000000000
     81825     27275  TIP3      H2             45.6543933595       45.7871577139       26.9364703535  W2        29001           0.0000000000
     81826     27276  TIP3      OH2            50.7392833595       46.5800977139       26.5092303535  W2        29002           0.0000000000
     81827     27276  TIP3      H1             50.3303133595       47.3949577139       26.2177103535  W2        29002           0.0000000000
     81828     27276  TIP3      H2             51.4599033595       46.4401077139       25.8949403535  W2        29002           0.0000000000
     81829     27277  TIP3      OH2            51.7440533595       46.0261377139       29.3232003535  W2        29004           0.0000000000
     81830     27277  TIP3      H1             51.5485033595       46.6318177139       28.6082603535  W2        29004           0.0000000000
     81831     27277  TIP3      H2             51.9253133595       45.1926577139       28.8888303535  W2        29004           0.0000000000
     81832     27278  TIP3      OH2            42.9568733595       46.2634077139       34.6473503535  W2        29005           0.0000000000
     81833     27278  TIP3      H1             42.9188133595       46.6635677139       35.5160603535  W2        29005           0.0000000000
     81834     27278  TIP3      H2             42.4659833595       45.4466477139       34.7376403535  W2        29005           0.0000000000
     81835     27279  TIP3      OH2            46.3226133595       43.6376377139       21.4459503535  W2        29006           0.0000000000
     81836     27279  TIP3      H1             45.8916833595       43.1926477139       22.1756903535  W2        29006           0.0000000000
     81837     27279  TIP3      H2             45.6044833595       44.0092677139       20.9337003535  W2        29006           0.0000000000
     81838     27280  TIP3      OH2            39.5649533595       43.3795877139       28.4978203535  W2        29007           0.0000000000
     81839     27280  TIP3      H1             40.1957233595       43.3507977139       29.2172103535  W2        29007           0.0000000000
     81840     27280  TIP3      H2             40.0143833595       42.9544577139       27.7674103535  W2        29007           0.0000000000
     81841     27281  TIP3      OH2            40.8391633595       44.1257877139       23.9218603535  W2        29008           0.0000000000
     81842     27281  TIP3      H1             41.3133333595       44.7167777139       23.3369503535  W2        29008           0.0000000000
     81843     27281  TIP3      H2             40.1218033595       44.6560777139       24.2688703535  W2        29008           0.0000000000
     81844     27282  TIP3      OH2            51.0079733595       47.6642677139       33.9944403535  W2        29009           0.0000000000
     81845     27282  TIP3      H1             51.3314533595       47.0332377139       33.3514903535  W2        29009           0.0000000000
     81846     27282  TIP3      H2             50.5679033595       47.1294877139       34.6551803535  W2        29009           0.0000000000
     81847     27283  TIP3      OH2            47.7852633595       43.5918177139       28.7785603535  W2        29010           0.0000000000
     81848     27283  TIP3      H1             46.8743733595       43.6484977139       29.0671603535  W2        29010           0.0000000000
     81849     27283  TIP3      H2             48.2905533595       43.5313677139       29.5892803535  W2        29010           0.0000000000
     81850     27284  TIP3      OH2            42.6136033595       45.2204477139       27.6053203535  W2        29011           0.0000000000
     81851     27284  TIP3      H1             41.7244033595       45.3199977139       27.2652803535  W2        29011           0.0000000000
     81852     27284  TIP3      H2             42.9100933595       44.3787477139       27.2591103535  W2        29011           0.0000000000
     81853     27285  TIP3      OH2            46.2667833595       45.2207077139       25.2617803535  W2        29012           0.0000000000
     81854     27285  TIP3      H1             47.1983333595       45.3497077139       25.4400903535  W2        29012           0.0000000000
     81855     27285  TIP3      H2             46.0518133595       45.8901377139       24.6122503535  W2        29012           0.0000000000
     81856     27286  TIP3      OH2            52.1904533595       42.8264477139       32.0427403535  W2        29013           0.0000000000
     81857     27286  TIP3      H1             51.5136133595       42.9577577139       32.7067103535  W2        29013           0.0000000000
     81858     27286  TIP3      H2             51.7049433595       42.6713977139       31.2325103535  W2        29013           0.0000000000
     81859     27287  TIP3      OH2            44.9408033595       46.4149277139       22.8283903535  W2        29014           0.0000000000
     81860     27287  TIP3      H1             44.3983133595       46.0353077139       22.1371503535  W2        29014           0.0000000000
     81861     27287  TIP3      H2             45.7742933595       46.6093977139       22.3998003535  W2        29014           0.0000000000
     81862     27288  TIP3      OH2            49.1052333595       46.3791177139       30.6655203535  W2        29016           0.0000000000
     81863     27288  TIP3      H1             49.6695733595       45.8327777139       30.1184803535  W2        29016           0.0000000000
     81864     27288  TIP3      H2             48.9575733595       45.8573077139       31.4542803535  W2        29016           0.0000000000
     81865     27289  TIP3      OH2            44.1072033595       42.5157277139       27.0840003535  W2        29017           0.0000000000
     81866     27289  TIP3      H1             43.7901533595       41.6132577139       27.0485403535  W2        29017           0.0000000000
     81867     27289  TIP3      H2             44.8886133595       42.5174677139       26.5311603535  W2        29017           0.0000000000
     81868     27290  TIP3      OH2            47.7318233595       44.7677277139       33.0795603535  W2        29018           0.0000000000
     81869     27290  TIP3      H1             46.8963533595       45.2216777139       33.1898003535  W2        29018           0.0000000000
     81870     27290  TIP3      H2             48.2558833595       45.0435777139       33.8315503535  W2        29018           0.0000000000
     81871     27291  TIP3      OH2            48.2760833595       50.9804977139       24.7642003535  W2        29019           0.0000000000
     81872     27291  TIP3      H1             47.5311833595       50.4730277139       24.4419903535  W2        29019           0.0000000000
     81873     27291  TIP3      H2             48.1418033595       51.0292977139       25.7106803535  W2        29019           0.0000000000
     81874     27292  TIP3      OH2            52.1737633595       43.7944877139       22.9634603535  W2        29020           0.0000000000
     81875     27292  TIP3      H1             51.2351833595       43.9060477139       22.8123403535  W2        29020           0.0000000000
     81876     27292  TIP3      H2             52.4709733595       44.6511777139       23.2700303535  W2        29020           0.0000000000
     81877     27293  TIP3      OH2            52.8921133595       45.6617577139       24.6242003535  W2        29022           0.0000000000
     81878     27293  TIP3      H1             53.7840133595       45.5242577139       24.9433203535  W2        29022           0.0000000000
     81879     27293  TIP3      H2             52.9484733595       46.4523677139       24.0875503535  W2        29022           0.0000000000
     81880     27294  TIP3      OH2            43.4009133595       50.2754977139       30.5339903535  W2        29023           0.0000000000
     81881     27294  TIP3      H1             44.1456333595       50.2730677139       29.9326403535  W2        29023           0.0000000000
     81882     27294  TIP3      H2             43.4785733595       49.4518777139       31.0155003535  W2        29023           0.0000000000
     81883     27295  TIP3      OH2            50.4014933595       52.4389277139       23.7896603535  W2        29024           0.0000000000
     81884     27295  TIP3      H1             50.1063333595       53.2657177139       24.1711403535  W2        29024           0.0000000000
     81885     27295  TIP3      H2             49.6984933595       51.8196177139       23.9858003535  W2        29024           0.0000000000
     81886     27296  TIP3      OH2            53.2325433595       49.4651577139       31.8052703535  W2        29028           0.0000000000
     81887     27296  TIP3      H1             52.3042333595       49.2333477139       31.7782003535  W2        29028           0.0000000000
     81888     27296  TIP3      H2             53.6836533595       48.6881377139       31.4751503535  W2        29028           0.0000000000
     81889     27297  TIP3      OH2            45.7758533595       53.7933177139       27.9381403535  W2        29029           0.0000000000
     81890     27297  TIP3      H1             46.3030733595       54.5667577139       27.7380203535  W2        29029           0.0000000000
     81891     27297  TIP3      H2             44.8957033595       54.0182377139       27.6365403535  W2        29029           0.0000000000
     81892     27298  TIP3      OH2            41.5306233595       48.6557277139       22.5253803535  W2        29030           0.0000000000
     81893     27298  TIP3      H1             42.1466133595       49.2824477139       22.9048603535  W2        29030           0.0000000000
     81894     27298  TIP3      H2             40.6688833595       48.9717077139       22.7970303535  W2        29030           0.0000000000
     81895     27299  TIP3      OH2            47.2030833595       51.4563077139       27.5145703535  W2        29031           0.0000000000
     81896     27299  TIP3      H1             46.9620833595       52.3817477139       27.5561003535  W2        29031           0.0000000000
     81897     27299  TIP3      H2             46.4624433595       50.9974377139       27.9109603535  W2        29031           0.0000000000
     81898     27300  TIP3      OH2            51.2618233595       51.7047377139       33.5302403535  W2        29032           0.0000000000
     81899     27300  TIP3      H1             50.8359533595       51.4769077139       34.3566403535  W2        29032           0.0000000000
     81900     27300  TIP3      H2             51.8424033595       50.9659177139       33.3477703535  W2        29032           0.0000000000
     81901     27301  TIP3      OH2            53.4647133595       52.6337877139       22.6041403535  W2        29033           0.0000000000
     81902     27301  TIP3      H1             53.8180233595       52.2537677139       23.4084903535  W2        29033           0.0000000000
     81903     27301  TIP3      H2             52.5160633595       52.5402677139       22.6910703535  W2        29033           0.0000000000
     81904     27302  TIP3      OH2            42.0428333595       43.4894577139       35.4069803535  W2        29034           0.0000000000
     81905     27302  TIP3      H1             41.1500633595       43.8279977139       35.3393803535  W2        29034           0.0000000000
     81906     27302  TIP3      H2             41.9441133595       42.6340677139       35.8250603535  W2        29034           0.0000000000
     81907     27303  TIP3      OH2            54.3306433595       51.3059877139       24.8309303535  W2        29035           0.0000000000
     81908     27303  TIP3      H1             54.0534033595       50.5779177139       25.3870403535  W2        29035           0.0000000000
     81909     27303  TIP3      H2             55.2579433595       51.4251877139       25.0361903535  W2        29035           0.0000000000
     81910     27304  TIP3      OH2            47.5554933595       53.7453977139       21.0511403535  W2        29036           0.0000000000
     81911     27304  TIP3      H1             47.7944733595       52.9972077139       20.5040303535  W2        29036           0.0000000000
     81912     27304  TIP3      H2             47.2866233595       53.3575677139       21.8839203535  W2        29036           0.0000000000
     81913     27305  TIP3      OH2            46.4925533595       53.3157777139       23.5074003535  W2        29037           0.0000000000
     81914     27305  TIP3      H1             46.6393533595       52.7957577139       24.2974903535  W2        29037           0.0000000000
     81915     27305  TIP3      H2             46.4897233595       54.2225377139       23.8139903535  W2        29037           0.0000000000
     81916     27306  TIP3      OH2            42.9456633595       50.5681077139       24.0179403535  W2        29038           0.0000000000
     81917     27306  TIP3      H1             42.2595933595       50.9203577139       24.5849103535  W2        29038           0.0000000000
     81918     27306  TIP3      H2             43.4684533595       51.3310677139       23.7713703535  W2        29038           0.0000000000
     81919     27307  TIP3      OH2            50.7771733595       43.2304877139       34.2968403535  W2        29039           0.0000000000
     81920     27307  TIP3      H1             51.4759633595       43.3043577139       34.9468103535  W2        29039           0.0000000000
     81921     27307  TIP3      H2             50.3963133595       42.3659877139       34.4511303535  W2        29039           0.0000000000
     81922     27308  TIP3      OH2            51.5616633595       42.8826577139       25.3940703535  W2        29040           0.0000000000
     81923     27308  TIP3      H1             51.7814933595       43.3541977139       24.5906103535  W2        29040           0.0000000000
     81924     27308  TIP3      H2             52.1200633595       43.2769177139       26.0641303535  W2        29040           0.0000000000
     81925     27309  TIP3      OH2            48.7616533595       44.6105377139       26.2289103535  W2        29041           0.0000000000
     81926     27309  TIP3      H1             49.5739133595       45.1148577139       26.2750803535  W2        29041           0.0000000000
     81927     27309  TIP3      H2             48.5169533595       44.4655077139       27.1428703535  W2        29041           0.0000000000
     81928     27310  TIP3      OH2            49.2972933595       45.5968077139       35.4135703535  W2        29042           0.0000000000
     81929     27310  TIP3      H1             49.4163233595       46.1703477139       36.1706103535  W2        29042           0.0000000000
     81930     27310  TIP3      H2             49.9527533595       44.9087477139       35.5283503535  W2        29042           0.0000000000
     81931     27311  TIP3      OH2            49.6453233595       41.6918377139       27.1670203535  W2        29043           0.0000000000
     81932     27311  TIP3      H1             49.2986733595       42.3088977139       27.8114503535  W2        29043           0.0000000000
     81933     27311  TIP3      H2             50.3040133595       42.1924077139       26.6855703535  W2        29043           0.0000000000
     81934     27312  TIP3      OH2            45.3030233595       42.7547777139       23.8542703535  W2        29044           0.0000000000
     81935     27312  TIP3      H1             45.2195033595       43.6430877139       24.2009103535  W2        29044           0.0000000000
     81936     27312  TIP3      H2             46.1930533595       42.4894477139       24.0859503535  W2        29044           0.0000000000
     81937     27313  TIP3      OH2            54.1039733595       47.2539377139       30.3442703535  W2        29045           0.0000000000
     81938     27313  TIP3      H1             53.3064133595       46.8389577139       30.0157703535  W2        29045           0.0000000000
     81939     27313  TIP3      H2             54.5490833595       46.5633077139       30.8353203535  W2        29045           0.0000000000
     81940     27314  TIP3      OH2            43.5615533595       53.1819977139       22.9147203535  W2        29046           0.0000000000
     81941     27314  TIP3      H1             44.1537033595       53.8814777139       23.1909603535  W2        29046           0.0000000000
     81942     27314  TIP3      H2             44.0208533595       52.7489477139       22.1951803535  W2        29046           0.0000000000
     81943     27315  TIP3      OH2            41.8774733595       45.8462977139       22.0306603535  W2        29047           0.0000000000
     81944     27315  TIP3      H1             41.8327333595       46.7856077139       22.2093603535  W2        29047           0.0000000000
     81945     27315  TIP3      H2             40.9897933595       45.6107877139       21.7608703535  W2        29047           0.0000000000
     81946     27316  TIP3      OH2            42.6856733595       40.6279577139       30.7037603535  W2        29048           0.0000000000
     81947     27316  TIP3      H1             42.4566533595       40.6872077139       29.7762603535  W2        29048           0.0000000000
     81948     27316  TIP3      H2             42.2430133595       39.8365077139       31.0101703535  W2        29048           0.0000000000
     81949     27317  TIP3      OH2            41.6160033595       54.5686677139       26.8643403535  W2        29049           0.0000000000
     81950     27317  TIP3      H1             40.7838633595       55.0409377139       26.8914803535  W2        29049           0.0000000000
     81951     27317  TIP3      H2             42.1618333595       55.0784277139       26.2656503535  W2        29049           0.0000000000
     81952     27318  TIP3      OH2            45.1526933595       51.3350177139       21.2810303535  W2        29052           0.0000000000
     81953     27318  TIP3      H1             45.2171033595       50.5409777139       21.8116703535  W2        29052           0.0000000000
     81954     27318  TIP3      H2             45.8056133595       51.2162977139       20.5912303535  W2        29052           0.0000000000
     81955     27319  TIP3      OH2            50.5050333595       52.3821877139       21.0168303535  W2        29054           0.0000000000
     81956     27319  TIP3      H1             50.2364433595       52.5623977139       21.9177203535  W2        29054           0.0000000000
     81957     27319  TIP3      H2             50.2985933595       51.4568077139       20.8854103535  W2        29054           0.0000000000
     81958     27320  TIP3      OH2            46.3020733595       49.3076377139       23.5868303535  W2        29057           0.0000000000
     81959     27320  TIP3      H1             45.8422733595       48.8234677139       24.2726803535  W2        29057           0.0000000000
     81960     27320  TIP3      H2             46.5569433595       48.6391777139       22.9508803535  W2        29057           0.0000000000
     81961     27321  TIP3      OH2            47.3731133595       47.5508177139       21.8491503535  W2        29059           0.0000000000
     81962     27321  TIP3      H1             47.1926133595       47.3959377139       20.9219803535  W2        29059           0.0000000000
     81963     27321  TIP3      H2             48.3231633595       47.6586877139       21.8939403535  W2        29059           0.0000000000
     81964     27322  TIP3      OH2            46.3429433595       42.9250077139       34.5178403535  W2        29062           0.0000000000
     81965     27322  TIP3      H1             46.8786933595       43.3766777139       33.8657703535  W2        29062           0.0000000000
     81966     27322  TIP3      H2             45.4909033595       42.8169877139       34.0952503535  W2        29062           0.0000000000
     81967     27323  TIP3      OH2            47.9247833595       48.3646277139       34.7573603535  W2        29063           0.0000000000
     81968     27323  TIP3      H1             48.6752633595       48.2083777139       34.1841403535  W2        29063           0.0000000000
     81969     27323  TIP3      H2             47.5856133595       49.2162877139       34.4819103535  W2        29063           0.0000000000
     81970     27324  TIP3      OH2            47.1484933595       40.3815777139       34.9492003535  W2        29067           0.0000000000
     81971     27324  TIP3      H1             47.0504533595       41.3278977139       34.8438203535  W2        29067           0.0000000000
     81972     27324  TIP3      H2             46.4061133595       40.0089577139       34.4735503535  W2        29067           0.0000000000
     81973     27325  TIP3      OH2            40.8387733595       52.8775677139       22.3333203535  W2        29074           0.0000000000
     81974     27325  TIP3      H1             41.7526933595       52.9564577139       22.6067103535  W2        29074           0.0000000000
     81975     27325  TIP3      H2             40.8460833595       52.1905277139       21.6668803535  W2        29074           0.0000000000
     81976     27326  TIP3      OH2            40.4377033595       49.4266577139       31.6668203535  W2        29075           0.0000000000
     81977     27326  TIP3      H1             40.6219933595       49.3448277139       30.7311103535  W2        29075           0.0000000000
     81978     27326  TIP3      H2             41.2869933595       49.3023577139       32.0904603535  W2        29075           0.0000000000
     81979     27327  TIP3      OH2            41.2564333595       43.0093177139       30.6989903535  W2        29077           0.0000000000
     81980     27327  TIP3      H1             41.7015933595       42.2175677139       31.0009603535  W2        29077           0.0000000000
     81981     27327  TIP3      H2             41.7227333595       43.7258377139       31.1295503535  W2        29077           0.0000000000
     81982     27328  TIP3      OH2            39.5604633595       46.0086177139       31.7680103535  W2        29078           0.0000000000
     81983     27328  TIP3      H1             40.0524433595       45.7876677139       30.9772103535  W2        29078           0.0000000000
     81984     27328  TIP3      H2             39.9225533595       46.8489577139       32.0489603535  W2        29078           0.0000000000
     81985     27329  TIP3      OH2            39.8741133595       42.2665277139       25.8222503535  W2        29079           0.0000000000
     81986     27329  TIP3      H1             38.9489533595       42.4751877139       25.6928003535  W2        29079           0.0000000000
     81987     27329  TIP3      H2             40.3281033595       42.7506077139       25.1324803535  W2        29079           0.0000000000
     81988     27330  TIP3      OH2            39.8376533595       41.0044277139       34.1665003535  W2        29080           0.0000000000
     81989     27330  TIP3      H1             39.1727033595       40.7584577139       34.8095903535  W2        29080           0.0000000000
     81990     27330  TIP3      H2             39.3947833595       41.6264677139       33.5893003535  W2        29080           0.0000000000
     81991     27331  TIP3      OH2            49.9872833595       41.8774577139       30.1753103535  W2        29082           0.0000000000
     81992     27331  TIP3      H1             49.3129633595       41.2480177139       30.4308903535  W2        29082           0.0000000000
     81993     27331  TIP3      H2             50.5512033595       41.3933477139       29.5721003535  W2        29082           0.0000000000
     81994     27332  TIP3      OH2            42.3140333595       40.5114877139       27.9973003535  W2        29083           0.0000000000
     81995     27332  TIP3      H1             41.5370133595       40.2769777139       27.4898903535  W2        29083           0.0000000000
     81996     27332  TIP3      H2             42.8443933595       39.7146977139       28.0061003535  W2        29083           0.0000000000
     81997     27333  TIP3      OH2            41.1503733595       40.3092977139       23.8009103535  W2        29084           0.0000000000
     81998     27333  TIP3      H1             41.5894433595       40.9203477139       23.2092603535  W2        29084           0.0000000000
     81999     27333  TIP3      H2             40.5166133595       40.8477077139       24.2749103535  W2        29084           0.0000000000
     82000     27334  TIP3      OH2            46.8932933595       40.4381977139       27.8106103535  W2        29085           0.0000000000
     82001     27334  TIP3      H1             47.7676333595       40.8266277139       27.7810403535  W2        29085           0.0000000000
     82002     27334  TIP3      H2             46.7573733595       40.2229777139       28.7333303535  W2        29085           0.0000000000
     82003     27335  TIP3      OH2            52.4501333595       40.4681777139       29.4597803535  W2        29086           0.0000000000
     82004     27335  TIP3      H1             52.5262933595       40.5633377139       28.5103803535  W2        29086           0.0000000000
     82005     27335  TIP3      H2             52.1750533595       39.5604677139       29.5886903535  W2        29086           0.0000000000
     82006     27336  TIP3      OH2            53.8033933595       40.4939577139       25.1522803535  W2        29087           0.0000000000
     82007     27336  TIP3      H1             53.1005033595       41.1088777139       24.9424203535  W2        29087           0.0000000000
     82008     27336  TIP3      H2             53.3585333595       39.6566277139       25.2833703535  W2        29087           0.0000000000
     82009     27337  TIP3      OH2            43.0112833595       42.2254477139       22.2433203535  W2        29088           0.0000000000
     82010     27337  TIP3      H1             43.5026233595       41.5956877139       21.7158703535  W2        29088           0.0000000000
     82011     27337  TIP3      H2             43.6349133595       42.5213877139       22.9064403535  W2        29088           0.0000000000
     82012     27338  TIP3      OH2            48.0372933595       42.5185977139       24.7003703535  W2        29089           0.0000000000
     82013     27338  TIP3      H1             48.2154233595       41.8719177139       25.3832303535  W2        29089           0.0000000000
     82014     27338  TIP3      H2             47.9839133595       43.3523677139       25.1674803535  W2        29089           0.0000000000
